mFile = /opt/software/qchem/qchem-5.0.1//bin/mpi/machines
Process 0 of 1 is on vega02.cac.cornell.edu - thread support 0
initial socket setup ...start
initial socket setup ...done 
now start server 0 ... 
vega02.cac.cornell.edu 10.84.3
Q-Chem Developer Version! Running on 10.84.3.*
                  Welcome to Q-Chem
     A Quantum Leap Into The Future Of Chemistry


 Q-Chem 5.0, Q-Chem, Inc., Pleasanton, CA (2017)

 Yihan Shao,  Zhengting Gan,  E. Epifanovsky,  A. T. B. Gilbert,  M. Wormit,  
 J. Kussmann,  A. W. Lange,  A. Behn,  Jia Deng,  Xintian Feng,  D. Ghosh,  
 M. Goldey,  P. R. Horn,  L. D. Jacobson,  I. Kaliman,  T. Kus,  A. Landau,  
 Jie Liu,  E. I. Proynov,  R. M. Richard,  R. P. Steele,  E. J. Sundstrom,  
 H. L. Woodcock III,  P. M. Zimmerman,  D. Zuev,  B. Albrecht,  E. Alguire,  
 S. A. Baeppler,  Z. Benda,  Y. A. Bernard,  E. J. Berquist,  K. B. Bravaya,  
 D. Casanova,  Chun-Min Chang,  Yunqing Chen,  A. Chien,  K. D. Closser,  
 M. P. Coons,  S. Dasgupta,  M. Diedenhofen,  Hainam Do,  R. G. Edgar,  
 Po-Tung Fang,  S. Fatehi,  Qingguo Feng,  Qinghui Ge,  A. Ghysels,  
 J. Gomes,  J. Gonthier,  A. Gunina,  M. W. D. Hanson-Heine,  
 P. H. P. Harbach,  A. W. Hauser,  J. E. Herr,  E. G. Hohenstein,  
 Z. C. Holden,  Kerwin Hui,  T.-C. Jagau,  Hyunjun Ji,  B. Kaduk,  
 K. Khistyaev,  Jaehoon Kim,  P. Klunzinger,  K. Koh,  D. Kosenkov,  
 T. Kowalczyk,  C. M. Krauter,  A. Kunitsa,  Ka Un Lao,  A. Laurent,  
 K. V. Lawler,  Joonho Lee,  D. Lefrancois,  S. Lehtola,  D. S. Levine,  
 Yi-Pei Li,  You-Sheng Lin,  Fenglai Liu,  E. Livshits,  A. Luenser,  
 P. Manohar,  E. Mansoor,  S. F. Manzer,  Shan-Ping Mao,  Yuezhi Mao,  
 N. Mardirossian,  A. V. Marenich,  L. A. Martinez-Martinez,  S. A. Maurer,  
 N. J. Mayhall,  S. C. McKenzie,  J.-M. Mewes,  A. F. Morrison,  K. Nanda,  
 T. S. Nguyen-Beck,  R. Olivares-Amaya,  J. A. Parkhill,  T. M. Perrine,  
 F. Plasser,  S. Prager,  A. Prociuk,  D. R. Rehn,  F. Rob,  M. Schneider,  
 N. Sergueev,  S. M. Sharada,  S. Sharma,  D. W. Small,  T. Stauch,  
 T. Stein,  Yu-Chuan Su,  A. J. W. Thom,  T. Tsuchimochi,  L. Vogt,  
 O. Vydrov,  M. A. Watson,  J. Wenzel,  M. de Wergifosse,  T. A. Wesolowski,  
 A. White,  J. Witte,  A. Yamada,  Jun Yang,  K. Yao,  S. Yeganeh,  
 S. R. Yost,  Zhi-Qiang You,  A. Zech,  Igor Ying Zhang,  Xing Zhang,  
 Yan Zhao,  Ying Zhu,  B. R. Brooks,  G. K. L. Chan,  C. J. Cramer,  
 M. S. Gordon,  W. J. Hehre,  A. Klamt,  M. W. Schmidt,  C. D. Sherrill,  
 D. G. Truhlar,  A. Aspuru-Guzik,  R. Baer,  A. T. Bell,  N. A. Besley,  
 Jeng-Da Chai,  A. Dreuw,  B. D. Dunietz,  T. R. Furlani,  Chao-Ping Hsu,  
 Yousung Jung,  Jing Kong,  D. S. Lambrecht,  WanZhen Liang,  C. Ochsenfeld,  
 V. A. Rassolov,  L. V. Slipchenko,  J. E. Subotnik,  T. Van Voorhis,  
 J. M. Herbert,  A. I. Krylov,  P. M. W. Gill,  M. Head-Gordon

 Contributors to earlier versions of Q-Chem not listed above: 
 R. D. Adamson,  B. Austin,  J. Baker,  G. J. O. Beran,  K. Brandhorst,  
 S. T. Brown,  E. F. C. Byrd,  A. K. Chakraborty,  C.-L. Cheng,  
 Siu Hung Chien,  D. M. Chipman,  D. L. Crittenden,  H. Dachsel,  
 R. A. DiStasio Jr.,  R. J. Doerksen,  A. D. Dutoi,  L. Fusti-Molnar,  
 W. A. Goddard III,  A. Golubeva-Zadorozhnaya,  S. R. Gwaltney,  G. Hawkins,  
 A. Heyden,  S. Hirata,  G. Kedziora,  F. J. Keil,  C. Kelley,  Jihan Kim,  
 R. A. King,  R. Z. Khaliullin,  P. P. Korambath,  W. Kurlancheek,  
 A. M. Lee,  M. S. Lee,  S. V. Levchenko,  Ching Yeh Lin,  D. Liotard,  
 R. C. Lochan,  I. Lotan,  P. E. Maslen,  N. Nair,  D. P. O'Neill,  
 D. Neuhauser,  E. Neuscamman,  C. M. Oana,  R. Olson,  B. Peters,  
 R. Peverati,  P. A. Pieniazek,  Y. M. Rhee,  J. Ritchie,  M. A. Rohrdanz,  
 E. Rosta,  N. J. Russ,  H. F. Schaefer III,  N. E. Schultz,  N. Shenvi,  
 A. C. Simmonett,  A. Sodt,  D. Stuck,  K. S. Thanthiriwatte,  V. Vanovschi,  
 Tao Wang,  A. Warshel,  C. F. Williams,  Q. Wu,  X. Xu,  W. Zhang

 Please cite Q-Chem as follows:
 Y. Shao et al., Mol. Phys. 113, 184-215 (2015)
 DOI: 10.1080/00268976.2014.952696

 Q-Chem 5.0.1 for Intel X86 EM64T Linux

 Parts of Q-Chem use Armadillo 5.200.1 (Boston Tea Smuggler).
 http://arma.sourceforge.net/

 Q-Chem begins on Sat Jan 13 06:52:17 2018  

Host: vega02.cac.cornell.edu
0

     Scratch files written to /scratch/jj585/SOT1001/0002c.save//
 Parallel job on  1  processors

Checking the input file for inconsistencies... 	...done.

--------------------------------------------------------------
User input:
--------------------------------------------------------------
$molecule
0  1
O -3.94934 -3.66094 2.70899
C -3.26408 -4.56952 2.26188
C -3.36658 -6.02376 2.66595
C -2.09215 -6.69516 3.20345
C -0.90361 -5.79095 3.44399
O -0.75776 -5.56254 4.78264
C -1.86089 -6.04156 5.55911
C -3.0029 -6.46807 4.64258
O -3.53791 -5.32226 3.96159
C -3.08749 -4.12053 4.39988
C -2.69102 -4.13661 5.85701
C -2.61383 -2.75461 6.52215
C -3.27367 -1.61935 5.76552
O -4.34725 -1.10801 6.04928
O -2.31133 -4.21635 1.32491
O -2.58082 -1.10496 4.71462
O -2.10335 -3.472 3.93565
C -3.02936 -0.07976 3.90861
C -3.94638 -4.58563 6.82104
C -3.50177 -5.19402 8.15291
C -2.83639 -3.98197 8.76163
C -3.40379 -2.90132 7.82774
O -4.56566 -3.43541 7.31478
H -1.60506 -4.02876 6.18304
H -1.62684 -2.25346 6.80961
H -4.74095 -5.17977 6.33529
H -4.45259 -5.38227 8.70681
H -2.952 -6.14811 8.24992
H -3.17207 -3.89233 9.81792
H -1.72599 -3.97323 8.70441
H -3.52355 -1.92947 8.35793
O -0.04776 -5.38295 2.65118
C -2.13532 -2.94421 0.82029
C -4.02614 -7.40324 2.06666
C -3.36794 -8.0148 0.77377
C -2.10036 -8.649 1.34883
C -2.26809 -8.25671 2.83609
O -3.66299 -8.42021 2.97048
H -3.56316 -5.90962 1.58633
H -1.67358 -6.60367 2.19757
H -1.87757 -2.2347 1.63439
H -5.13219 -7.30481 1.93726
H -4.02063 -8.83754 0.40495
H -3.20214 -7.29652 -0.05841
H -2.1788 -9.75573 1.25978
H -1.14436 -8.30804 0.89498
H -1.66763 -8.89487 3.51858
H -3.06152 -2.60584 0.30908
H -1.30483 -2.95704 0.08501
H -2.26504 0.13382 3.13361
H -3.19459 0.83824 4.51204
H -3.97461 -0.37608 3.40554
H -3.71534 -6.63935 5.45725
H -3.66399 -7.35048 4.88249
H -1.68403 -6.05063 6.65506
H -1.52785 -7.08996 5.75042
$end

$opt
CONSTRAINT
tors           1           2           3           4    -123.158
tors           3           4           5           6    +104.211
tors           4           5           6           7      -9.474
tors           5           6           7           8      -9.474
tors           6           7           8           9     -66.316
tors           7           8           9          10      -9.474
tors           8           9          10          11     -28.421
tors           9          10          11          12    -161.053
tors          11          12          13          14    +104.211
ENDCONSTRAINT
$end

$rem
JOBTYPE                   OPT
METHOD                    B3LYP
DFT_D                     d3_op
BASIS                     STO-3G
GEOM_OPT_MAX_CYCLES       100
GEOM_OPT_TOL_GRADIENT     300
GEOM_OPT_TOL_DISPLACEMENT 1200
GEOM_OPT_TOL_ENERGY       100
SYMMETRY                  False
THRESH                    12
SCF_CONVERGENCE           8
MAX_SUB_FILE_NUM          128
MEM_STATIC                400
MEM_TOTAL                 4000
$end
--------------------------------------------------------------
 Adding empirical dispersion correction 
 ----------------------------------------------------------------
 Doing -D3(op) with
 s6 =   1.00000
 s8 =   0.78311
 a1 =   0.30000
 a2 =   4.25000
 n  =  10.00000
 -D3 energy without 3body term =     -0.0872184754 hartrees
 ----------------------------------------------------------------
             Standard Nuclear Orientation (Angstroms)
    I     Atom           X                Y                Z
 ----------------------------------------------------------------
    1      O      -0.1897946723    -1.7433864375    -1.2969646625
    2      C      -1.2242771722    -1.4728232204    -0.7039657257
    3      C      -1.9670462448    -0.1580309970    -0.7945654316
    4      C      -2.2170941625     0.5997121464     0.5196481744
    5      C      -1.5422999369     0.0472463355     1.7555756918
    6      O      -0.4681266680     0.8241274767     2.0842619463
    7      C      -0.1449028756     1.7919972327     1.0802618797
    8      C      -0.9538874845     1.5268777052    -0.1851947177
    9      O      -0.5500005795     0.2797014382    -0.7719573301
   10      C       0.5576319133    -0.2869817627    -0.2323725786
   11      C       1.5114849841     0.7269196917     0.3531554091
   12      C       2.9471725324     0.2219459598     0.5583292602
   13      C       3.3053138162    -1.0621535861    -0.1624454808
   14      O       3.9881124423    -1.1407568956    -1.1734696673
   15      O      -1.7312146105    -2.4548704377     0.1260777003
   16      O       2.8636647934    -2.2188470565     0.3997247431
   17      O       0.5850750255    -1.1439290696     0.7001081892
   18      C       3.0852035933    -3.4762813475    -0.1214804523
   19      C       2.0034458907     1.8178240757    -0.7759166091
   20      C       2.4435515281     3.1553207560    -0.1766639085
   21      C       3.6522357267     2.6861831729     0.5987896501
   22      C       3.8380804292     1.3080474793    -0.0555049864
   23      O       3.2346693481     1.4057431492    -1.2902813264
   24      H       1.6906600606     0.8017248087     1.4754462767
   25      H       3.3906877130     0.0006191221     1.5889807773
   26      H       1.3343622660     1.9497688905    -1.6449474233
   27      H       2.8019675754     3.7501388987    -1.0507527249
   28      H       1.7694306868     3.8532154284     0.3529112408
   29      H       4.4867026479     3.3961634421     0.4089003907
   30      H       3.4923543607     2.5573446011     1.6915738224
   31      H       4.9108050210     1.0100481903    -0.0753717974
   32      O      -1.8992293563    -0.8640308599     2.5103380260
   33      C      -1.1960974754    -3.7184587532     0.2708370339
   34      C      -3.2889740795     0.4349089834    -1.5679100815
   35      C      -4.6955548230    -0.1000560995    -1.1051570179
   36      C      -4.8923108487     0.6586757614     0.2083405001
   37      C      -3.5627893892     1.4489491103     0.2508590533
   38      O      -3.4271103856     1.7621543981    -1.1180940459
   39      H      -2.6121106030    -0.9882188565    -1.1291264457
   40      H      -2.8971747481    -0.2078754421     0.8036526170
   41      H      -0.1561235550    -3.6591367734     0.6549378803
   42      H      -3.1827503025     0.3560141496    -2.6779873499
   43      H      -5.4623481071     0.2647023527    -1.8248186517
   44      H      -4.7804690476    -1.2059978504    -1.0301785628
   45      H      -5.7325279886     1.3784639204     0.0863806985
   46      H      -5.0732905492     0.0271110139     1.1053030755
   47      H      -3.6119138141     2.3359164308     0.9175439567
   48      H      -1.2044039341    -4.2495302855    -0.7046476617
   49      H      -1.8096507583    -4.2916457813     0.9957673253
   50      H       2.6127226549    -4.2316666636     0.5392625127
   51      H       4.1755803108    -3.6812374683    -0.1782635509
   52      H       2.6331525077    -3.5545543786    -1.1333626976
   53      H      -0.4297095468     2.2768188037    -0.7880385112
   54      H      -1.3400596734     2.3652612838    -0.8342156880
   55      H       0.5884838721     2.5614386223     1.4005304439
   56      H      -0.7960552764     2.6389320317     1.4048534920
 ----------------------------------------------------------------
 Molecular Point Group                 C1    NOp =  1
 Largest Abelian Subgroup              C1    NOp =  1
 Nuclear Repulsion Energy =  3654.4927428313 hartrees
 There are      113 alpha and      113 beta electrons
 Requested basis set is STO-3G
 There are 86 shells and 176 basis functions

 Total QAlloc Memory Limit   4000 MB
 Mega-Array Size       392 MB
 MEM_STATIC part       400 MB
 A cutoff of  1.0D-12 yielded   2760 shell pairs
 There are     13149 function pairs
 
 -------------------------------------------------------
 OpenMP Integral Computing Module                       
 Release: version 1.0, May 2013, Q-Chem Inc. Pittsburgh 
 -------------------------------------------------------
 Integral Job Info:
 Integral job number is                      11
 Integral operator is                         1
 short-range coefficients                     0
 long-range coefficients              100000000
 Omega coefficients                           0
 if combine SR and LR in K                    0
 Integral screening is                        0
 Integral computing path is                   2
 max size of driver memory is            800000
 size of driver memory is                 45569
 size of scratch memory is              1046100
 max col of scratch BK array                289
 max len of scratch array in speh3           22
 max len of scratch index in speh4            8
 max int batch size is                      520
 min int batch size is                       52
 fixed nKL is                                52
 max L of basis functions is                  1
 order of int derivative is                   0
 number of shells is                         86
 number of basis is                         176
 number of cartesian basis is               176
 number of contracted shell pairs          2760
 number of primitive shell pairs          13981
 maxK2 (contraction) of shell pair            9
 max number of K2 of shell pair               1
 max number of CS2 of shell pair            415
 max number of PS2 of shell pair           1644
 mem total for path MDJ                   63082
 -------------------------------------------------------
 Smallest overlap matrix eigenvalue = 1.97E-01

 Scale SEOQF with 1.000000e-02/1.000000e-01/1.000000e-01

 Standard Electronic Orientation quadrupole field applied
 Nucleus-field energy     =     0.0000000317 hartrees
 Guess from superposition of atomic densities
 Warning:  Energy on first SCF cycle will be non-variational
 A restricted hybrid HF-DFT SCF calculation will be
 performed using Pulay DIIS extrapolation
 Exchange:     0.2000 Hartree-Fock + 0.0800 Slater + 0.7200 B88
 Correlation:  0.1900 VWN1RPA + 0.8100 LYP
 Using SG-1 standard quadrature grid
 Dispersion:   Grimme D3
 SCF converges when DIIS error is below 1.0E-08
 using 48 threads for integral computing
 -------------------------------------------------------
 OpenMP Integral computing Module                
 Release: version 1.0, May 2013, Q-Chem Inc. Pittsburgh 
 -------------------------------------------------------
 -------------------------------------------------------
 OpenMP BLAS3 based DFT computing Module                
 Release: version 1.0, May 2013, Q-Chem Inc. Pittsburgh 
 -------------------------------------------------------
 ---------------------------------------
  Cycle       Energy         DIIS Error
 ---------------------------------------
    1   -1510.0124653466      8.48E-02
    2   -1507.8949291854      1.27E-02
    3   -1484.2603755148      5.91E-02
    4   -1508.4901944434      1.01E-02
    5   -1508.5784360410      8.23E-03
    6   -1508.9007529197      2.35E-03
    7   -1508.9044987754      2.72E-03
    8   -1508.9354808295      7.85E-04
    9   -1508.9372059487      4.75E-04
   10   -1508.9382116793      1.96E-04
   11   -1508.9383614740      1.24E-04
   12   -1508.9384294331      6.57E-05
   13   -1508.9384600423      1.89E-05
   14   -1508.9384620275      8.74E-06
   15   -1508.9384623677      4.14E-06
   16   -1508.9384624663      1.63E-06
   17   -1508.9384624842      4.93E-07
   18   -1508.9384624854      2.64E-07
   19   -1508.9384624859      6.06E-08
   20   -1508.9384624860      3.92E-08
   21   -1508.9384624859      7.55E-09 Convergence criterion met
 ---------------------------------------
 SCF time:  CPU 184.22 s  wall 3.91 s
 SCF   energy in the final basis set = -1508.93846249
 Total energy in the final basis set = -1508.93846249
 
 --------------------------------------------------------------
 
                    Orbital Energies (a.u.)
 --------------------------------------------------------------
 
 Alpha MOs
 -- Occupied --
-18.997 -18.934 -18.908 -18.905 -18.900 -18.892 -18.867 -18.847
-18.830 -18.818 -10.107 -10.093 -10.093 -10.084 -10.083 -10.080
-10.071 -10.070 -10.064 -10.063 -10.062 -10.054 -10.039 -10.029
-10.025 -10.024 -10.023 -10.020 -10.019 -10.013  -1.130  -1.039
 -1.037  -1.031  -1.019  -1.014  -0.952  -0.949  -0.925  -0.923
 -0.807  -0.803  -0.776  -0.750  -0.746  -0.730  -0.712  -0.678
 -0.667  -0.661  -0.644  -0.621  -0.598  -0.577  -0.554  -0.551
 -0.541  -0.536  -0.527  -0.499  -0.497  -0.486  -0.478  -0.473
 -0.464  -0.459  -0.449  -0.434  -0.425  -0.416  -0.407  -0.402
 -0.399  -0.394  -0.387  -0.376  -0.369  -0.360  -0.357  -0.355
 -0.341  -0.336  -0.334  -0.326  -0.322  -0.319  -0.316  -0.314
 -0.311  -0.310  -0.297  -0.294  -0.285  -0.280  -0.258  -0.252
 -0.241  -0.237  -0.227  -0.215  -0.202  -0.180  -0.169  -0.165
 -0.156  -0.150  -0.148  -0.141  -0.132  -0.117  -0.108  -0.099
  0.012
 -- Virtual --
  0.055   0.104   0.108   0.138   0.159   0.195   0.205   0.252
  0.256   0.260   0.266   0.306   0.321   0.323   0.324   0.335
  0.336   0.342   0.351   0.363   0.372   0.378   0.382   0.393
  0.399   0.400   0.401   0.413   0.415   0.418   0.426   0.434
  0.440   0.441   0.444   0.447   0.451   0.452   0.455   0.464
  0.466   0.468   0.474   0.475   0.479   0.488   0.503   0.509
  0.511   0.520   0.536   0.542   0.551   0.556   0.560   0.570
  0.583   0.587   0.592   0.663   0.682   0.707   0.710
 --------------------------------------------------------------
 
          Ground-State Mulliken Net Atomic Charges

     Atom                 Charge (a.u.)
  ----------------------------------------
      1 O                    -0.241384
      2 C                     0.180464
      3 C                     0.035306
      4 C                    -0.122519
      5 C                     0.239538
      6 O                    -0.188888
      7 C                    -0.048062
      8 C                    -0.053136
      9 O                    -0.142098
     10 C                     0.198304
     11 C                    -0.088160
     12 C                    -0.072927
     13 C                     0.237175
     14 O                    -0.241544
     15 O                    -0.215654
     16 O                    -0.207185
     17 O                    -0.214430
     18 C                    -0.096208
     19 C                     0.032976
     20 C                    -0.150502
     21 C                    -0.147530
     22 C                     0.044451
     23 O                    -0.206341
     24 H                     0.137227
     25 H                     0.070968
     26 H                     0.069876
     27 H                     0.075421
     28 H                     0.063143
     29 H                     0.076800
     30 H                     0.067176
     31 H                     0.085854
     32 O                    -0.201789
     33 C                    -0.098316
     34 C                     0.049803
     35 C                    -0.139543
     36 C                    -0.142599
     37 C                     0.044971
     38 O                    -0.219207
     39 H                     0.014056
     40 H                     0.081261
     41 H                     0.090413
     42 H                     0.081548
     43 H                     0.081778
     44 H                     0.082674
     45 H                     0.077946
     46 H                     0.082293
     47 H                     0.073902
     48 H                     0.072765
     49 H                     0.088079
     50 H                     0.090333
     51 H                     0.080336
     52 H                     0.088661
     53 H                     0.083929
     54 H                     0.180200
     55 H                     0.120089
     56 H                     0.058308
  ----------------------------------------
  Sum of atomic charges =     0.000000

 -----------------------------------------------------------------
                    Cartesian Multipole Moments
 -----------------------------------------------------------------
    Charge (ESU x 10^10)
                 0.0000
    Dipole Moment (Debye)
         X      -2.2908      Y       4.1932      Z      -0.3961
       Tot       4.7945
    Quadrupole Moments (Debye-Ang)
        XX    -158.0369     XY       0.3667     YY    -147.1791
        XZ      14.3399     YZ       3.7462     ZZ    -170.1929
    Octopole Moments (Debye-Ang^2)
       XXX     -36.5898    XXY      -3.9456    XYY      21.6823
       YYY     -49.2720    XXZ      29.3083    XYZ      -9.6264
       YYZ       4.9278    XZZ      -6.0658    YZZ       1.7234
       ZZZ     -15.4397
    Hexadecapole Moments (Debye-Ang^3)
      XXXX   -7009.9075   XXXY     -29.2151   XXYY   -1697.4825
      XYYY     -54.7336   YYYY   -3020.4711   XXXZ     136.7002
      XXYZ      18.9976   XYYZ     -25.0994   YYYZ     -21.4737
      XXZZ   -1430.3957   XYZZ     -11.6838   YYZZ    -730.0596
      XZZZ      27.5686   YZZZ      -1.6427   ZZZZ   -1120.9532
 -----------------------------------------------------------------
 Calculating analytic gradient of the SCF energy
 Gradient of SCF Energy
            1           2           3           4           5           6
    1  -0.0770270   0.0303804   0.1500505   0.1877975  -0.0306714  -0.0689991
    2   0.0356061   0.1608073   0.1125768   0.1485712  -0.0335819  -0.0004955
    3   0.0988055  -0.0383019   0.0040058  -0.0420905  -0.0212906  -0.0598057
            7           8           9          10          11          12
    1   0.1110439  -0.1369543  -0.1182444  -0.0978282  -0.1193852  -0.0869905
    2  -0.1287638  -0.1027653  -0.2941688   0.0272166  -0.0262030   0.0668925
    3  -0.0806082   0.0533982   0.0861964  -0.0825127   0.0397215  -0.0380049
           13          14          15          16          17          18
    1  -0.0135126  -0.0402799   0.0980007   0.0606662   0.0134423  -0.0199713
    2   0.0196130  -0.0059235  -0.0526930  -0.0303171   0.0572204   0.0366790
    3   0.0291294   0.0614961  -0.0372059  -0.1038017  -0.0437505   0.0394692
           19          20          21          22          23          24
    1   0.0801695   0.0162764  -0.0223371  -0.0784923  -0.0145897   0.0691528
    2  -0.0327081  -0.0556049  -0.0215542   0.0186967   0.0178755  -0.0239586
    3   0.0023817   0.0130122  -0.0380703  -0.0426373   0.0917299   0.0154865
           25          26          27          28          29          30
    1   0.0333251   0.0103358   0.0025489   0.0050835  -0.0004065  -0.0007853
    2  -0.0118600   0.0057318   0.0033254   0.0127693   0.0128001  -0.0080569
    3   0.0073313  -0.0038686  -0.0077652  -0.0035868  -0.0079762   0.0063939
           31          32          33          34          35          36
    1   0.0054586   0.0108590  -0.0356942  -0.0432356   0.0130018   0.0157677
    2   0.0023866   0.0201793   0.0400690  -0.0267879   0.0351599   0.0055038
    3   0.0078165  -0.0109678   0.0143461   0.0885022   0.0078024  -0.0328505
           37          38          39          40          41          42
    1  -0.0130118  -0.0051086   0.1139039   0.0457225  -0.0053111   0.0011244
    2  -0.0543912  -0.0952843   0.0855405   0.0417603   0.0056560  -0.0043003
    3  -0.0482367   0.0382931  -0.0043961  -0.0103702   0.0011413  -0.0038521
           43          44          45          46          47          48
    1  -0.0109196  -0.0025403  -0.0069795  -0.0010015   0.0010644  -0.0054103
    2   0.0068603  -0.0068669   0.0041967  -0.0025737  -0.0057350   0.0093784
    3   0.0021666  -0.0011622  -0.0076483   0.0070429   0.0078808   0.0002284
           49          50          51          52          53          54
    1   0.0018831   0.0008777  -0.0019506  -0.0032303  -0.1872022   0.1657146
    2  -0.0032340  -0.0031348   0.0074047   0.0072352  -0.0228025   0.0183197
    3  -0.0000129  -0.0017506   0.0058150   0.0043240   0.0324080  -0.0161280
           55          56
    1  -0.0474140   0.0518331
    2   0.0359536  -0.0082207
    3   0.0298574  -0.0075299
 Max gradient component =       2.942E-01
 RMS gradient           =       5.907E-02
 Gradient time:  CPU 35.69 s  wall 0.76 s
 Geometry Optimization Parameters
   NAtoms,    NIC,     NZ,  NCons,   NDum,   NFix, NCnnct, MaxDiis
       56     562       0       9       0       0       0       0


** CONSTRAINED OPTIMIZATION IN DELOCALIZED INTERNAL COORDINATES **
   Searching for a Minimum

   Optimization Cycle:   1

                       Coordinates (Angstroms)
     ATOM                X               Y               Z
      1  O        -0.1897946723   -1.7433864375   -1.2969646625
      2  C        -1.2242771722   -1.4728232204   -0.7039657257
      3  C        -1.9670462448   -0.1580309970   -0.7945654316
      4  C        -2.2170941625    0.5997121464    0.5196481744
      5  C        -1.5422999369    0.0472463355    1.7555756918
      6  O        -0.4681266680    0.8241274767    2.0842619463
      7  C        -0.1449028756    1.7919972327    1.0802618797
      8  C        -0.9538874845    1.5268777052   -0.1851947177
      9  O        -0.5500005795    0.2797014382   -0.7719573301
     10  C         0.5576319133   -0.2869817627   -0.2323725786
     11  C         1.5114849841    0.7269196917    0.3531554091
     12  C         2.9471725324    0.2219459598    0.5583292602
     13  C         3.3053138162   -1.0621535861   -0.1624454808
     14  O         3.9881124423   -1.1407568956   -1.1734696673
     15  O        -1.7312146105   -2.4548704377    0.1260777003
     16  O         2.8636647934   -2.2188470565    0.3997247431
     17  O         0.5850750255   -1.1439290696    0.7001081892
     18  C         3.0852035933   -3.4762813475   -0.1214804523
     19  C         2.0034458907    1.8178240757   -0.7759166091
     20  C         2.4435515281    3.1553207560   -0.1766639085
     21  C         3.6522357267    2.6861831729    0.5987896501
     22  C         3.8380804292    1.3080474793   -0.0555049864
     23  O         3.2346693481    1.4057431492   -1.2902813264
     24  H         1.6906600606    0.8017248087    1.4754462767
     25  H         3.3906877130    0.0006191221    1.5889807773
     26  H         1.3343622660    1.9497688905   -1.6449474233
     27  H         2.8019675754    3.7501388987   -1.0507527249
     28  H         1.7694306868    3.8532154284    0.3529112408
     29  H         4.4867026479    3.3961634421    0.4089003907
     30  H         3.4923543607    2.5573446011    1.6915738224
     31  H         4.9108050210    1.0100481903   -0.0753717974
     32  O        -1.8992293563   -0.8640308599    2.5103380260
     33  C        -1.1960974754   -3.7184587532    0.2708370339
     34  C        -3.2889740795    0.4349089834   -1.5679100815
     35  C        -4.6955548230   -0.1000560995   -1.1051570179
     36  C        -4.8923108487    0.6586757614    0.2083405001
     37  C        -3.5627893892    1.4489491103    0.2508590533
     38  O        -3.4271103856    1.7621543981   -1.1180940459
     39  H        -2.6121106030   -0.9882188565   -1.1291264457
     40  H        -2.8971747481   -0.2078754421    0.8036526170
     41  H        -0.1561235550   -3.6591367734    0.6549378803
     42  H        -3.1827503025    0.3560141496   -2.6779873499
     43  H        -5.4623481071    0.2647023527   -1.8248186517
     44  H        -4.7804690476   -1.2059978504   -1.0301785628
     45  H        -5.7325279886    1.3784639204    0.0863806985
     46  H        -5.0732905492    0.0271110139    1.1053030755
     47  H        -3.6119138141    2.3359164308    0.9175439567
     48  H        -1.2044039341   -4.2495302855   -0.7046476617
     49  H        -1.8096507583   -4.2916457813    0.9957673253
     50  H         2.6127226549   -4.2316666636    0.5392625127
     51  H         4.1755803108   -3.6812374683   -0.1782635509
     52  H         2.6331525077   -3.5545543786   -1.1333626976
     53  H        -0.4297095468    2.2768188037   -0.7880385112
     54  H        -1.3400596734    2.3652612838   -0.8342156880
     55  H         0.5884838721    2.5614386223    1.4005304439
     56  H        -0.7960552764    2.6389320317    1.4048534920
   Point Group: c1    Number of degrees of freedom:   162


   Energy is  -1508.938462486

              Constraints and their Current Values
                                        Value     Constraint
   Dihedral:        1   2   3   4     -123.158     -123.158
   Dihedral:        3   4   5   6      104.210      104.211
   Dihedral:        4   5   6   7       -9.474       -9.474
   Dihedral:        5   6   7   8       -9.474       -9.474
   Dihedral:        6   7   8   9      -66.316      -66.316
   Dihedral:        7   8   9  10       -9.473       -9.474
   Dihedral:        8   9  10  11      -28.422      -28.421
   Dihedral:        9  10  11  12     -161.052     -161.053
   Dihedral:       11  12  13  14      104.211      104.211

 Attempting to Generate Delocalized Internal Coordinates

   Using Lagrange Multiplier Algorithm


169 Hessian modes will be used to form the next step
  Hessian Eigenvalues:
    -0.977753   -0.977753   -0.977753   -0.977753   -0.977753   -0.977753
    -0.977753   -0.977753    0.045000    0.045000    0.045000    0.045000
     0.045025    0.045216    0.045939    0.046714    0.047165    0.047933
     0.048934    0.048988    0.051441    0.052003    0.053627    0.054068
     0.055959    0.056764    0.058677    0.058709    0.059362    0.061323
     0.064281    0.064934    0.065981    0.066031    0.067307    0.068321
     0.070128    0.071662    0.072042    0.072974    0.074207    0.076541
     0.077690    0.080026    0.081462    0.082717    0.083561    0.085023
     0.086136    0.087404    0.087851    0.088198    0.088623    0.089658
     0.091324    0.091356    0.091485    0.092795    0.094524    0.096768
     0.097224    0.098076    0.099362    0.101176    0.106841    0.109284
     0.109700    0.111533    0.112967    0.114447    0.114655    0.115220
     0.115862    0.115951    0.120424    0.121377    0.123823    0.126110
     0.134680    0.137506    0.145034    0.147531    0.151999    0.153889
     0.159881    0.160000    0.160000    0.160000    0.160000    0.160000
     0.160000    0.165074    0.169478    0.171944    0.189607    0.198345
     0.199122    0.213448    0.218275    0.225680    0.236518    0.244969
     0.247704    0.249890    0.250000    0.250000    0.250000    0.250000
     0.254495    0.256793    0.259846    0.260204    0.273940    0.274782
     0.279498    0.280892    0.292339    0.292570    0.292820    0.297163
     0.305243    0.308057    0.313313    0.317741    0.319175    0.319339
     0.322297    0.322767    0.322767    0.323720    0.323929    0.323989
     0.324069    0.324177    0.324915    0.325024    0.325250    0.325289
     0.325763    0.325825    0.326758    0.326800    0.330902    0.331709
     0.333208    0.344309    0.347695    0.366507    0.370760    0.384553
     0.411943    0.473811    0.487090    0.491314    0.492699    0.529900
     0.537343    0.773457    0.886648    0.941950    0.942741    1.022753
     1.022753    1.022753    1.022753    1.022753    1.022753    1.022753
     1.022753

 Minimum Search - Taking P-RFO Step
 Searching for Lamda that Maximizes Along the Constraint modes Only
 Value Taken    Lamda =   0.13962979


 ********************************************
 ** ERROR IN DETERMINING Lamda IN CONFormD **
 ********************************************



 New Cartesian Coordinates Obtained by Inverse Iteration

 Displacement from previous Coordinates is:  0.000000
 Adding empirical dispersion correction 
 ----------------------------------------------------------------
 Doing -D3(op) with
 s6 =   1.00000
 s8 =   0.78311
 a1 =   0.30000
 a2 =   4.25000
 n  =  10.00000
 -D3 energy without 3body term =     -0.0872184754 hartrees
 ----------------------------------------------------------------
             Standard Nuclear Orientation (Angstroms)
    I     Atom           X                Y                Z
 ----------------------------------------------------------------
    1      O      -0.1897946723    -1.7433864375    -1.2969646625
    2      C      -1.2242771722    -1.4728232204    -0.7039657257
    3      C      -1.9670462448    -0.1580309970    -0.7945654316
    4      C      -2.2170941625     0.5997121464     0.5196481744
    5      C      -1.5422999369     0.0472463355     1.7555756918
    6      O      -0.4681266680     0.8241274767     2.0842619463
    7      C      -0.1449028756     1.7919972327     1.0802618797
    8      C      -0.9538874845     1.5268777052    -0.1851947177
    9      O      -0.5500005795     0.2797014382    -0.7719573301
   10      C       0.5576319133    -0.2869817627    -0.2323725786
   11      C       1.5114849841     0.7269196917     0.3531554091
   12      C       2.9471725324     0.2219459598     0.5583292602
   13      C       3.3053138162    -1.0621535861    -0.1624454808
   14      O       3.9881124423    -1.1407568956    -1.1734696673
   15      O      -1.7312146105    -2.4548704377     0.1260777003
   16      O       2.8636647934    -2.2188470565     0.3997247431
   17      O       0.5850750255    -1.1439290696     0.7001081892
   18      C       3.0852035933    -3.4762813475    -0.1214804523
   19      C       2.0034458907     1.8178240757    -0.7759166091
   20      C       2.4435515281     3.1553207560    -0.1766639085
   21      C       3.6522357267     2.6861831729     0.5987896501
   22      C       3.8380804292     1.3080474793    -0.0555049864
   23      O       3.2346693481     1.4057431492    -1.2902813264
   24      H       1.6906600606     0.8017248087     1.4754462767
   25      H       3.3906877130     0.0006191221     1.5889807773
   26      H       1.3343622660     1.9497688905    -1.6449474233
   27      H       2.8019675754     3.7501388987    -1.0507527249
   28      H       1.7694306868     3.8532154284     0.3529112408
   29      H       4.4867026479     3.3961634421     0.4089003907
   30      H       3.4923543607     2.5573446011     1.6915738224
   31      H       4.9108050210     1.0100481903    -0.0753717974
   32      O      -1.8992293563    -0.8640308599     2.5103380260
   33      C      -1.1960974754    -3.7184587532     0.2708370339
   34      C      -3.2889740795     0.4349089834    -1.5679100815
   35      C      -4.6955548230    -0.1000560995    -1.1051570179
   36      C      -4.8923108487     0.6586757614     0.2083405001
   37      C      -3.5627893892     1.4489491103     0.2508590533
   38      O      -3.4271103856     1.7621543981    -1.1180940459
   39      H      -2.6121106030    -0.9882188565    -1.1291264457
   40      H      -2.8971747481    -0.2078754421     0.8036526170
   41      H      -0.1561235550    -3.6591367734     0.6549378803
   42      H      -3.1827503025     0.3560141496    -2.6779873499
   43      H      -5.4623481071     0.2647023527    -1.8248186517
   44      H      -4.7804690476    -1.2059978504    -1.0301785628
   45      H      -5.7325279886     1.3784639204     0.0863806985
   46      H      -5.0732905492     0.0271110139     1.1053030755
   47      H      -3.6119138141     2.3359164308     0.9175439567
   48      H      -1.2044039341    -4.2495302855    -0.7046476617
   49      H      -1.8096507583    -4.2916457813     0.9957673253
   50      H       2.6127226549    -4.2316666636     0.5392625127
   51      H       4.1755803108    -3.6812374683    -0.1782635509
   52      H       2.6331525077    -3.5545543786    -1.1333626976
   53      H      -0.4297095468     2.2768188037    -0.7880385112
   54      H      -1.3400596734     2.3652612838    -0.8342156880
   55      H       0.5884838721     2.5614386223     1.4005304439
   56      H      -0.7960552764     2.6389320317     1.4048534920
 ----------------------------------------------------------------
 Molecular Point Group                 C1    NOp =  1
 Largest Abelian Subgroup              C1    NOp =  1
 Nuclear Repulsion Energy =  3654.4927428313 hartrees
 There are      113 alpha and      113 beta electrons
 Applying Cartesian multipole field
    Component          Value
    ---------          -----
     (2,0,0)        1.00000E-12
     (0,2,0)        2.00000E-11
     (0,0,2)       -3.00000E-11
 Nucleus-field energy     =     0.0000000317 hartrees
 Requested basis set is STO-3G
 There are 86 shells and 176 basis functions
 A cutoff of  1.0D-12 yielded   2760 shell pairs
 There are     13149 function pairs
 Smallest overlap matrix eigenvalue = 1.97E-01
 Guess MOs from SCF MO coefficient file
 Reading MOs from coefficient file
 Reading MOs from coefficient file
 A restricted hybrid HF-DFT SCF calculation will be
 performed using Pulay DIIS extrapolation
 Exchange:     0.2000 Hartree-Fock + 0.0800 Slater + 0.7200 B88
 Correlation:  0.1900 VWN1RPA + 0.8100 LYP
 Using SG-1 standard quadrature grid
 Dispersion:   Grimme D3
 SCF converges when DIIS error is below 1.0E-08
 Geometry optimization detected.  Setting ReadMinima to 0
 Setting SaveMinima to 0
 using 48 threads for integral computing
 -------------------------------------------------------
 OpenMP Integral computing Module                
 Release: version 1.0, May 2013, Q-Chem Inc. Pittsburgh 
 -------------------------------------------------------
 -------------------------------------------------------
 OpenMP BLAS3 based DFT computing Module                
 Release: version 1.0, May 2013, Q-Chem Inc. Pittsburgh 
 -------------------------------------------------------
 ---------------------------------------
  Cycle       Energy         DIIS Error
 ---------------------------------------
    1   -1508.9384624859      3.91E-09
    2   -1508.9384624859      1.34E-08
    3   -1508.9384624858      2.08E-09 Convergence criterion met
 ---------------------------------------
 SCF time:  CPU 26.23 s  wall 0.55 s
 SCF   energy in the final basis set = -1508.93846249
 Total energy in the final basis set = -1508.93846249
 
 --------------------------------------------------------------
 
                    Orbital Energies (a.u.)
 --------------------------------------------------------------
 
 Alpha MOs
 -- Occupied --
-18.997 -18.934 -18.908 -18.905 -18.900 -18.892 -18.867 -18.847
-18.830 -18.818 -10.107 -10.093 -10.093 -10.084 -10.083 -10.080
-10.071 -10.070 -10.064 -10.063 -10.062 -10.054 -10.039 -10.029
-10.025 -10.024 -10.023 -10.020 -10.019 -10.013  -1.130  -1.039
 -1.037  -1.031  -1.019  -1.014  -0.952  -0.949  -0.925  -0.923
 -0.807  -0.803  -0.776  -0.750  -0.746  -0.730  -0.712  -0.678
 -0.667  -0.661  -0.644  -0.621  -0.598  -0.577  -0.554  -0.551
 -0.541  -0.536  -0.527  -0.499  -0.497  -0.486  -0.478  -0.473
 -0.464  -0.459  -0.449  -0.434  -0.425  -0.416  -0.407  -0.402
 -0.399  -0.394  -0.387  -0.376  -0.369  -0.360  -0.357  -0.355
 -0.341  -0.336  -0.334  -0.326  -0.322  -0.319  -0.316  -0.314
 -0.311  -0.310  -0.297  -0.294  -0.285  -0.280  -0.258  -0.252
 -0.241  -0.237  -0.227  -0.215  -0.202  -0.180  -0.169  -0.165
 -0.156  -0.150  -0.148  -0.141  -0.132  -0.117  -0.108  -0.099
  0.012
 -- Virtual --
  0.055   0.104   0.108   0.138   0.159   0.195   0.205   0.252
  0.256   0.260   0.266   0.306   0.321   0.323   0.324   0.335
  0.336   0.342   0.351   0.363   0.372   0.378   0.382   0.393
  0.399   0.400   0.401   0.413   0.415   0.418   0.426   0.434
  0.440   0.441   0.444   0.447   0.451   0.452   0.455   0.464
  0.466   0.468   0.474   0.475   0.479   0.488   0.503   0.509
  0.511   0.520   0.536   0.542   0.551   0.556   0.560   0.570
  0.583   0.587   0.592   0.663   0.682   0.707   0.710
 --------------------------------------------------------------
 
          Ground-State Mulliken Net Atomic Charges

     Atom                 Charge (a.u.)
  ----------------------------------------
      1 O                    -0.241384
      2 C                     0.180464
      3 C                     0.035306
      4 C                    -0.122519
      5 C                     0.239539
      6 O                    -0.188888
      7 C                    -0.048062
      8 C                    -0.053136
      9 O                    -0.142098
     10 C                     0.198304
     11 C                    -0.088160
     12 C                    -0.072927
     13 C                     0.237175
     14 O                    -0.241544
     15 O                    -0.215654
     16 O                    -0.207185
     17 O                    -0.214429
     18 C                    -0.096208
     19 C                     0.032976
     20 C                    -0.150502
     21 C                    -0.147530
     22 C                     0.044451
     23 O                    -0.206341
     24 H                     0.137227
     25 H                     0.070968
     26 H                     0.069876
     27 H                     0.075421
     28 H                     0.063143
     29 H                     0.076800
     30 H                     0.067176
     31 H                     0.085854
     32 O                    -0.201789
     33 C                    -0.098317
     34 C                     0.049803
     35 C                    -0.139543
     36 C                    -0.142599
     37 C                     0.044971
     38 O                    -0.219207
     39 H                     0.014056
     40 H                     0.081261
     41 H                     0.090413
     42 H                     0.081548
     43 H                     0.081778
     44 H                     0.082674
     45 H                     0.077946
     46 H                     0.082293
     47 H                     0.073902
     48 H                     0.072765
     49 H                     0.088079
     50 H                     0.090333
     51 H                     0.080336
     52 H                     0.088661
     53 H                     0.083929
     54 H                     0.180200
     55 H                     0.120089
     56 H                     0.058308
  ----------------------------------------
  Sum of atomic charges =     0.000000

 -----------------------------------------------------------------
                    Cartesian Multipole Moments
 -----------------------------------------------------------------
    Charge (ESU x 10^10)
                 0.0000
    Dipole Moment (Debye)
         X      -2.2907      Y       4.1932      Z      -0.3961
       Tot       4.7945
    Quadrupole Moments (Debye-Ang)
        XX    -158.0369     XY       0.3667     YY    -147.1791
        XZ      14.3399     YZ       3.7462     ZZ    -170.1929
    Octopole Moments (Debye-Ang^2)
       XXX     -36.5898    XXY      -3.9456    XYY      21.6823
       YYY     -49.2720    XXZ      29.3083    XYZ      -9.6264
       YYZ       4.9278    XZZ      -6.0658    YZZ       1.7234
       ZZZ     -15.4397
    Hexadecapole Moments (Debye-Ang^3)
      XXXX   -7009.9075   XXXY     -29.2152   XXYY   -1697.4825
      XYYY     -54.7336   YYYY   -3020.4712   XXXZ     136.7002
      XXYZ      18.9976   XYYZ     -25.0994   YYYZ     -21.4737
      XXZZ   -1430.3957   XYZZ     -11.6838   YYZZ    -730.0596
      XZZZ      27.5686   YZZZ      -1.6427   ZZZZ   -1120.9532
 -----------------------------------------------------------------
 Calculating analytic gradient of the SCF energy
 Gradient of SCF Energy
            1           2           3           4           5           6
    1  -0.0770270   0.0303804   0.1500505   0.1877974  -0.0306714  -0.0689991
    2   0.0356061   0.1608073   0.1125768   0.1485712  -0.0335819  -0.0004955
    3   0.0988055  -0.0383019   0.0040058  -0.0420906  -0.0212906  -0.0598057
            7           8           9          10          11          12
    1   0.1110439  -0.1369543  -0.1182444  -0.0978283  -0.1193853  -0.0869905
    2  -0.1287638  -0.1027653  -0.2941688   0.0272167  -0.0262030   0.0668925
    3  -0.0806082   0.0533982   0.0861964  -0.0825129   0.0397215  -0.0380049
           13          14          15          16          17          18
    1  -0.0135127  -0.0402798   0.0980007   0.0606662   0.0134423  -0.0199713
    2   0.0196130  -0.0059235  -0.0526930  -0.0303171   0.0572204   0.0366790
    3   0.0291294   0.0614960  -0.0372059  -0.1038017  -0.0437504   0.0394692
           19          20          21          22          23          24
    1   0.0801696   0.0162764  -0.0223371  -0.0784923  -0.0145897   0.0691529
    2  -0.0327081  -0.0556049  -0.0215542   0.0186967   0.0178755  -0.0239586
    3   0.0023817   0.0130122  -0.0380703  -0.0426373   0.0917299   0.0154865
           25          26          27          28          29          30
    1   0.0333252   0.0103358   0.0025489   0.0050835  -0.0004065  -0.0007853
    2  -0.0118601   0.0057318   0.0033254   0.0127693   0.0128001  -0.0080569
    3   0.0073314  -0.0038686  -0.0077652  -0.0035868  -0.0079762   0.0063939
           31          32          33          34          35          36
    1   0.0054586   0.0108590  -0.0356942  -0.0432356   0.0130018   0.0157677
    2   0.0023866   0.0201793   0.0400690  -0.0267879   0.0351599   0.0055038
    3   0.0078165  -0.0109678   0.0143460   0.0885021   0.0078023  -0.0328505
           37          38          39          40          41          42
    1  -0.0130118  -0.0051086   0.1139039   0.0457225  -0.0053111   0.0011244
    2  -0.0543911  -0.0952843   0.0855405   0.0417603   0.0056560  -0.0043003
    3  -0.0482366   0.0382931  -0.0043961  -0.0103702   0.0011413  -0.0038521
           43          44          45          46          47          48
    1  -0.0109196  -0.0025403  -0.0069795  -0.0010015   0.0010644  -0.0054103
    2   0.0068603  -0.0068668   0.0041967  -0.0025737  -0.0057350   0.0093784
    3   0.0021666  -0.0011622  -0.0076483   0.0070429   0.0078808   0.0002284
           49          50          51          52          53          54
    1   0.0018831   0.0008777  -0.0019506  -0.0032303  -0.1872022   0.1657146
    2  -0.0032340  -0.0031348   0.0074047   0.0072352  -0.0228025   0.0183197
    3  -0.0000129  -0.0017506   0.0058150   0.0043240   0.0324080  -0.0161280
           55          56
    1  -0.0474140   0.0518331
    2   0.0359536  -0.0082207
    3   0.0298574  -0.0075299
 Max gradient component =       2.942E-01
 RMS gradient           =       5.907E-02
 Gradient time:  CPU 37.64 s  wall 0.79 s
 Geometry Optimization Parameters
   NAtoms,    NIC,     NZ,  NCons,   NDum,   NFix, NCnnct, MaxDiis
       56     562       0       9       0       0       0       0

 Cartesian Hessian Update
 Hessian Updated using BFGS Update
**WARNING** Hereditary positive definiteness endangered
**WARNING** Small Scalar Product
 Hessian Update Skipped this cycle


** CONSTRAINED OPTIMIZATION IN DELOCALIZED INTERNAL COORDINATES **
   Searching for a Minimum

   Optimization Cycle:   2

                       Coordinates (Angstroms)
     ATOM                X               Y               Z
      1  O        -0.1897946723   -1.7433864375   -1.2969646625
      2  C        -1.2242771722   -1.4728232204   -0.7039657257
      3  C        -1.9670462448   -0.1580309970   -0.7945654316
      4  C        -2.2170941625    0.5997121464    0.5196481744
      5  C        -1.5422999369    0.0472463355    1.7555756918
      6  O        -0.4681266680    0.8241274767    2.0842619463
      7  C        -0.1449028756    1.7919972327    1.0802618797
      8  C        -0.9538874845    1.5268777052   -0.1851947177
      9  O        -0.5500005795    0.2797014382   -0.7719573301
     10  C         0.5576319133   -0.2869817627   -0.2323725786
     11  C         1.5114849841    0.7269196917    0.3531554091
     12  C         2.9471725324    0.2219459598    0.5583292602
     13  C         3.3053138162   -1.0621535861   -0.1624454808
     14  O         3.9881124423   -1.1407568956   -1.1734696673
     15  O        -1.7312146105   -2.4548704377    0.1260777003
     16  O         2.8636647934   -2.2188470565    0.3997247431
     17  O         0.5850750255   -1.1439290696    0.7001081892
     18  C         3.0852035933   -3.4762813475   -0.1214804523
     19  C         2.0034458907    1.8178240757   -0.7759166091
     20  C         2.4435515281    3.1553207560   -0.1766639085
     21  C         3.6522357267    2.6861831729    0.5987896501
     22  C         3.8380804292    1.3080474793   -0.0555049864
     23  O         3.2346693481    1.4057431492   -1.2902813264
     24  H         1.6906600606    0.8017248087    1.4754462767
     25  H         3.3906877130    0.0006191221    1.5889807773
     26  H         1.3343622660    1.9497688905   -1.6449474233
     27  H         2.8019675754    3.7501388987   -1.0507527249
     28  H         1.7694306868    3.8532154284    0.3529112408
     29  H         4.4867026479    3.3961634421    0.4089003907
     30  H         3.4923543607    2.5573446011    1.6915738224
     31  H         4.9108050210    1.0100481903   -0.0753717974
     32  O        -1.8992293563   -0.8640308599    2.5103380260
     33  C        -1.1960974754   -3.7184587532    0.2708370339
     34  C        -3.2889740795    0.4349089834   -1.5679100815
     35  C        -4.6955548230   -0.1000560995   -1.1051570179
     36  C        -4.8923108487    0.6586757614    0.2083405001
     37  C        -3.5627893892    1.4489491103    0.2508590533
     38  O        -3.4271103856    1.7621543981   -1.1180940459
     39  H        -2.6121106030   -0.9882188565   -1.1291264457
     40  H        -2.8971747481   -0.2078754421    0.8036526170
     41  H        -0.1561235550   -3.6591367734    0.6549378803
     42  H        -3.1827503025    0.3560141496   -2.6779873499
     43  H        -5.4623481071    0.2647023527   -1.8248186517
     44  H        -4.7804690476   -1.2059978504   -1.0301785628
     45  H        -5.7325279886    1.3784639204    0.0863806985
     46  H        -5.0732905492    0.0271110139    1.1053030755
     47  H        -3.6119138141    2.3359164308    0.9175439567
     48  H        -1.2044039341   -4.2495302855   -0.7046476617
     49  H        -1.8096507583   -4.2916457813    0.9957673253
     50  H         2.6127226549   -4.2316666636    0.5392625127
     51  H         4.1755803108   -3.6812374683   -0.1782635509
     52  H         2.6331525077   -3.5545543786   -1.1333626976
     53  H        -0.4297095468    2.2768188037   -0.7880385112
     54  H        -1.3400596734    2.3652612838   -0.8342156880
     55  H         0.5884838721    2.5614386223    1.4005304439
     56  H        -0.7960552764    2.6389320317    1.4048534920
   Point Group: c1    Number of degrees of freedom:   162


   Energy is  -1508.938462486

              Constraints and their Current Values
                                        Value     Constraint
   Dihedral:        1   2   3   4     -123.158     -123.158
   Dihedral:        3   4   5   6      104.210      104.211
   Dihedral:        4   5   6   7       -9.474       -9.474
   Dihedral:        5   6   7   8       -9.474       -9.474
   Dihedral:        6   7   8   9      -66.316      -66.316
   Dihedral:        7   8   9  10       -9.473       -9.474
   Dihedral:        8   9  10  11      -28.422      -28.421
   Dihedral:        9  10  11  12     -161.052     -161.053
   Dihedral:       11  12  13  14      104.211      104.211
 Hessian Updated using BFGS Update
**WARNING** Hereditary positive definiteness endangered
**WARNING** Small Scalar Product
 Hessian Update Skipped this cycle

   Using Lagrange Multiplier Algorithm


169 Hessian modes will be used to form the next step
  Hessian Eigenvalues:
    -0.977753   -0.977753   -0.977753   -0.977753   -0.977753   -0.977753
    -0.977753   -0.977753    0.045000    0.045000    0.045000    0.045000
     0.045025    0.045216    0.045939    0.046714    0.047165    0.047933
     0.048934    0.048988    0.051441    0.052003    0.053627    0.054068
     0.055959    0.056764    0.058677    0.058709    0.059362    0.061323
     0.064281    0.064934    0.065981    0.066031    0.067307    0.068321
     0.070128    0.071662    0.072042    0.072974    0.074207    0.076541
     0.077690    0.080026    0.081462    0.082717    0.083561    0.085023
     0.086136    0.087404    0.087851    0.088198    0.088623    0.089658
     0.091324    0.091356    0.091485    0.092795    0.094524    0.096768
     0.097224    0.098076    0.099362    0.101176    0.106841    0.109284
     0.109700    0.111533    0.112967    0.114447    0.114655    0.115220
     0.115862    0.115951    0.120424    0.121377    0.123823    0.126110
     0.134680    0.137506    0.145034    0.147531    0.151999    0.153889
     0.159881    0.160000    0.160000    0.160000    0.160000    0.160000
     0.160000    0.165074    0.169478    0.171944    0.189607    0.198345
     0.199122    0.213448    0.218275    0.225680    0.236518    0.244969
     0.247704    0.249890    0.250000    0.250000    0.250000    0.250000
     0.254495    0.256793    0.259846    0.260204    0.273940    0.274782
     0.279498    0.280892    0.292339    0.292570    0.292820    0.297163
     0.305243    0.308057    0.313313    0.317741    0.319175    0.319339
     0.322297    0.322767    0.322767    0.323720    0.323929    0.323989
     0.324069    0.324177    0.324915    0.325024    0.325250    0.325289
     0.325763    0.325825    0.326758    0.326800    0.330902    0.331709
     0.333208    0.344309    0.347695    0.366507    0.370760    0.384553
     0.411943    0.473811    0.487090    0.491314    0.492699    0.529900
     0.537343    0.773457    0.886648    0.941950    0.942741    1.022753
     1.022753    1.022753    1.022753    1.022753    1.022753    1.022753
     1.022753

 Minimum Search - Taking P-RFO Step
 Searching for Lamda that Maximizes Along the Constraint modes Only
 Value Taken    Lamda =   0.13962982


 ********************************************
 ** ERROR IN DETERMINING Lamda IN CONFormD **
 ********************************************



 New Cartesian Coordinates Obtained by Inverse Iteration

 Displacement from previous Coordinates is:  0.000000
 Adding empirical dispersion correction 
 ----------------------------------------------------------------
 Doing -D3(op) with
 s6 =   1.00000
 s8 =   0.78311
 a1 =   0.30000
 a2 =   4.25000
 n  =  10.00000
 -D3 energy without 3body term =     -0.0872184754 hartrees
 ----------------------------------------------------------------
             Standard Nuclear Orientation (Angstroms)
    I     Atom           X                Y                Z
 ----------------------------------------------------------------
    1      O      -0.1897946723    -1.7433864375    -1.2969646625
    2      C      -1.2242771722    -1.4728232204    -0.7039657257
    3      C      -1.9670462448    -0.1580309970    -0.7945654316
    4      C      -2.2170941625     0.5997121464     0.5196481744
    5      C      -1.5422999369     0.0472463355     1.7555756918
    6      O      -0.4681266680     0.8241274767     2.0842619463
    7      C      -0.1449028756     1.7919972327     1.0802618797
    8      C      -0.9538874845     1.5268777052    -0.1851947177
    9      O      -0.5500005795     0.2797014382    -0.7719573301
   10      C       0.5576319133    -0.2869817627    -0.2323725786
   11      C       1.5114849841     0.7269196917     0.3531554091
   12      C       2.9471725324     0.2219459598     0.5583292602
   13      C       3.3053138162    -1.0621535861    -0.1624454808
   14      O       3.9881124423    -1.1407568956    -1.1734696673
   15      O      -1.7312146105    -2.4548704377     0.1260777003
   16      O       2.8636647934    -2.2188470565     0.3997247431
   17      O       0.5850750255    -1.1439290696     0.7001081892
   18      C       3.0852035933    -3.4762813475    -0.1214804523
   19      C       2.0034458907     1.8178240757    -0.7759166091
   20      C       2.4435515281     3.1553207560    -0.1766639085
   21      C       3.6522357267     2.6861831729     0.5987896501
   22      C       3.8380804292     1.3080474793    -0.0555049864
   23      O       3.2346693481     1.4057431492    -1.2902813264
   24      H       1.6906600606     0.8017248087     1.4754462767
   25      H       3.3906877130     0.0006191221     1.5889807773
   26      H       1.3343622660     1.9497688905    -1.6449474233
   27      H       2.8019675754     3.7501388987    -1.0507527249
   28      H       1.7694306868     3.8532154284     0.3529112408
   29      H       4.4867026479     3.3961634421     0.4089003907
   30      H       3.4923543607     2.5573446011     1.6915738224
   31      H       4.9108050210     1.0100481903    -0.0753717974
   32      O      -1.8992293563    -0.8640308599     2.5103380260
   33      C      -1.1960974754    -3.7184587532     0.2708370339
   34      C      -3.2889740795     0.4349089834    -1.5679100815
   35      C      -4.6955548230    -0.1000560995    -1.1051570179
   36      C      -4.8923108487     0.6586757614     0.2083405001
   37      C      -3.5627893892     1.4489491103     0.2508590533
   38      O      -3.4271103856     1.7621543981    -1.1180940459
   39      H      -2.6121106030    -0.9882188565    -1.1291264457
   40      H      -2.8971747481    -0.2078754421     0.8036526170
   41      H      -0.1561235550    -3.6591367734     0.6549378803
   42      H      -3.1827503025     0.3560141496    -2.6779873499
   43      H      -5.4623481071     0.2647023527    -1.8248186517
   44      H      -4.7804690476    -1.2059978504    -1.0301785628
   45      H      -5.7325279886     1.3784639204     0.0863806985
   46      H      -5.0732905492     0.0271110139     1.1053030755
   47      H      -3.6119138141     2.3359164308     0.9175439567
   48      H      -1.2044039341    -4.2495302855    -0.7046476617
   49      H      -1.8096507583    -4.2916457813     0.9957673253
   50      H       2.6127226549    -4.2316666636     0.5392625127
   51      H       4.1755803108    -3.6812374683    -0.1782635509
   52      H       2.6331525077    -3.5545543786    -1.1333626976
   53      H      -0.4297095468     2.2768188037    -0.7880385112
   54      H      -1.3400596734     2.3652612838    -0.8342156880
   55      H       0.5884838721     2.5614386223     1.4005304439
   56      H      -0.7960552764     2.6389320317     1.4048534920
 ----------------------------------------------------------------
 Molecular Point Group                 C1    NOp =  1
 Largest Abelian Subgroup              C1    NOp =  1
 Nuclear Repulsion Energy =  3654.4927428313 hartrees
 There are      113 alpha and      113 beta electrons
 Applying Cartesian multipole field
    Component          Value
    ---------          -----
     (2,0,0)        1.00000E-12
     (0,2,0)        2.00000E-11
     (0,0,2)       -3.00000E-11
 Nucleus-field energy     =     0.0000000317 hartrees
 Requested basis set is STO-3G
 There are 86 shells and 176 basis functions
 A cutoff of  1.0D-12 yielded   2760 shell pairs
 There are     13149 function pairs
 Smallest overlap matrix eigenvalue = 1.97E-01
 Guess MOs from SCF MO coefficient file
 Reading MOs from coefficient file
 Reading MOs from coefficient file
 A restricted hybrid HF-DFT SCF calculation will be
 performed using Pulay DIIS extrapolation
 Exchange:     0.2000 Hartree-Fock + 0.0800 Slater + 0.7200 B88
 Correlation:  0.1900 VWN1RPA + 0.8100 LYP
 Using SG-1 standard quadrature grid
 Dispersion:   Grimme D3
 SCF converges when DIIS error is below 1.0E-08
 Geometry optimization detected.  Setting ReadMinima to 0
 Setting SaveMinima to 0
 using 48 threads for integral computing
 -------------------------------------------------------
 OpenMP Integral computing Module                
 Release: version 1.0, May 2013, Q-Chem Inc. Pittsburgh 
 -------------------------------------------------------
 -------------------------------------------------------
 OpenMP BLAS3 based DFT computing Module                
 Release: version 1.0, May 2013, Q-Chem Inc. Pittsburgh 
 -------------------------------------------------------
 ---------------------------------------
  Cycle       Energy         DIIS Error
 ---------------------------------------
    1   -1508.9384624859      8.62E-10
    2   -1508.9384624859      2.89E-09 Convergence criterion met
 ---------------------------------------
 SCF time:  CPU 19.22 s  wall 0.40 s
 SCF   energy in the final basis set = -1508.93846249
 Total energy in the final basis set = -1508.93846249
 
 --------------------------------------------------------------
 
                    Orbital Energies (a.u.)
 --------------------------------------------------------------
 
 Alpha MOs
 -- Occupied --
-18.997 -18.934 -18.908 -18.905 -18.900 -18.892 -18.867 -18.847
-18.830 -18.818 -10.107 -10.093 -10.093 -10.084 -10.083 -10.080
-10.071 -10.070 -10.064 -10.063 -10.062 -10.054 -10.039 -10.029
-10.025 -10.024 -10.023 -10.020 -10.019 -10.013  -1.130  -1.039
 -1.037  -1.031  -1.019  -1.014  -0.952  -0.949  -0.925  -0.923
 -0.807  -0.803  -0.776  -0.750  -0.746  -0.730  -0.712  -0.678
 -0.667  -0.661  -0.644  -0.621  -0.598  -0.577  -0.554  -0.551
 -0.541  -0.536  -0.527  -0.499  -0.497  -0.486  -0.478  -0.473
 -0.464  -0.459  -0.449  -0.434  -0.425  -0.416  -0.407  -0.402
 -0.399  -0.394  -0.387  -0.376  -0.369  -0.360  -0.357  -0.355
 -0.341  -0.336  -0.334  -0.326  -0.322  -0.319  -0.316  -0.314
 -0.311  -0.310  -0.297  -0.294  -0.285  -0.280  -0.258  -0.252
 -0.241  -0.237  -0.227  -0.215  -0.202  -0.180  -0.169  -0.165
 -0.156  -0.150  -0.148  -0.141  -0.132  -0.117  -0.108  -0.099
  0.012
 -- Virtual --
  0.055   0.104   0.108   0.138   0.159   0.195   0.205   0.252
  0.256   0.260   0.266   0.306   0.321   0.323   0.324   0.335
  0.336   0.342   0.351   0.363   0.372   0.378   0.382   0.393
  0.399   0.400   0.401   0.413   0.415   0.418   0.426   0.434
  0.440   0.441   0.444   0.447   0.451   0.452   0.455   0.464
  0.466   0.468   0.474   0.475   0.479   0.488   0.503   0.509
  0.511   0.520   0.536   0.542   0.551   0.556   0.560   0.570
  0.583   0.587   0.592   0.663   0.682   0.707   0.710
 --------------------------------------------------------------
 
          Ground-State Mulliken Net Atomic Charges

     Atom                 Charge (a.u.)
  ----------------------------------------
      1 O                    -0.241384
      2 C                     0.180464
      3 C                     0.035306
      4 C                    -0.122519
      5 C                     0.239539
      6 O                    -0.188888
      7 C                    -0.048062
      8 C                    -0.053136
      9 O                    -0.142098
     10 C                     0.198304
     11 C                    -0.088160
     12 C                    -0.072927
     13 C                     0.237175
     14 O                    -0.241544
     15 O                    -0.215654
     16 O                    -0.207185
     17 O                    -0.214429
     18 C                    -0.096208
     19 C                     0.032976
     20 C                    -0.150502
     21 C                    -0.147530
     22 C                     0.044451
     23 O                    -0.206341
     24 H                     0.137227
     25 H                     0.070968
     26 H                     0.069876
     27 H                     0.075421
     28 H                     0.063143
     29 H                     0.076800
     30 H                     0.067176
     31 H                     0.085854
     32 O                    -0.201789
     33 C                    -0.098317
     34 C                     0.049803
     35 C                    -0.139543
     36 C                    -0.142599
     37 C                     0.044971
     38 O                    -0.219207
     39 H                     0.014056
     40 H                     0.081261
     41 H                     0.090413
     42 H                     0.081548
     43 H                     0.081778
     44 H                     0.082674
     45 H                     0.077946
     46 H                     0.082293
     47 H                     0.073902
     48 H                     0.072765
     49 H                     0.088079
     50 H                     0.090333
     51 H                     0.080336
     52 H                     0.088661
     53 H                     0.083929
     54 H                     0.180200
     55 H                     0.120089
     56 H                     0.058308
  ----------------------------------------
  Sum of atomic charges =     0.000000

 -----------------------------------------------------------------
                    Cartesian Multipole Moments
 -----------------------------------------------------------------
    Charge (ESU x 10^10)
                 0.0000
    Dipole Moment (Debye)
         X      -2.2907      Y       4.1932      Z      -0.3961
       Tot       4.7945
    Quadrupole Moments (Debye-Ang)
        XX    -158.0369     XY       0.3667     YY    -147.1791
        XZ      14.3399     YZ       3.7462     ZZ    -170.1929
    Octopole Moments (Debye-Ang^2)
       XXX     -36.5898    XXY      -3.9456    XYY      21.6823
       YYY     -49.2720    XXZ      29.3083    XYZ      -9.6264
       YYZ       4.9278    XZZ      -6.0658    YZZ       1.7234
       ZZZ     -15.4397
    Hexadecapole Moments (Debye-Ang^3)
      XXXX   -7009.9075   XXXY     -29.2152   XXYY   -1697.4825
      XYYY     -54.7336   YYYY   -3020.4711   XXXZ     136.7002
      XXYZ      18.9976   XYYZ     -25.0994   YYYZ     -21.4737
      XXZZ   -1430.3957   XYZZ     -11.6838   YYZZ    -730.0596
      XZZZ      27.5686   YZZZ      -1.6427   ZZZZ   -1120.9532
 -----------------------------------------------------------------
 Calculating analytic gradient of the SCF energy
 Gradient of SCF Energy
            1           2           3           4           5           6
    1  -0.0770270   0.0303804   0.1500505   0.1877974  -0.0306714  -0.0689991
    2   0.0356061   0.1608073   0.1125768   0.1485712  -0.0335819  -0.0004955
    3   0.0988055  -0.0383019   0.0040058  -0.0420906  -0.0212906  -0.0598057
            7           8           9          10          11          12
    1   0.1110439  -0.1369543  -0.1182444  -0.0978283  -0.1193853  -0.0869905
    2  -0.1287638  -0.1027653  -0.2941688   0.0272167  -0.0262030   0.0668925
    3  -0.0806082   0.0533982   0.0861964  -0.0825129   0.0397215  -0.0380049
           13          14          15          16          17          18
    1  -0.0135127  -0.0402798   0.0980007   0.0606662   0.0134423  -0.0199713
    2   0.0196130  -0.0059235  -0.0526930  -0.0303171   0.0572204   0.0366790
    3   0.0291294   0.0614960  -0.0372059  -0.1038017  -0.0437504   0.0394692
           19          20          21          22          23          24
    1   0.0801696   0.0162764  -0.0223371  -0.0784923  -0.0145897   0.0691529
    2  -0.0327081  -0.0556049  -0.0215542   0.0186967   0.0178755  -0.0239586
    3   0.0023817   0.0130122  -0.0380703  -0.0426373   0.0917299   0.0154865
           25          26          27          28          29          30
    1   0.0333252   0.0103358   0.0025489   0.0050835  -0.0004065  -0.0007853
    2  -0.0118601   0.0057318   0.0033254   0.0127693   0.0128001  -0.0080569
    3   0.0073314  -0.0038686  -0.0077652  -0.0035868  -0.0079762   0.0063939
           31          32          33          34          35          36
    1   0.0054586   0.0108590  -0.0356942  -0.0432356   0.0130018   0.0157677
    2   0.0023866   0.0201793   0.0400690  -0.0267879   0.0351599   0.0055038
    3   0.0078165  -0.0109678   0.0143460   0.0885021   0.0078023  -0.0328505
           37          38          39          40          41          42
    1  -0.0130118  -0.0051086   0.1139039   0.0457225  -0.0053111   0.0011244
    2  -0.0543911  -0.0952843   0.0855406   0.0417603   0.0056560  -0.0043003
    3  -0.0482366   0.0382931  -0.0043961  -0.0103702   0.0011413  -0.0038521
           43          44          45          46          47          48
    1  -0.0109196  -0.0025403  -0.0069795  -0.0010015   0.0010644  -0.0054103
    2   0.0068603  -0.0068668   0.0041967  -0.0025737  -0.0057350   0.0093784
    3   0.0021666  -0.0011622  -0.0076483   0.0070429   0.0078808   0.0002284
           49          50          51          52          53          54
    1   0.0018831   0.0008777  -0.0019506  -0.0032303  -0.1872022   0.1657146
    2  -0.0032340  -0.0031348   0.0074047   0.0072352  -0.0228025   0.0183197
    3  -0.0000129  -0.0017506   0.0058150   0.0043240   0.0324080  -0.0161280
           55          56
    1  -0.0474140   0.0518331
    2   0.0359536  -0.0082207
    3   0.0298574  -0.0075299
 Max gradient component =       2.942E-01
 RMS gradient           =       5.907E-02
 Gradient time:  CPU 36.56 s  wall 0.77 s
 Geometry Optimization Parameters
   NAtoms,    NIC,     NZ,  NCons,   NDum,   NFix, NCnnct, MaxDiis
       56     562       0       9       0       0       0       0

 Cartesian Hessian Update
 Hessian Updated using BFGS Update
**WARNING** Hereditary positive definiteness endangered
**WARNING** Small Scalar Product
 Hessian Update Skipped this cycle


** CONSTRAINED OPTIMIZATION IN DELOCALIZED INTERNAL COORDINATES **
   Searching for a Minimum

   Optimization Cycle:   3

                       Coordinates (Angstroms)
     ATOM                X               Y               Z
      1  O        -0.1897946723   -1.7433864375   -1.2969646625
      2  C        -1.2242771722   -1.4728232204   -0.7039657257
      3  C        -1.9670462448   -0.1580309970   -0.7945654316
      4  C        -2.2170941625    0.5997121464    0.5196481744
      5  C        -1.5422999369    0.0472463355    1.7555756918
      6  O        -0.4681266680    0.8241274767    2.0842619463
      7  C        -0.1449028756    1.7919972327    1.0802618797
      8  C        -0.9538874845    1.5268777052   -0.1851947177
      9  O        -0.5500005795    0.2797014382   -0.7719573301
     10  C         0.5576319133   -0.2869817627   -0.2323725786
     11  C         1.5114849841    0.7269196917    0.3531554091
     12  C         2.9471725324    0.2219459598    0.5583292602
     13  C         3.3053138162   -1.0621535861   -0.1624454808
     14  O         3.9881124423   -1.1407568956   -1.1734696673
     15  O        -1.7312146105   -2.4548704377    0.1260777003
     16  O         2.8636647934   -2.2188470565    0.3997247431
     17  O         0.5850750255   -1.1439290696    0.7001081892
     18  C         3.0852035933   -3.4762813475   -0.1214804523
     19  C         2.0034458907    1.8178240757   -0.7759166091
     20  C         2.4435515281    3.1553207560   -0.1766639085
     21  C         3.6522357267    2.6861831729    0.5987896501
     22  C         3.8380804292    1.3080474793   -0.0555049864
     23  O         3.2346693481    1.4057431492   -1.2902813264
     24  H         1.6906600606    0.8017248087    1.4754462767
     25  H         3.3906877130    0.0006191221    1.5889807773
     26  H         1.3343622660    1.9497688905   -1.6449474233
     27  H         2.8019675754    3.7501388987   -1.0507527249
     28  H         1.7694306868    3.8532154284    0.3529112408
     29  H         4.4867026479    3.3961634421    0.4089003907
     30  H         3.4923543607    2.5573446011    1.6915738224
     31  H         4.9108050210    1.0100481903   -0.0753717974
     32  O        -1.8992293563   -0.8640308599    2.5103380260
     33  C        -1.1960974754   -3.7184587532    0.2708370339
     34  C        -3.2889740795    0.4349089834   -1.5679100815
     35  C        -4.6955548230   -0.1000560995   -1.1051570179
     36  C        -4.8923108487    0.6586757614    0.2083405001
     37  C        -3.5627893892    1.4489491103    0.2508590533
     38  O        -3.4271103856    1.7621543981   -1.1180940459
     39  H        -2.6121106030   -0.9882188565   -1.1291264457
     40  H        -2.8971747481   -0.2078754421    0.8036526170
     41  H        -0.1561235550   -3.6591367734    0.6549378803
     42  H        -3.1827503025    0.3560141496   -2.6779873499
     43  H        -5.4623481071    0.2647023527   -1.8248186517
     44  H        -4.7804690476   -1.2059978504   -1.0301785628
     45  H        -5.7325279886    1.3784639204    0.0863806985
     46  H        -5.0732905492    0.0271110139    1.1053030755
     47  H        -3.6119138141    2.3359164308    0.9175439567
     48  H        -1.2044039341   -4.2495302855   -0.7046476617
     49  H        -1.8096507583   -4.2916457813    0.9957673253
     50  H         2.6127226549   -4.2316666636    0.5392625127
     51  H         4.1755803108   -3.6812374683   -0.1782635509
     52  H         2.6331525077   -3.5545543786   -1.1333626976
     53  H        -0.4297095468    2.2768188037   -0.7880385112
     54  H        -1.3400596734    2.3652612838   -0.8342156880
     55  H         0.5884838721    2.5614386223    1.4005304439
     56  H        -0.7960552764    2.6389320317    1.4048534920
   Point Group: c1    Number of degrees of freedom:   162


   Energy is  -1508.938462486

              Constraints and their Current Values
                                        Value     Constraint
   Dihedral:        1   2   3   4     -123.158     -123.158
   Dihedral:        3   4   5   6      104.210      104.211
   Dihedral:        4   5   6   7       -9.474       -9.474
   Dihedral:        5   6   7   8       -9.474       -9.474
   Dihedral:        6   7   8   9      -66.316      -66.316
   Dihedral:        7   8   9  10       -9.473       -9.474
   Dihedral:        8   9  10  11      -28.422      -28.421
   Dihedral:        9  10  11  12     -161.052     -161.053
   Dihedral:       11  12  13  14      104.211      104.211
 Hessian Updated using BFGS Update
**WARNING** Hereditary positive definiteness endangered
**WARNING** Small Scalar Product
 Hessian Update Skipped this cycle

   Using Lagrange Multiplier Algorithm


169 Hessian modes will be used to form the next step
  Hessian Eigenvalues:
    -0.977753   -0.977753   -0.977753   -0.977753   -0.977753   -0.977753
    -0.977753   -0.977753    0.045000    0.045000    0.045000    0.045000
     0.045025    0.045216    0.045939    0.046714    0.047165    0.047933
     0.048934    0.048988    0.051441    0.052003    0.053627    0.054068
     0.055959    0.056764    0.058677    0.058709    0.059362    0.061323
     0.064281    0.064934    0.065981    0.066031    0.067307    0.068321
     0.070128    0.071662    0.072042    0.072974    0.074207    0.076541
     0.077690    0.080026    0.081462    0.082717    0.083561    0.085023
     0.086136    0.087404    0.087851    0.088198    0.088623    0.089658
     0.091324    0.091356    0.091485    0.092795    0.094524    0.096768
     0.097224    0.098076    0.099362    0.101176    0.106841    0.109284
     0.109700    0.111533    0.112967    0.114447    0.114655    0.115220
     0.115862    0.115951    0.120424    0.121377    0.123823    0.126110
     0.134680    0.137506    0.145034    0.147531    0.151999    0.153889
     0.159881    0.160000    0.160000    0.160000    0.160000    0.160000
     0.160000    0.165074    0.169478    0.171944    0.189607    0.198345
     0.199122    0.213448    0.218275    0.225680    0.236518    0.244969
     0.247704    0.249890    0.250000    0.250000    0.250000    0.250000
     0.254495    0.256793    0.259846    0.260204    0.273940    0.274782
     0.279498    0.280892    0.292339    0.292570    0.292820    0.297163
     0.305243    0.308057    0.313313    0.317741    0.319175    0.319339
     0.322297    0.322767    0.322767    0.323720    0.323929    0.323989
     0.324069    0.324177    0.324915    0.325024    0.325250    0.325289
     0.325763    0.325825    0.326758    0.326800    0.330902    0.331709
     0.333208    0.344309    0.347695    0.366507    0.370760    0.384553
     0.411943    0.473811    0.487090    0.491314    0.492699    0.529900
     0.537343    0.773457    0.886648    0.941950    0.942741    1.022753
     1.022753    1.022753    1.022753    1.022753    1.022753    1.022753
     1.022753

 Minimum Search - Taking P-RFO Step
 Searching for Lamda that Maximizes Along the Constraint modes Only
 Value Taken    Lamda =   0.13962982


 ********************************************
 ** ERROR IN DETERMINING Lamda IN CONFormD **
 ********************************************



 New Cartesian Coordinates Obtained by Inverse Iteration

 Displacement from previous Coordinates is:  0.000000
 Adding empirical dispersion correction 
 ----------------------------------------------------------------
 Doing -D3(op) with
 s6 =   1.00000
 s8 =   0.78311
 a1 =   0.30000
 a2 =   4.25000
 n  =  10.00000
 -D3 energy without 3body term =     -0.0872184754 hartrees
 ----------------------------------------------------------------
             Standard Nuclear Orientation (Angstroms)
    I     Atom           X                Y                Z
 ----------------------------------------------------------------
    1      O      -0.1897946723    -1.7433864375    -1.2969646625
    2      C      -1.2242771722    -1.4728232204    -0.7039657257
    3      C      -1.9670462448    -0.1580309970    -0.7945654316
    4      C      -2.2170941625     0.5997121464     0.5196481744
    5      C      -1.5422999369     0.0472463355     1.7555756918
    6      O      -0.4681266680     0.8241274767     2.0842619463
    7      C      -0.1449028756     1.7919972327     1.0802618797
    8      C      -0.9538874845     1.5268777052    -0.1851947177
    9      O      -0.5500005795     0.2797014382    -0.7719573301
   10      C       0.5576319133    -0.2869817627    -0.2323725786
   11      C       1.5114849841     0.7269196917     0.3531554091
   12      C       2.9471725324     0.2219459598     0.5583292602
   13      C       3.3053138162    -1.0621535861    -0.1624454808
   14      O       3.9881124423    -1.1407568956    -1.1734696673
   15      O      -1.7312146105    -2.4548704377     0.1260777003
   16      O       2.8636647934    -2.2188470565     0.3997247431
   17      O       0.5850750255    -1.1439290696     0.7001081892
   18      C       3.0852035933    -3.4762813475    -0.1214804523
   19      C       2.0034458907     1.8178240757    -0.7759166091
   20      C       2.4435515281     3.1553207560    -0.1766639085
   21      C       3.6522357267     2.6861831729     0.5987896501
   22      C       3.8380804292     1.3080474793    -0.0555049864
   23      O       3.2346693481     1.4057431492    -1.2902813264
   24      H       1.6906600606     0.8017248087     1.4754462767
   25      H       3.3906877130     0.0006191221     1.5889807773
   26      H       1.3343622660     1.9497688905    -1.6449474233
   27      H       2.8019675754     3.7501388987    -1.0507527249
   28      H       1.7694306868     3.8532154284     0.3529112408
   29      H       4.4867026479     3.3961634421     0.4089003907
   30      H       3.4923543607     2.5573446011     1.6915738224
   31      H       4.9108050210     1.0100481903    -0.0753717974
   32      O      -1.8992293563    -0.8640308599     2.5103380260
   33      C      -1.1960974754    -3.7184587532     0.2708370339
   34      C      -3.2889740795     0.4349089834    -1.5679100815
   35      C      -4.6955548230    -0.1000560995    -1.1051570179
   36      C      -4.8923108487     0.6586757614     0.2083405001
   37      C      -3.5627893892     1.4489491103     0.2508590533
   38      O      -3.4271103856     1.7621543981    -1.1180940459
   39      H      -2.6121106030    -0.9882188565    -1.1291264457
   40      H      -2.8971747481    -0.2078754421     0.8036526170
   41      H      -0.1561235550    -3.6591367734     0.6549378803
   42      H      -3.1827503025     0.3560141496    -2.6779873499
   43      H      -5.4623481071     0.2647023527    -1.8248186517
   44      H      -4.7804690476    -1.2059978504    -1.0301785628
[...]
 -0.399  -0.394  -0.387  -0.376  -0.369  -0.360  -0.357  -0.355
 -0.341  -0.336  -0.334  -0.326  -0.322  -0.319  -0.316  -0.314
 -0.311  -0.310  -0.297  -0.294  -0.285  -0.280  -0.258  -0.252
 -0.241  -0.237  -0.227  -0.215  -0.202  -0.180  -0.169  -0.165
 -0.156  -0.150  -0.148  -0.141  -0.132  -0.117  -0.108  -0.099
  0.012
 -- Virtual --
  0.055   0.104   0.108   0.138   0.159   0.195   0.205   0.252
  0.256   0.260   0.266   0.306   0.321   0.323   0.324   0.335
  0.336   0.342   0.351   0.363   0.372   0.378   0.382   0.393
  0.399   0.400   0.401   0.413   0.415   0.418   0.426   0.434
  0.440   0.441   0.444   0.447   0.451   0.452   0.455   0.464
  0.466   0.468   0.474   0.475   0.479   0.488   0.503   0.509
  0.511   0.520   0.536   0.542   0.551   0.556   0.560   0.570
  0.583   0.587   0.592   0.663   0.682   0.707   0.710
 --------------------------------------------------------------
 
          Ground-State Mulliken Net Atomic Charges

     Atom                 Charge (a.u.)
  ----------------------------------------
      1 O                    -0.241384
      2 C                     0.180464
      3 C                     0.035306
      4 C                    -0.122519
      5 C                     0.239539
      6 O                    -0.188888
      7 C                    -0.048062
      8 C                    -0.053136
      9 O                    -0.142098
     10 C                     0.198304
     11 C                    -0.088160
     12 C                    -0.072927
     13 C                     0.237175
     14 O                    -0.241544
     15 O                    -0.215654
     16 O                    -0.207185
     17 O                    -0.214429
     18 C                    -0.096208
     19 C                     0.032976
     20 C                    -0.150502
     21 C                    -0.147530
     22 C                     0.044451
     23 O                    -0.206341
     24 H                     0.137227
     25 H                     0.070968
     26 H                     0.069876
     27 H                     0.075421
     28 H                     0.063143
     29 H                     0.076800
     30 H                     0.067176
     31 H                     0.085854
     32 O                    -0.201789
     33 C                    -0.098317
     34 C                     0.049803
     35 C                    -0.139543
     36 C                    -0.142599
     37 C                     0.044971
     38 O                    -0.219207
     39 H                     0.014056
     40 H                     0.081261
     41 H                     0.090413
     42 H                     0.081548
     43 H                     0.081778
     44 H                     0.082674
     45 H                     0.077946
     46 H                     0.082293
     47 H                     0.073902
     48 H                     0.072765
     49 H                     0.088079
     50 H                     0.090333
     51 H                     0.080336
     52 H                     0.088661
     53 H                     0.083929
     54 H                     0.180200
     55 H                     0.120089
     56 H                     0.058308
  ----------------------------------------
  Sum of atomic charges =     0.000000

 -----------------------------------------------------------------
                    Cartesian Multipole Moments
 -----------------------------------------------------------------
    Charge (ESU x 10^10)
                 0.0000
    Dipole Moment (Debye)
         X      -2.2907      Y       4.1932      Z      -0.3961
       Tot       4.7945
    Quadrupole Moments (Debye-Ang)
        XX    -158.0369     XY       0.3667     YY    -147.1791
        XZ      14.3399     YZ       3.7462     ZZ    -170.1929
    Octopole Moments (Debye-Ang^2)
       XXX     -36.5898    XXY      -3.9456    XYY      21.6823
       YYY     -49.2720    XXZ      29.3083    XYZ      -9.6264
       YYZ       4.9278    XZZ      -6.0658    YZZ       1.7234
       ZZZ     -15.4397
    Hexadecapole Moments (Debye-Ang^3)
      XXXX   -7009.9075   XXXY     -29.2152   XXYY   -1697.4825
      XYYY     -54.7336   YYYY   -3020.4712   XXXZ     136.7002
      XXYZ      18.9976   XYYZ     -25.0994   YYYZ     -21.4737
      XXZZ   -1430.3957   XYZZ     -11.6838   YYZZ    -730.0596
      XZZZ      27.5686   YZZZ      -1.6427   ZZZZ   -1120.9532
 -----------------------------------------------------------------
 Calculating analytic gradient of the SCF energy
 Gradient of SCF Energy
            1           2           3           4           5           6
    1  -0.0770270   0.0303804   0.1500505   0.1877974  -0.0306714  -0.0689991
    2   0.0356061   0.1608073   0.1125768   0.1485712  -0.0335819  -0.0004955
    3   0.0988055  -0.0383019   0.0040058  -0.0420906  -0.0212906  -0.0598057
            7           8           9          10          11          12
    1   0.1110439  -0.1369543  -0.1182444  -0.0978283  -0.1193853  -0.0869905
    2  -0.1287638  -0.1027653  -0.2941688   0.0272167  -0.0262030   0.0668925
    3  -0.0806082   0.0533982   0.0861964  -0.0825129   0.0397215  -0.0380049
           13          14          15          16          17          18
    1  -0.0135127  -0.0402798   0.0980007   0.0606662   0.0134423  -0.0199713
    2   0.0196130  -0.0059235  -0.0526930  -0.0303171   0.0572204   0.0366790
    3   0.0291294   0.0614960  -0.0372059  -0.1038017  -0.0437504   0.0394692
           19          20          21          22          23          24
    1   0.0801696   0.0162764  -0.0223371  -0.0784923  -0.0145897   0.0691529
    2  -0.0327081  -0.0556049  -0.0215542   0.0186967   0.0178755  -0.0239586
    3   0.0023817   0.0130122  -0.0380703  -0.0426373   0.0917299   0.0154865
           25          26          27          28          29          30
    1   0.0333252   0.0103358   0.0025489   0.0050835  -0.0004065  -0.0007853
    2  -0.0118601   0.0057318   0.0033254   0.0127693   0.0128001  -0.0080569
    3   0.0073314  -0.0038686  -0.0077652  -0.0035868  -0.0079762   0.0063939
           31          32          33          34          35          36
    1   0.0054586   0.0108590  -0.0356942  -0.0432356   0.0130018   0.0157677
    2   0.0023866   0.0201793   0.0400690  -0.0267879   0.0351599   0.0055038
    3   0.0078165  -0.0109678   0.0143460   0.0885021   0.0078023  -0.0328505
           37          38          39          40          41          42
    1  -0.0130118  -0.0051086   0.1139039   0.0457225  -0.0053111   0.0011244
    2  -0.0543911  -0.0952843   0.0855406   0.0417603   0.0056560  -0.0043003
    3  -0.0482366   0.0382931  -0.0043961  -0.0103702   0.0011413  -0.0038521
           43          44          45          46          47          48
    1  -0.0109196  -0.0025403  -0.0069795  -0.0010015   0.0010644  -0.0054103
    2   0.0068603  -0.0068668   0.0041967  -0.0025737  -0.0057350   0.0093784
    3   0.0021666  -0.0011622  -0.0076483   0.0070429   0.0078808   0.0002284
           49          50          51          52          53          54
    1   0.0018831   0.0008777  -0.0019506  -0.0032303  -0.1872022   0.1657146
    2  -0.0032340  -0.0031348   0.0074047   0.0072352  -0.0228025   0.0183197
    3  -0.0000129  -0.0017506   0.0058150   0.0043240   0.0324080  -0.0161280
           55          56
    1  -0.0474140   0.0518331
    2   0.0359536  -0.0082207
    3   0.0298574  -0.0075299
 Max gradient component =       2.942E-01
 RMS gradient           =       5.907E-02
 Gradient time:  CPU 34.79 s  wall 0.73 s
 Geometry Optimization Parameters
   NAtoms,    NIC,     NZ,  NCons,   NDum,   NFix, NCnnct, MaxDiis
       56     562       0       9       0       0       0       0

 Cartesian Hessian Update
 Hessian Updated using BFGS Update
**WARNING** Hereditary positive definiteness endangered
**WARNING** Small Scalar Product
 Hessian Update Skipped this cycle


** CONSTRAINED OPTIMIZATION IN DELOCALIZED INTERNAL COORDINATES **
   Searching for a Minimum

   Optimization Cycle: 100

                       Coordinates (Angstroms)
     ATOM                X               Y               Z
      1  O        -0.1897946723   -1.7433864375   -1.2969646625
      2  C        -1.2242771722   -1.4728232204   -0.7039657257
      3  C        -1.9670462448   -0.1580309970   -0.7945654316
      4  C        -2.2170941625    0.5997121464    0.5196481744
      5  C        -1.5422999369    0.0472463355    1.7555756918
      6  O        -0.4681266680    0.8241274767    2.0842619463
      7  C        -0.1449028756    1.7919972327    1.0802618797
      8  C        -0.9538874845    1.5268777052   -0.1851947177
      9  O        -0.5500005795    0.2797014382   -0.7719573301
     10  C         0.5576319133   -0.2869817627   -0.2323725786
     11  C         1.5114849841    0.7269196917    0.3531554091
     12  C         2.9471725324    0.2219459598    0.5583292602
     13  C         3.3053138162   -1.0621535861   -0.1624454808
     14  O         3.9881124423   -1.1407568956   -1.1734696673
     15  O        -1.7312146105   -2.4548704377    0.1260777003
     16  O         2.8636647934   -2.2188470565    0.3997247431
     17  O         0.5850750255   -1.1439290696    0.7001081892
     18  C         3.0852035933   -3.4762813475   -0.1214804523
     19  C         2.0034458907    1.8178240757   -0.7759166091
     20  C         2.4435515281    3.1553207560   -0.1766639085
     21  C         3.6522357267    2.6861831729    0.5987896501
     22  C         3.8380804292    1.3080474793   -0.0555049864
     23  O         3.2346693481    1.4057431492   -1.2902813264
     24  H         1.6906600606    0.8017248087    1.4754462767
     25  H         3.3906877130    0.0006191221    1.5889807773
     26  H         1.3343622660    1.9497688905   -1.6449474233
     27  H         2.8019675754    3.7501388987   -1.0507527249
     28  H         1.7694306868    3.8532154284    0.3529112408
     29  H         4.4867026479    3.3961634421    0.4089003907
     30  H         3.4923543607    2.5573446011    1.6915738224
     31  H         4.9108050210    1.0100481903   -0.0753717974
     32  O        -1.8992293563   -0.8640308599    2.5103380260
     33  C        -1.1960974754   -3.7184587532    0.2708370339
     34  C        -3.2889740795    0.4349089834   -1.5679100815
     35  C        -4.6955548230   -0.1000560995   -1.1051570179
     36  C        -4.8923108487    0.6586757614    0.2083405001
     37  C        -3.5627893892    1.4489491103    0.2508590533
     38  O        -3.4271103856    1.7621543981   -1.1180940459
     39  H        -2.6121106030   -0.9882188565   -1.1291264457
     40  H        -2.8971747481   -0.2078754421    0.8036526170
     41  H        -0.1561235550   -3.6591367734    0.6549378803
     42  H        -3.1827503025    0.3560141496   -2.6779873499
     43  H        -5.4623481071    0.2647023527   -1.8248186517
     44  H        -4.7804690476   -1.2059978504   -1.0301785628
     45  H        -5.7325279886    1.3784639204    0.0863806985
     46  H        -5.0732905492    0.0271110139    1.1053030755
     47  H        -3.6119138141    2.3359164308    0.9175439567
     48  H        -1.2044039341   -4.2495302855   -0.7046476617
     49  H        -1.8096507583   -4.2916457813    0.9957673253
     50  H         2.6127226549   -4.2316666636    0.5392625127
     51  H         4.1755803108   -3.6812374683   -0.1782635509
     52  H         2.6331525077   -3.5545543786   -1.1333626976
     53  H        -0.4297095468    2.2768188037   -0.7880385112
     54  H        -1.3400596734    2.3652612838   -0.8342156880
     55  H         0.5884838721    2.5614386223    1.4005304439
     56  H        -0.7960552764    2.6389320317    1.4048534920
   Point Group: c1    Number of degrees of freedom:   162


   Energy is  -1508.938462486

              Constraints and their Current Values
                                        Value     Constraint
   Dihedral:        1   2   3   4     -123.158     -123.158
   Dihedral:        3   4   5   6      104.210      104.211
   Dihedral:        4   5   6   7       -9.474       -9.474
   Dihedral:        5   6   7   8       -9.474       -9.474
   Dihedral:        6   7   8   9      -66.316      -66.316
   Dihedral:        7   8   9  10       -9.473       -9.474
   Dihedral:        8   9  10  11      -28.422      -28.421
   Dihedral:        9  10  11  12     -161.052     -161.053
   Dihedral:       11  12  13  14      104.211      104.211
 Hessian Updated using BFGS Update
**WARNING** Hereditary positive definiteness endangered
**WARNING** Small Scalar Product
 Hessian Update Skipped this cycle

   Using Lagrange Multiplier Algorithm


169 Hessian modes will be used to form the next step
  Hessian Eigenvalues:
    -0.977753   -0.977753   -0.977753   -0.977753   -0.977753   -0.977753
    -0.977753   -0.977753    0.045000    0.045000    0.045000    0.045000
     0.045025    0.045216    0.045939    0.046714    0.047165    0.047933
     0.048934    0.048988    0.051441    0.052003    0.053627    0.054068
     0.055959    0.056764    0.058677    0.058709    0.059362    0.061323
     0.064281    0.064934    0.065981    0.066031    0.067307    0.068321
     0.070128    0.071662    0.072042    0.072974    0.074207    0.076541
     0.077690    0.080026    0.081462    0.082717    0.083561    0.085023
     0.086136    0.087404    0.087851    0.088198    0.088623    0.089658
     0.091324    0.091356    0.091485    0.092795    0.094524    0.096768
     0.097224    0.098076    0.099362    0.101176    0.106841    0.109284
     0.109700    0.111533    0.112967    0.114447    0.114655    0.115220
     0.115862    0.115951    0.120424    0.121377    0.123823    0.126110
     0.134680    0.137506    0.145034    0.147531    0.151999    0.153889
     0.159881    0.160000    0.160000    0.160000    0.160000    0.160000
     0.160000    0.165074    0.169478    0.171944    0.189607    0.198345
     0.199122    0.213448    0.218275    0.225680    0.236518    0.244969
     0.247704    0.249890    0.250000    0.250000    0.250000    0.250000
     0.254495    0.256793    0.259846    0.260204    0.273940    0.274782
     0.279498    0.280892    0.292339    0.292570    0.292820    0.297163
     0.305243    0.308057    0.313313    0.317741    0.319175    0.319339
     0.322297    0.322767    0.322767    0.323720    0.323929    0.323989
     0.324069    0.324177    0.324915    0.325024    0.325250    0.325289
     0.325763    0.325825    0.326758    0.326800    0.330902    0.331709
     0.333208    0.344309    0.347695    0.366507    0.370760    0.384553
     0.411943    0.473811    0.487090    0.491314    0.492699    0.529900
     0.537343    0.773457    0.886648    0.941950    0.942741    1.022753
     1.022753    1.022753    1.022753    1.022753    1.022753    1.022753
     1.022753

 Minimum Search - Taking P-RFO Step
 Searching for Lamda that Maximizes Along the Constraint modes Only
 Value Taken    Lamda =   0.13962982


 ********************************************
 ** ERROR IN DETERMINING Lamda IN CONFormD **
 ********************************************



 New Cartesian Coordinates Obtained by Inverse Iteration

 Displacement from previous Coordinates is:  0.000000
 Adding empirical dispersion correction 
 ----------------------------------------------------------------
 Doing -D3(op) with
 s6 =   1.00000
 s8 =   0.78311
 a1 =   0.30000
 a2 =   4.25000
 n  =  10.00000
 -D3 energy without 3body term =     -0.0872184754 hartrees
 ----------------------------------------------------------------
             Standard Nuclear Orientation (Angstroms)
    I     Atom           X                Y                Z
 ----------------------------------------------------------------
    1      O      -0.1897946723    -1.7433864375    -1.2969646625
    2      C      -1.2242771722    -1.4728232204    -0.7039657257
    3      C      -1.9670462448    -0.1580309970    -0.7945654316
    4      C      -2.2170941625     0.5997121464     0.5196481744
    5      C      -1.5422999369     0.0472463355     1.7555756918
    6      O      -0.4681266680     0.8241274767     2.0842619463
    7      C      -0.1449028756     1.7919972327     1.0802618797
    8      C      -0.9538874845     1.5268777052    -0.1851947177
    9      O      -0.5500005795     0.2797014382    -0.7719573301
   10      C       0.5576319133    -0.2869817627    -0.2323725786
   11      C       1.5114849841     0.7269196917     0.3531554091
   12      C       2.9471725324     0.2219459598     0.5583292602
   13      C       3.3053138162    -1.0621535861    -0.1624454808
   14      O       3.9881124423    -1.1407568956    -1.1734696673
   15      O      -1.7312146105    -2.4548704377     0.1260777003
   16      O       2.8636647934    -2.2188470565     0.3997247431
   17      O       0.5850750255    -1.1439290696     0.7001081892
   18      C       3.0852035933    -3.4762813475    -0.1214804523
   19      C       2.0034458907     1.8178240757    -0.7759166091
   20      C       2.4435515281     3.1553207560    -0.1766639085
   21      C       3.6522357267     2.6861831729     0.5987896501
   22      C       3.8380804292     1.3080474793    -0.0555049864
   23      O       3.2346693481     1.4057431492    -1.2902813264
   24      H       1.6906600606     0.8017248087     1.4754462767
   25      H       3.3906877130     0.0006191221     1.5889807773
   26      H       1.3343622660     1.9497688905    -1.6449474233
   27      H       2.8019675754     3.7501388987    -1.0507527249
   28      H       1.7694306868     3.8532154284     0.3529112408
   29      H       4.4867026479     3.3961634421     0.4089003907
   30      H       3.4923543607     2.5573446011     1.6915738224
   31      H       4.9108050210     1.0100481903    -0.0753717974
   32      O      -1.8992293563    -0.8640308599     2.5103380260
   33      C      -1.1960974754    -3.7184587532     0.2708370339
   34      C      -3.2889740795     0.4349089834    -1.5679100815
   35      C      -4.6955548230    -0.1000560995    -1.1051570179
   36      C      -4.8923108487     0.6586757614     0.2083405001
   37      C      -3.5627893892     1.4489491103     0.2508590533
   38      O      -3.4271103856     1.7621543981    -1.1180940459
   39      H      -2.6121106030    -0.9882188565    -1.1291264457
   40      H      -2.8971747481    -0.2078754421     0.8036526170
   41      H      -0.1561235550    -3.6591367734     0.6549378803
   42      H      -3.1827503025     0.3560141496    -2.6779873499
   43      H      -5.4623481071     0.2647023527    -1.8248186517
   44      H      -4.7804690476    -1.2059978504    -1.0301785628
   45      H      -5.7325279886     1.3784639204     0.0863806985
   46      H      -5.0732905492     0.0271110139     1.1053030755
   47      H      -3.6119138141     2.3359164308     0.9175439567
   48      H      -1.2044039341    -4.2495302855    -0.7046476617
   49      H      -1.8096507583    -4.2916457813     0.9957673253
   50      H       2.6127226549    -4.2316666636     0.5392625127
   51      H       4.1755803108    -3.6812374683    -0.1782635509
   52      H       2.6331525077    -3.5545543786    -1.1333626976
   53      H      -0.4297095468     2.2768188037    -0.7880385112
   54      H      -1.3400596734     2.3652612838    -0.8342156880
   55      H       0.5884838721     2.5614386223     1.4005304439
   56      H      -0.7960552764     2.6389320317     1.4048534920
 ----------------------------------------------------------------
 Molecular Point Group                 C1    NOp =  1
 Largest Abelian Subgroup              C1    NOp =  1
 Nuclear Repulsion Energy =  3654.4927428313 hartrees
 There are      113 alpha and      113 beta electrons


 *******************************************
 **  MAXIMUM OPTIMIZATION CYCLES REACHED  **
 *******************************************

 Q-Chem fatal error occurred in module 0, line  456, PE  0:

 Maximum optimization cycles reached

