mFile = /opt/software/qchem/qchem-5.0.1//bin/mpi/machines
Process 0 of 1 is on vega02.cac.cornell.edu - thread support 0
initial socket setup ...start
initial socket setup ...done 
now start server 0 ... 
vega02.cac.cornell.edu 10.84.3
Q-Chem Developer Version! Running on 10.84.3.*
                  Welcome to Q-Chem
     A Quantum Leap Into The Future Of Chemistry


 Q-Chem 5.0, Q-Chem, Inc., Pleasanton, CA (2017)

 Yihan Shao,  Zhengting Gan,  E. Epifanovsky,  A. T. B. Gilbert,  M. Wormit,  
 J. Kussmann,  A. W. Lange,  A. Behn,  Jia Deng,  Xintian Feng,  D. Ghosh,  
 M. Goldey,  P. R. Horn,  L. D. Jacobson,  I. Kaliman,  T. Kus,  A. Landau,  
 Jie Liu,  E. I. Proynov,  R. M. Richard,  R. P. Steele,  E. J. Sundstrom,  
 H. L. Woodcock III,  P. M. Zimmerman,  D. Zuev,  B. Albrecht,  E. Alguire,  
 S. A. Baeppler,  Z. Benda,  Y. A. Bernard,  E. J. Berquist,  K. B. Bravaya,  
 D. Casanova,  Chun-Min Chang,  Yunqing Chen,  A. Chien,  K. D. Closser,  
 M. P. Coons,  S. Dasgupta,  M. Diedenhofen,  Hainam Do,  R. G. Edgar,  
 Po-Tung Fang,  S. Fatehi,  Qingguo Feng,  Qinghui Ge,  A. Ghysels,  
 J. Gomes,  J. Gonthier,  A. Gunina,  M. W. D. Hanson-Heine,  
 P. H. P. Harbach,  A. W. Hauser,  J. E. Herr,  E. G. Hohenstein,  
 Z. C. Holden,  Kerwin Hui,  T.-C. Jagau,  Hyunjun Ji,  B. Kaduk,  
 K. Khistyaev,  Jaehoon Kim,  P. Klunzinger,  K. Koh,  D. Kosenkov,  
 T. Kowalczyk,  C. M. Krauter,  A. Kunitsa,  Ka Un Lao,  A. Laurent,  
 K. V. Lawler,  Joonho Lee,  D. Lefrancois,  S. Lehtola,  D. S. Levine,  
 Yi-Pei Li,  You-Sheng Lin,  Fenglai Liu,  E. Livshits,  A. Luenser,  
 P. Manohar,  E. Mansoor,  S. F. Manzer,  Shan-Ping Mao,  Yuezhi Mao,  
 N. Mardirossian,  A. V. Marenich,  L. A. Martinez-Martinez,  S. A. Maurer,  
 N. J. Mayhall,  S. C. McKenzie,  J.-M. Mewes,  A. F. Morrison,  K. Nanda,  
 T. S. Nguyen-Beck,  R. Olivares-Amaya,  J. A. Parkhill,  T. M. Perrine,  
 F. Plasser,  S. Prager,  A. Prociuk,  D. R. Rehn,  F. Rob,  M. Schneider,  
 N. Sergueev,  S. M. Sharada,  S. Sharma,  D. W. Small,  T. Stauch,  
 T. Stein,  Yu-Chuan Su,  A. J. W. Thom,  T. Tsuchimochi,  L. Vogt,  
 O. Vydrov,  M. A. Watson,  J. Wenzel,  M. de Wergifosse,  T. A. Wesolowski,  
 A. White,  J. Witte,  A. Yamada,  Jun Yang,  K. Yao,  S. Yeganeh,  
 S. R. Yost,  Zhi-Qiang You,  A. Zech,  Igor Ying Zhang,  Xing Zhang,  
 Yan Zhao,  Ying Zhu,  B. R. Brooks,  G. K. L. Chan,  C. J. Cramer,  
 M. S. Gordon,  W. J. Hehre,  A. Klamt,  M. W. Schmidt,  C. D. Sherrill,  
 D. G. Truhlar,  A. Aspuru-Guzik,  R. Baer,  A. T. Bell,  N. A. Besley,  
 Jeng-Da Chai,  A. Dreuw,  B. D. Dunietz,  T. R. Furlani,  Chao-Ping Hsu,  
 Yousung Jung,  Jing Kong,  D. S. Lambrecht,  WanZhen Liang,  C. Ochsenfeld,  
 V. A. Rassolov,  L. V. Slipchenko,  J. E. Subotnik,  T. Van Voorhis,  
 J. M. Herbert,  A. I. Krylov,  P. M. W. Gill,  M. Head-Gordon

 Contributors to earlier versions of Q-Chem not listed above: 
 R. D. Adamson,  B. Austin,  J. Baker,  G. J. O. Beran,  K. Brandhorst,  
 S. T. Brown,  E. F. C. Byrd,  A. K. Chakraborty,  C.-L. Cheng,  
 Siu Hung Chien,  D. M. Chipman,  D. L. Crittenden,  H. Dachsel,  
 R. A. DiStasio Jr.,  R. J. Doerksen,  A. D. Dutoi,  L. Fusti-Molnar,  
 W. A. Goddard III,  A. Golubeva-Zadorozhnaya,  S. R. Gwaltney,  G. Hawkins,  
 A. Heyden,  S. Hirata,  G. Kedziora,  F. J. Keil,  C. Kelley,  Jihan Kim,  
 R. A. King,  R. Z. Khaliullin,  P. P. Korambath,  W. Kurlancheek,  
 A. M. Lee,  M. S. Lee,  S. V. Levchenko,  Ching Yeh Lin,  D. Liotard,  
 R. C. Lochan,  I. Lotan,  P. E. Maslen,  N. Nair,  D. P. O'Neill,  
 D. Neuhauser,  E. Neuscamman,  C. M. Oana,  R. Olson,  B. Peters,  
 R. Peverati,  P. A. Pieniazek,  Y. M. Rhee,  J. Ritchie,  M. A. Rohrdanz,  
 E. Rosta,  N. J. Russ,  H. F. Schaefer III,  N. E. Schultz,  N. Shenvi,  
 A. C. Simmonett,  A. Sodt,  D. Stuck,  K. S. Thanthiriwatte,  V. Vanovschi,  
 Tao Wang,  A. Warshel,  C. F. Williams,  Q. Wu,  X. Xu,  W. Zhang

 Please cite Q-Chem as follows:
 Y. Shao et al., Mol. Phys. 113, 184-215 (2015)
 DOI: 10.1080/00268976.2014.952696

 Q-Chem 5.0.1 for Intel X86 EM64T Linux

 Parts of Q-Chem use Armadillo 5.200.1 (Boston Tea Smuggler).
 http://arma.sourceforge.net/

 Q-Chem begins on Sat Jan 13 08:43:17 2018  

Host: vega02.cac.cornell.edu
0

     Scratch files written to /scratch/jj585/SOT1001/0023r.save//
 Parallel job on  1  processors

Checking the input file for inconsistencies... 	...done.

--------------------------------------------------------------
User input:
--------------------------------------------------------------
$molecule
0  1
O 3.2290287801 -2.5323621281 0.4558118563
C 3.9232156314 -1.5464173817 0.7894177812
C 4.9100187717 -0.7383234272 -0.1210767976
C 4.293102457 0.6389656071 -0.6339745197
C 2.8719550109 0.9441139919 -0.0422275932
O 1.8876972649 0.4917488424 -0.986340791
C 0.566222235 1.0943721173 -0.6823982507
C -0.4766433235 0.3877696357 -1.622755517
O -1.640708198 1.273805602 -1.8254262544
C -2.8223691297 0.9941962549 -1.0387082775
C -3.162184908 -0.5181499859 -0.706583385
C -4.4115145741 -0.7102672573 0.2396234698
C -4.7283274255 0.4393373582 1.261273845
O -4.0134524866 1.4001970104 1.6133361494
O 3.9031469358 -0.9578258266 2.0922027236
O -6.0370898976 0.1820624823 1.789596946
O -3.6276969526 1.9394299983 -0.9077052979
C -6.393318475 1.2207690644 2.7826185586
C -3.7657958829 -1.1090005283 -2.0590331606
C -4.0744870574 -2.6518865059 -1.8959033878
C -5.4353727205 -2.6156834256 -1.1045895436
C -5.5566645728 -1.0705459838 -0.8103886847
O -5.1019191748 -0.4674066149 -2.0841288206
H -2.2958417067 -1.0839150238 -0.3307352503
H -4.2285745053 -1.6045388415 0.8662024191
H -3.1901510387 -0.8390364248 -2.9660529607
H -4.1868080678 -3.130442919 -2.8814911707
H -3.2769469349 -3.1720456112 -1.3410032403
H -6.2744226687 -2.9512739782 -1.7351618085
H -5.4153821833 -3.2224468118 -0.1854118152
H -6.5651446115 -0.7065325221 -0.5348596757
O 2.5990673682 1.5374929231 1.0225238767
C 2.9187475975 -1.6566189971 2.9497025199
C 6.1990928255 -0.216608099 0.6470459284
C 7.2778329349 0.1939827953 -0.4326028223
C 6.6719183288 1.545469854 -0.9666027184
C 5.3688230401 1.6664851924 -0.0829301331
O 5.7688224408 1.080064423 1.215526096
H 5.1760012087 -1.3853600988 -0.9757809143
H 4.2204834307 0.6512558924 -1.7356846531
H 3.1680148674 -2.7310286814 3.0688585729
H 6.5609524165 -0.889564126 1.4480472831
H 8.2583754569 0.3509762017 0.0443439659
H 7.3864786163 -0.5663410538 -1.2224333463
H 7.3462540028 2.3949851906 -0.7743321869
H 6.4426395027 1.5130939601 -2.0437265513
H 4.9840602532 2.6944288069 0.0618089823
H 1.8922250579 -1.5769022881 2.5371615205
H 2.9616106492 -1.1533169657 3.9328034852
H -7.3847626583 0.935710201 3.1803109651
H -6.4554290364 2.2253959789 2.3163585821
H -5.6577009623 1.2636177723 3.6115537102
H -0.0063018475 0.261472859 -2.6218981155
H -0.7274281456 -0.6179522562 -1.2383777408
H 0.5778395389 2.1841631546 -0.9051602984
H 0.2980953493 0.9658646534 0.3885680015
$end

$rem
JOBTYPE                   OPT
METHOD                    B3LYP
DFT_D                     d3_op
BASIS                     STO-3G
GEOM_OPT_MAX_CYCLES       100
GEOM_OPT_TOL_GRADIENT     300
GEOM_OPT_TOL_DISPLACEMENT 1200
GEOM_OPT_TOL_ENERGY       100
SYMMETRY                  False
THRESH                    12
SCF_CONVERGENCE           8
MAX_SUB_FILE_NUM          128
MEM_STATIC                400
MEM_TOTAL                 4000
$end
--------------------------------------------------------------
 Adding empirical dispersion correction 
 ----------------------------------------------------------------
 Doing -D3(op) with
 s6 =   1.00000
 s8 =   0.78311
 a1 =   0.30000
 a2 =   4.25000
 n  =  10.00000
 -D3 energy without 3body term =     -0.0647754365 hartrees
 ----------------------------------------------------------------
             Standard Nuclear Orientation (Angstroms)
    I     Atom           X                Y                Z
 ----------------------------------------------------------------
    1      O      -3.1139283133     0.4501081043     2.6481119199
    2      C      -3.8631310472    -0.1170243411     1.8220783894
    3      C      -4.8456304634     0.5718370941     0.8141292462
    4      C      -4.2681576722     0.6333976700    -0.6702259564
    5      C      -2.8870190261    -0.0939940881    -0.8323903660
    6      O      -1.8461940494     0.8880986727    -0.7022963764
    7      C      -0.5655583762     0.3553406318    -1.2295280867
    8      C       0.5445853173     1.4040683411    -0.8568638951
    9      O       1.6766815107     1.2822081508    -1.7974437676
   10      C       2.8359769529     0.5493087265    -1.3366600537
   11      C       3.2267924019     0.6499408931     0.1963465710
   12      C       4.4433072236    -0.2641770924     0.6176790642
   13      C       4.6679714984    -1.5887525193    -0.1951902648
   14      O       3.8984413007    -2.1652317311    -0.9912683444
   15      O      -3.9220312526    -1.5333703811     1.6361051707
   16      O       5.9637976962    -2.0876032726     0.1655828777
   17      O       3.5937070609     0.1099281587    -2.2265877546
   18      C       6.2337689922    -3.3548896808    -0.5506592217
   19      C       3.9104025771     2.0821075475     0.3517388822
   20      C       4.2784112246     2.3547423302     1.8658850491
   21      C       5.6027979702     1.5171537967     2.0206211071
   22      C       5.6451173009     0.7842999721     0.6242508415
   23      O       5.2175008184     1.8519788947    -0.3085890543
   24      H       2.3709537147     0.4984930440     0.8719989457
   25      H       4.2735275019    -0.5961159923     1.6601671109
   26      H       3.3614064102     2.9014128187    -0.1525176031
   27      H       4.4516831428     3.4292228507     2.0346570282
   28      H       3.4819275318     2.0153816154     2.5477926293
   29      H       6.4807498528     2.1733198674     2.1341719560
   30      H       5.5712490594     0.8141439553     2.8681061831
   31      H       6.6247768699     0.3636894274     0.3262442607
   32      O      -2.6839740975    -1.2972186230    -1.0993836055
   33      C      -2.9444694742    -2.2029319807     2.5242043130
   34      C      -6.1864900604    -0.2461668940     0.5756416393
   35      C      -7.2366609682     0.7237479312    -0.0983856803
   36      C      -6.6681898894     0.8134913388    -1.5638523029
   37      C      -5.4089456353    -0.1338540450    -1.4617743226
   38      O      -5.8362923149    -1.1856913415    -0.5126217873
   39      H      -5.0480991860     1.5893239662     1.1931399583
   40      H      -4.1509233604     1.6795222071    -1.0034966587
   41      H      -3.1518338076    -1.9943378140     3.5938664154
   42      H      -6.5515882002    -0.7993891605     1.4622440419
   43      H      -8.2418350154     0.2732731334    -0.0814624044
   44      H      -7.2798505394     1.7036969528     0.4031749564
   45      H      -7.3858821460     0.4197865115    -2.3009324881
   46      H      -6.3936573182     1.8408604247    -1.8518754942
   47      H      -5.0751664204    -0.5884097750    -2.4144707131
   48      H      -1.9062570030    -1.8846356414     2.2981608229
   49      H      -3.0493723297    -3.2857648525     2.3289966116
   50      H       7.2194077240    -3.7043847174    -0.1918432744
   51      H       6.2715841934    -3.2017836752    -1.6486846706
   52      H       5.4635447914    -4.1217263715    -0.3297094703
   53      H       0.1215883588     2.4201925851    -1.0118574624
   54      H       0.8225217358     1.3133576583     0.2092687162
   55      H      -0.6150210614     0.2548985290    -2.3362652838
   56      H      -0.3363744538    -0.6455543938    -0.8040180565
 ----------------------------------------------------------------
 Molecular Point Group                 C1    NOp =  1
 Largest Abelian Subgroup              C1    NOp =  1
 Nuclear Repulsion Energy =  2997.8767413880 hartrees
 There are      113 alpha and      113 beta electrons
 Requested basis set is STO-3G
 There are 86 shells and 176 basis functions

 Total QAlloc Memory Limit   4000 MB
 Mega-Array Size       392 MB
 MEM_STATIC part       400 MB
 A cutoff of  1.0D-12 yielded   1975 shell pairs
 There are      9166 function pairs
 
 -------------------------------------------------------
 OpenMP Integral Computing Module                       
 Release: version 1.0, May 2013, Q-Chem Inc. Pittsburgh 
 -------------------------------------------------------
 Integral Job Info:
 Integral job number is                      11
 Integral operator is                         1
 short-range coefficients                     0
 long-range coefficients              100000000
 Omega coefficients                           0
 if combine SR and LR in K                    0
 Integral screening is                        0
 Integral computing path is                   2
 max size of driver memory is            800000
 size of driver memory is                 45569
 size of scratch memory is              1046100
 max col of scratch BK array                289
 max len of scratch array in speh3           22
 max len of scratch index in speh4            8
 max int batch size is                      520
 min int batch size is                       52
 fixed nKL is                                52
 max L of basis functions is                  1
 order of int derivative is                   0
 number of shells is                         86
 number of basis is                         176
 number of cartesian basis is               176
 number of contracted shell pairs          1975
 number of primitive shell pairs          10350
 maxK2 (contraction) of shell pair            9
 max number of K2 of shell pair               1
 max number of CS2 of shell pair            295
 max number of PS2 of shell pair           1200
 mem total for path MDJ                   49782
 -------------------------------------------------------
 Smallest overlap matrix eigenvalue = 2.13E-01

 Scale SEOQF with 1.000000e-02/1.000000e-01/1.000000e-01

 Standard Electronic Orientation quadrupole field applied
 Nucleus-field energy     =     0.0000000062 hartrees
 Guess from superposition of atomic densities
 Warning:  Energy on first SCF cycle will be non-variational
 A restricted hybrid HF-DFT SCF calculation will be
 performed using Pulay DIIS extrapolation
 Exchange:     0.2000 Hartree-Fock + 0.0800 Slater + 0.7200 B88
 Correlation:  0.1900 VWN1RPA + 0.8100 LYP
 Using SG-1 standard quadrature grid
 Dispersion:   Grimme D3
 SCF converges when DIIS error is below 1.0E-08
 using 48 threads for integral computing
 -------------------------------------------------------
 OpenMP Integral computing Module                
 Release: version 1.0, May 2013, Q-Chem Inc. Pittsburgh 
 -------------------------------------------------------
 -------------------------------------------------------
 OpenMP BLAS3 based DFT computing Module                
 Release: version 1.0, May 2013, Q-Chem Inc. Pittsburgh 
 -------------------------------------------------------
 ---------------------------------------
  Cycle       Energy         DIIS Error
 ---------------------------------------
    1   -1507.6017979731      7.45E-02
    2   -1509.6847257227      1.07E-02
    3   -1507.1364856148      2.79E-02
    4   -1510.1701744920      4.28E-03
    5   -1510.2439994206      1.58E-03
    6   -1510.2547741332      4.28E-04
    7   -1510.2554745471      1.69E-04
    8   -1510.2555921133      4.44E-05
    9   -1510.2556002883      1.31E-05
   10   -1510.2556009510      5.52E-06
   11   -1510.2556010719      2.00E-06
   12   -1510.2556010897      3.24E-07
   13   -1510.2556010901      1.30E-07
   14   -1510.2556010901      5.99E-08
   15   -1510.2556010901      2.06E-08
   16   -1510.2556010902      6.21E-09 Convergence criterion met
 ---------------------------------------
 SCF time:  CPU 115.19 s  wall 2.47 s
 SCF   energy in the final basis set = -1510.25560109
 Total energy in the final basis set = -1510.25560109
 
 --------------------------------------------------------------
 
                    Orbital Energies (a.u.)
 --------------------------------------------------------------
 
 Alpha MOs
 -- Occupied --
-18.936 -18.932 -18.930 -18.927 -18.891 -18.889 -18.881 -18.878
-18.875 -18.874 -10.101 -10.099 -10.098 -10.098 -10.079 -10.073
-10.065 -10.064 -10.062 -10.061 -10.061 -10.060 -10.042 -10.040
-10.039 -10.039 -10.025 -10.022 -10.021 -10.020  -1.015  -1.010
 -1.009  -1.002  -0.973  -0.970  -0.941  -0.936  -0.935  -0.930
 -0.766  -0.764  -0.727  -0.724  -0.714  -0.709  -0.702  -0.660
 -0.660  -0.612  -0.602  -0.587  -0.548  -0.547  -0.542  -0.538
 -0.519  -0.514  -0.485  -0.477  -0.468  -0.462  -0.459  -0.443
 -0.438  -0.433  -0.428  -0.414  -0.412  -0.410  -0.408  -0.401
 -0.398  -0.380  -0.377  -0.373  -0.366  -0.357  -0.356  -0.350
 -0.346  -0.344  -0.333  -0.332  -0.330  -0.328  -0.317  -0.310
 -0.309  -0.308  -0.304  -0.300  -0.298  -0.293  -0.284  -0.279
 -0.274  -0.256  -0.253  -0.251  -0.241  -0.236  -0.234  -0.180
 -0.177  -0.175  -0.170  -0.158  -0.157  -0.150  -0.146  -0.144
 -0.140
 -- Virtual --
  0.092   0.096   0.099   0.104   0.207   0.241   0.244   0.248
  0.250   0.262   0.287   0.288   0.296   0.312   0.323   0.325
  0.333   0.335   0.340   0.346   0.349   0.355   0.358   0.367
  0.370   0.372   0.382   0.384   0.394   0.401   0.403   0.409
  0.411   0.414   0.420   0.423   0.423   0.425   0.432   0.433
  0.435   0.436   0.439   0.439   0.443   0.448   0.451   0.460
  0.467   0.467   0.480   0.483   0.489   0.502   0.519   0.535
  0.548   0.551   0.555   0.626   0.638   0.650   0.657
 --------------------------------------------------------------
 
          Ground-State Mulliken Net Atomic Charges

     Atom                 Charge (a.u.)
  ----------------------------------------
      1 O                    -0.216333
      2 C                     0.203286
      3 C                    -0.078806
      4 C                    -0.078297
      5 C                     0.205407
      6 O                    -0.177598
      7 C                    -0.050533
      8 C                    -0.048335
      9 O                    -0.174359
     10 C                     0.212349
     11 C                    -0.082595
     12 C                    -0.078856
     13 C                     0.212882
     14 O                    -0.206431
     15 O                    -0.161829
     16 O                    -0.174158
     17 O                    -0.186265
     18 C                    -0.128545
     19 C                     0.022869
     20 C                    -0.145649
     21 C                    -0.141649
     22 C                     0.026212
     23 O                    -0.187147
     24 H                     0.077797
     25 H                     0.082164
     26 H                     0.083484
     27 H                     0.079443
     28 H                     0.072668
     29 H                     0.078961
     30 H                     0.074254
     31 H                     0.091988
     32 O                    -0.202908
     33 C                    -0.126947
     34 C                     0.026747
     35 C                    -0.143845
     36 C                    -0.144234
     37 C                     0.026518
     38 O                    -0.182353
     39 H                     0.084463
     40 H                     0.086176
     41 H                     0.087525
     42 H                     0.085190
     43 H                     0.078195
     44 H                     0.073291
     45 H                     0.078654
     46 H                     0.073411
     47 H                     0.086616
     48 H                     0.086615
     49 H                     0.094234
     50 H                     0.089326
     51 H                     0.091598
     52 H                     0.088370
     53 H                     0.091967
     54 H                     0.083899
     55 H                     0.091144
     56 H                     0.089972
  ----------------------------------------
  Sum of atomic charges =    -0.000000

 -----------------------------------------------------------------
                    Cartesian Multipole Moments
 -----------------------------------------------------------------
    Charge (ESU x 10^10)
                 0.0000
    Dipole Moment (Debye)
         X      -0.9880      Y       1.1987      Z       3.3133
       Tot       3.6594
    Quadrupole Moments (Debye-Ang)
        XX    -149.4242     XY     -14.6562     YY    -157.6899
        XZ      13.3062     YZ      -4.0485     ZZ    -163.8402
    Octopole Moments (Debye-Ang^2)
       XXX     -34.4778    XXY      -4.9213    XYY      40.4326
       YYY     -29.3643    XXZ      42.1204    XYZ      34.8348
       YYZ       9.5138    XZZ     -23.2908    YZZ     -21.0865
       ZZZ      -6.2388
    Hexadecapole Moments (Debye-Ang^3)
      XXXX  -18902.7092   XXXY    -645.1471   XXYY   -3555.5139
      XYYY    -117.9236   YYYY   -2062.8117   XXXZ     -13.6845
      XXYZ      43.5967   XYYZ     -58.4185   YYYZ     -20.9627
      XXZZ   -3585.7954   XYZZ      46.0781   YYZZ    -666.9642
      XZZZ     -30.2590   YZZZ     -35.8712   ZZZZ   -1889.6152
 -----------------------------------------------------------------
 Calculating analytic gradient of the SCF energy
 Gradient of SCF Energy
            1           2           3           4           5           6
    1   0.0003168  -0.0006797   0.0001931   0.0002814  -0.0004751   0.0012277
    2  -0.0002508  -0.0001772  -0.0007634   0.0017354  -0.0006354  -0.0012780
    3  -0.0001411  -0.0001551  -0.0002513  -0.0048082   0.0058581   0.0024535
            7           8           9          10          11          12
    1  -0.0019208   0.0017986  -0.0000381  -0.0016778  -0.0027275   0.0045234
    2   0.0023889  -0.0034358   0.0029164  -0.0021452  -0.0022039   0.0045860
    3  -0.0044226   0.0024762  -0.0025511   0.0010585   0.0020078  -0.0050254
           13          14          15          16          17          18
    1  -0.0033200   0.0015534  -0.0000042   0.0001148  -0.0001104   0.0000547
    2  -0.0045872   0.0024407   0.0000080   0.0000635   0.0000851  -0.0001319
    3   0.0055650  -0.0031481   0.0000779  -0.0000621   0.0000610   0.0001181
           19          20          21          22          23          24
    1   0.0004253  -0.0001262  -0.0002251   0.0002600   0.0000477   0.0001501
    2   0.0001295  -0.0001033   0.0000774   0.0005709   0.0000458   0.0001312
    3  -0.0001176  -0.0000679   0.0001089   0.0001304   0.0000332   0.0000420
           25          26          27          28          29          30
    1  -0.0000065   0.0001222  -0.0000025   0.0001215   0.0000372  -0.0000354
    2  -0.0000400  -0.0000031  -0.0000279  -0.0000100  -0.0000516   0.0001244
    3   0.0001684   0.0000636   0.0000453   0.0000138   0.0000151  -0.0000321
           31          32          33          34          35          36
    1  -0.0000107  -0.0001841   0.0000625   0.0004261  -0.0002650   0.0003240
    2  -0.0000737  -0.0000873  -0.0000318  -0.0004203   0.0001729  -0.0002123
    3   0.0000452  -0.0000384  -0.0000604  -0.0001587   0.0001255  -0.0002810
           37          38          39          40          41          42
    1  -0.0004409  -0.0000915  -0.0000763  -0.0002227   0.0000050   0.0001090
    2   0.0005380   0.0001867  -0.0000042  -0.0000026   0.0000421  -0.0001163
    3   0.0002178  -0.0001064   0.0000459   0.0000897   0.0000447   0.0000807
           43          44          45          46          47          48
    1  -0.0000432   0.0000280   0.0001479  -0.0000017   0.0000476   0.0000277
    2   0.0000316  -0.0000433  -0.0000069   0.0000069   0.0000488   0.0000986
    3   0.0000706   0.0000501   0.0000079  -0.0000167   0.0000370   0.0001168
           49          50          51          52          53          54
    1   0.0000528  -0.0000145   0.0000538  -0.0000561  -0.0000091   0.0000042
    2   0.0000853   0.0000115   0.0000473   0.0001407   0.0000104   0.0000988
    3   0.0000274   0.0000539   0.0000327  -0.0000175   0.0000448   0.0000227
           55          56
    1   0.0001021   0.0001464
    2   0.0000099   0.0000103
    3   0.0000196   0.0000326
 Max gradient component =       5.858E-03
 RMS gradient           =       1.364E-03
 Gradient time:  CPU 31.53 s  wall 0.68 s
 Geometry Optimization Parameters
   NAtoms,    NIC,     NZ,  NCons,   NDum,   NFix, NCnnct, MaxDiis
       56     458       0       0       0       0       0       0


** GEOMETRY OPTIMIZATION IN DELOCALIZED INTERNAL COORDINATES **
   Searching for a Minimum

   Optimization Cycle:   1

                       Coordinates (Angstroms)
     ATOM                X               Y               Z
      1  O        -3.1139283133    0.4501081043    2.6481119199
      2  C        -3.8631310472   -0.1170243411    1.8220783894
      3  C        -4.8456304634    0.5718370941    0.8141292462
      4  C        -4.2681576722    0.6333976700   -0.6702259564
      5  C        -2.8870190261   -0.0939940881   -0.8323903660
      6  O        -1.8461940494    0.8880986727   -0.7022963764
      7  C        -0.5655583762    0.3553406318   -1.2295280867
      8  C         0.5445853173    1.4040683411   -0.8568638951
      9  O         1.6766815107    1.2822081508   -1.7974437676
     10  C         2.8359769529    0.5493087265   -1.3366600537
     11  C         3.2267924019    0.6499408931    0.1963465710
     12  C         4.4433072236   -0.2641770924    0.6176790642
     13  C         4.6679714984   -1.5887525193   -0.1951902648
     14  O         3.8984413007   -2.1652317311   -0.9912683444
     15  O        -3.9220312526   -1.5333703811    1.6361051707
     16  O         5.9637976962   -2.0876032726    0.1655828777
     17  O         3.5937070609    0.1099281587   -2.2265877546
     18  C         6.2337689922   -3.3548896808   -0.5506592217
     19  C         3.9104025771    2.0821075475    0.3517388822
     20  C         4.2784112246    2.3547423302    1.8658850491
     21  C         5.6027979702    1.5171537967    2.0206211071
     22  C         5.6451173009    0.7842999721    0.6242508415
     23  O         5.2175008184    1.8519788947   -0.3085890543
     24  H         2.3709537147    0.4984930440    0.8719989457
     25  H         4.2735275019   -0.5961159923    1.6601671109
     26  H         3.3614064102    2.9014128187   -0.1525176031
     27  H         4.4516831428    3.4292228507    2.0346570282
     28  H         3.4819275318    2.0153816154    2.5477926293
     29  H         6.4807498528    2.1733198674    2.1341719560
     30  H         5.5712490594    0.8141439553    2.8681061831
     31  H         6.6247768699    0.3636894274    0.3262442607
     32  O        -2.6839740975   -1.2972186230   -1.0993836055
     33  C        -2.9444694742   -2.2029319807    2.5242043130
     34  C        -6.1864900604   -0.2461668940    0.5756416393
     35  C        -7.2366609682    0.7237479312   -0.0983856803
     36  C        -6.6681898894    0.8134913388   -1.5638523029
     37  C        -5.4089456353   -0.1338540450   -1.4617743226
     38  O        -5.8362923149   -1.1856913415   -0.5126217873
     39  H        -5.0480991860    1.5893239662    1.1931399583
     40  H        -4.1509233604    1.6795222071   -1.0034966587
     41  H        -3.1518338076   -1.9943378140    3.5938664154
     42  H        -6.5515882002   -0.7993891605    1.4622440419
     43  H        -8.2418350154    0.2732731334   -0.0814624044
     44  H        -7.2798505394    1.7036969528    0.4031749564
     45  H        -7.3858821460    0.4197865115   -2.3009324881
     46  H        -6.3936573182    1.8408604247   -1.8518754942
     47  H        -5.0751664204   -0.5884097750   -2.4144707131
     48  H        -1.9062570030   -1.8846356414    2.2981608229
     49  H        -3.0493723297   -3.2857648525    2.3289966116
     50  H         7.2194077240   -3.7043847174   -0.1918432744
     51  H         6.2715841934   -3.2017836752   -1.6486846706
     52  H         5.4635447914   -4.1217263715   -0.3297094703
     53  H         0.1215883588    2.4201925851   -1.0118574624
     54  H         0.8225217358    1.3133576583    0.2092687162
     55  H        -0.6150210614    0.2548985290   -2.3362652838
     56  H        -0.3363744538   -0.6455543938   -0.8040180565
   Point Group: c1    Number of degrees of freedom:   162


   Energy is  -1510.255601090


 Attempting to Generate Delocalized Internal Coordinates

162 Hessian modes will be used to form the next step
  Hessian Eigenvalues:
     0.002000    0.002000    0.002000    0.002000    0.002000    0.002683
     0.002813    0.004064    0.004176    0.004321    0.004553    0.004962
     0.004996    0.005475    0.005601    0.006797    0.006850    0.009446
     0.010761    0.011064    0.011714    0.021445    0.021739    0.025279
     0.026140    0.030635    0.030915    0.034888    0.035629    0.037715
     0.041261    0.041618    0.042290    0.043069    0.046706    0.047601
     0.047898    0.047919    0.050669    0.050940    0.051912    0.053393
     0.054295    0.054731    0.055029    0.055651    0.056476    0.057780
     0.058621    0.059375    0.060232    0.060578    0.060904    0.063089
     0.063908    0.064042    0.064459    0.069705    0.070003    0.072923
     0.073556    0.090728    0.091957    0.092811    0.092879    0.095802
     0.096682    0.096721    0.097021    0.102615    0.102731    0.106672
     0.109959    0.109969    0.111309    0.121704    0.123074    0.133989
     0.136745    0.157590    0.157778    0.160000    0.160000    0.160000
     0.160000    0.160000    0.160000    0.163651    0.164601    0.216815
     0.219414    0.220039    0.220048    0.223766    0.230450    0.238141
     0.238427    0.239285    0.239449    0.242481    0.246104    0.246666
     0.248598    0.249655    0.249934    0.249947    0.250000    0.250000
     0.250000    0.250000    0.250000    0.250000    0.250000    0.250000
     0.252902    0.253001    0.258636    0.259977    0.260674    0.262472
     0.292156    0.293747    0.307307    0.307530    0.323487    0.324405
     0.324444    0.326674    0.326750    0.326864    0.326955    0.328480
     0.329032    0.329095    0.329195    0.329214    0.330690    0.330818
     0.331052    0.331892    0.332252    0.334547    0.334697    0.334913
     0.334955    0.335025    0.335095    0.335133    0.335311    0.335867
     0.341317    0.344823    0.345116    0.349290    0.386581    0.400105
     0.403306    0.410300    0.828282    0.835686    0.837295    0.838693

 Minimum Search - Taking Simple RFO Step
 Searching for Lamda that Minimizes Along All modes
 Value Taken    Lamda =  -0.00931676
 Calculated Step too Large.  Step scaled by  0.390947
 Step Taken.  Stepsize is  0.300000

                             Maximum     Tolerance    Cnvgd?
         Gradient           0.004161      0.000300      NO
         Displacement       0.083168      0.001200      NO
         Energy change     *********      0.000001      NO


 New Cartesian Coordinates Obtained by Inverse Iteration

 Displacement from previous Coordinates is:  4.123993
 Adding empirical dispersion correction 
 ----------------------------------------------------------------
 Doing -D3(op) with
 s6 =   1.00000
 s8 =   0.78311
 a1 =   0.30000
 a2 =   4.25000
 n  =  10.00000
 -D3 energy without 3body term =     -0.0652838825 hartrees
 ----------------------------------------------------------------
             Standard Nuclear Orientation (Angstroms)
    I     Atom           X                Y                Z
 ----------------------------------------------------------------
    1      O      -2.7397266381     0.5931021815     2.4200012727
    2      C      -3.5422066965    -0.0267506982     1.6871357770
    3      C      -4.6559057499     0.5925306132     0.7748649975
    4      C      -4.2413216951     0.6399694654    -0.7636278439
    5      C      -2.8514272712    -0.0265362992    -1.0592397479
    6      O      -1.8397489959     0.9898177159    -0.9686316019
    7      C      -0.5293359350     0.4536849534    -1.4123956670
    8      C       0.5447241692     1.5485322609    -1.0674938740
    9      O       1.7240582400     1.3763106385    -1.9395984989
   10      C       2.8419925236     0.6343025782    -1.3984914815
   11      C       3.1057167721     0.6916950848     0.1633525607
   12      C       4.2331722046    -0.2939717182     0.6633144656
   13      C       4.4605949393    -1.6076914060    -0.1660128049
   14      O       3.7004970779    -2.1630435933    -0.9858470417
   15      O      -3.5564302022    -1.4486208559     1.5368536770
   16      O       5.7118452263    -2.1628992595     0.2630411984
   17      O       3.6468861731     0.1687653616    -2.2319697775
   18      C       5.9667957737    -3.4376826475    -0.4455320915
   19      C       3.8422410035     2.0837820359     0.4073785886
   20      C       4.0984472438     2.3078763905     1.9523165411
   21      C       5.3622395468     1.3996613866     2.1937159138
   22      C       5.4808285203     0.6918523400     0.7889148415
   23      O       5.1854513547     1.7982311112    -0.1502828756
   24      H       2.1893082165     0.5693781533     0.7610826351
   25      H       3.9659695439    -0.6383358324     1.6809439500
   26      H       3.3777213428     2.9393901395    -0.1210279956
   27      H       4.3110120361     3.3685374354     2.1593319143
   28      H       3.2327021793     1.9974071060     2.5595673461
   29      H       6.2598099444     2.0072709878     2.3922678943
   30      H       5.2268073488     0.6832403649     3.0195426633
   31      H       6.4592977463     0.2271824630     0.5606112549
   32      O      -2.6142185477    -1.2309114227    -1.2904013858
   33      C      -2.4623102895    -2.0558504236     2.3284968046
   34      C      -5.9755595338    -0.2888440711     0.6974883635
   35      C      -7.1341608696     0.6154649262     0.1167880859
   36      C      -6.7274782922     0.6902127850    -1.4020760256
   37      C      -5.4215338226    -0.1979921006    -1.4131534213
   38      O      -5.6976800327    -1.2413848941    -0.4005425446
   39      H      -4.8639429210     1.6098684234     1.1511963690
   40      H      -4.2090335515     1.6816823812    -1.1283884814
   41      H      -2.5632991319    -1.8293785563     3.4097547227
   42      H      -6.2203940566    -0.8332595864     1.6296743422
   43      H      -8.1099810264     0.1218933074     0.2498978097
   44      H      -7.1702312937     1.6058907238     0.5979353036
   45      H      -7.4998120621     0.2457308752    -2.0497158670
   46      H      -6.5327504117     1.7204753789    -1.7403621506
   47      H      -5.1687808171    -0.6629134878    -2.3856107319
   48      H      -1.4685776536    -1.7021594570     1.9854937305
   49      H      -2.5413715393    -3.1465780709     2.1677433271
   50      H       6.9169870683    -3.8290114248    -0.0376470201
   51      H       6.0687230918    -3.2822018422    -1.5391595364
   52      H       5.1553142431    -4.1731175172    -0.2700153918
   53      H       0.1175809185     2.5456633999    -1.3098404877
   54      H       0.7732041046     1.5322136367     0.0140011880
   55      H      -0.5333382545     0.2778419036    -2.5108026544
   56      H      -0.2977240101    -0.5109979270    -0.9113302500
 ----------------------------------------------------------------
 Molecular Point Group                 C1    NOp =  1
 Largest Abelian Subgroup              C1    NOp =  1
 Nuclear Repulsion Energy =  3023.6620340382 hartrees
 There are      113 alpha and      113 beta electrons
 Applying Cartesian multipole field
    Component          Value
    ---------          -----
     (2,0,0)        1.00000E-12
     (0,2,0)        2.00000E-11
     (0,0,2)       -3.00000E-11
 Nucleus-field energy     =     0.0000000048 hartrees
 Requested basis set is STO-3G
 There are 86 shells and 176 basis functions
 A cutoff of  1.0D-12 yielded   2016 shell pairs
 There are      9327 function pairs
 Smallest overlap matrix eigenvalue = 2.13E-01
 Guess MOs from SCF MO coefficient file
 Reading MOs from coefficient file
 Reading MOs from coefficient file
 A restricted hybrid HF-DFT SCF calculation will be
 performed using Pulay DIIS extrapolation
 Exchange:     0.2000 Hartree-Fock + 0.0800 Slater + 0.7200 B88
 Correlation:  0.1900 VWN1RPA + 0.8100 LYP
 Using SG-1 standard quadrature grid
 Dispersion:   Grimme D3
 SCF converges when DIIS error is below 1.0E-08
 Geometry optimization detected.  Setting ReadMinima to 0
 Setting SaveMinima to 0
 using 48 threads for integral computing
 -------------------------------------------------------
 OpenMP Integral computing Module                
 Release: version 1.0, May 2013, Q-Chem Inc. Pittsburgh 
 -------------------------------------------------------
 -------------------------------------------------------
 OpenMP BLAS3 based DFT computing Module                
 Release: version 1.0, May 2013, Q-Chem Inc. Pittsburgh 
 -------------------------------------------------------
 ---------------------------------------
  Cycle       Energy         DIIS Error
 ---------------------------------------
    1   -1510.1394530076      4.70E-03
    2   -1510.2571991423      4.60E-04
    3   -1510.2571427637      5.85E-04
    4   -1510.2584495962      2.24E-04
    5   -1510.2586494448      7.51E-05
    6   -1510.2586743458      2.33E-05
    7   -1510.2586770789      4.47E-06
    8   -1510.2586771414      3.20E-06
    9   -1510.2586771862      9.06E-07
   10   -1510.2586771902      2.80E-07
   11   -1510.2586771907      7.84E-08
   12   -1510.2586771907      3.03E-08
   13   -1510.2586771908      2.11E-08
   14   -1510.2586771908      2.96E-09 Convergence criterion met
 ---------------------------------------
 SCF time:  CPU 94.36 s  wall 1.97 s
 SCF   energy in the final basis set = -1510.25867719
 Total energy in the final basis set = -1510.25867719
 
 --------------------------------------------------------------
 
                    Orbital Energies (a.u.)
 --------------------------------------------------------------
 
 Alpha MOs
 -- Occupied --
-18.937 -18.934 -18.930 -18.927 -18.891 -18.889 -18.880 -18.878
-18.875 -18.874 -10.101 -10.099 -10.099 -10.099 -10.079 -10.073
-10.065 -10.065 -10.062 -10.061 -10.061 -10.060 -10.042 -10.040
-10.039 -10.039 -10.025 -10.022 -10.022 -10.020  -1.016  -1.010
 -1.009  -1.002  -0.973  -0.970  -0.941  -0.937  -0.935  -0.930
 -0.766  -0.765  -0.727  -0.724  -0.714  -0.709  -0.702  -0.661
 -0.660  -0.613  -0.602  -0.588  -0.549  -0.547  -0.542  -0.539
 -0.519  -0.515  -0.486  -0.477  -0.469  -0.462  -0.459  -0.443
 -0.437  -0.433  -0.429  -0.414  -0.413  -0.410  -0.408  -0.401
 -0.398  -0.380  -0.377  -0.373  -0.366  -0.358  -0.356  -0.351
 -0.346  -0.344  -0.333  -0.332  -0.329  -0.328  -0.317  -0.310
 -0.310  -0.308  -0.304  -0.300  -0.298  -0.293  -0.284  -0.279
 -0.275  -0.258  -0.253  -0.251  -0.241  -0.236  -0.234  -0.182
 -0.177  -0.176  -0.170  -0.158  -0.157  -0.150  -0.146  -0.144
 -0.141
 -- Virtual --
  0.094   0.097   0.098   0.104   0.206   0.240   0.244   0.248
  0.249   0.261   0.287   0.288   0.296   0.312   0.323   0.325
  0.332   0.335   0.339   0.345   0.350   0.354   0.358   0.366
  0.370   0.372   0.382   0.385   0.394   0.401   0.403   0.408
  0.411   0.413   0.420   0.421   0.423   0.425   0.430   0.433
  0.434   0.436   0.438   0.439   0.443   0.449   0.451   0.460
  0.467   0.468   0.479   0.484   0.489   0.501   0.518   0.535
  0.548   0.551   0.554   0.626   0.637   0.650   0.656
 --------------------------------------------------------------
 
          Ground-State Mulliken Net Atomic Charges

     Atom                 Charge (a.u.)
  ----------------------------------------
      1 O                    -0.216842
      2 C                     0.203441
      3 C                    -0.078679
      4 C                    -0.078229
      5 C                     0.204925
      6 O                    -0.176313
      7 C                    -0.050648
      8 C                    -0.048085
      9 O                    -0.173933
     10 C                     0.212746
     11 C                    -0.082962
     12 C                    -0.078762
     13 C                     0.213514
     14 O                    -0.207697
     15 O                    -0.161603
     16 O                    -0.173957
     17 O                    -0.187436
     18 C                    -0.128544
     19 C                     0.022877
     20 C                    -0.145646
     21 C                    -0.141717
     22 C                     0.025991
     23 O                    -0.187338
     24 H                     0.078108
     25 H                     0.082533
     26 H                     0.083186
     27 H                     0.079421
     28 H                     0.072813
     29 H                     0.078895
     30 H                     0.074056
     31 H                     0.092159
     32 O                    -0.203416
     33 C                    -0.126821
     34 C                     0.026785
     35 C                    -0.143902
     36 C                    -0.144239
     37 C                     0.026344
     38 O                    -0.182358
     39 H                     0.084753
     40 H                     0.085717
     41 H                     0.087506
     42 H                     0.085208
     43 H                     0.078247
     44 H                     0.073260
     45 H                     0.078505
     46 H                     0.073347
     47 H                     0.086652
     48 H                     0.085749
     49 H                     0.094639
     50 H                     0.089308
     51 H                     0.091657
     52 H                     0.088410
     53 H                     0.093078
     54 H                     0.084240
     55 H                     0.091941
     56 H                     0.089117
  ----------------------------------------
  Sum of atomic charges =    -0.000000

 -----------------------------------------------------------------
                    Cartesian Multipole Moments
 -----------------------------------------------------------------
    Charge (ESU x 10^10)
                 0.0000
    Dipole Moment (Debye)
         X      -1.3337      Y       1.1641      Z       3.3786
       Tot       3.8143
    Quadrupole Moments (Debye-Ang)
        XX    -151.4204     XY     -14.9811     YY    -157.7874
        XZ      13.0707     YZ      -3.9063     ZZ    -163.3594
    Octopole Moments (Debye-Ang^2)
       XXX     -60.9460    XXY      -8.2633    XYY      41.4675
       YYY     -33.3848    XXZ      43.5455    XYZ      29.7807
       YYZ       9.4785    XZZ     -26.4437    YZZ     -20.0441
       ZZZ       3.3343
    Hexadecapole Moments (Debye-Ang^3)
      XXXX  -17880.5345   XXXY    -577.4466   XXYY   -3373.1845
      XYYY     -91.0746   YYYY   -2057.0013   XXXZ     -81.7496
      XXYZ      49.2511   XYYZ     -83.1934   YYYZ     -25.9503
      XXZZ   -3393.9121   XYZZ      50.9909   YYZZ    -676.3481
      XZZZ    -134.3008   YZZZ     -32.3868   ZZZZ   -1906.3907
 -----------------------------------------------------------------
 Calculating analytic gradient of the SCF energy
 Gradient of SCF Energy
            1           2           3           4           5           6
    1   0.0000952  -0.0003513  -0.0010316  -0.0003563  -0.0009869   0.0019781
    2  -0.0001314   0.0000329  -0.0004752   0.0008498   0.0006932  -0.0002961
    3   0.0000632  -0.0004271   0.0000537   0.0000556  -0.0045398   0.0028988
            7           8           9          10          11          12
    1  -0.0008872   0.0011019  -0.0011351   0.0016257  -0.0025595   0.0029545
    2   0.0011601  -0.0014384   0.0010920   0.0014059  -0.0020186   0.0021017
    3  -0.0025498   0.0015317  -0.0015498  -0.0001459   0.0014029  -0.0020606
           13          14          15          16          17          18
    1  -0.0017380   0.0014182  -0.0000935  -0.0005373  -0.0008006  -0.0001516
    2  -0.0016813   0.0008100  -0.0000622  -0.0004271  -0.0012603  -0.0001114
    3   0.0013077  -0.0013304   0.0001333   0.0010649  -0.0002428   0.0001650
           19          20          21          22          23          24
    1   0.0000555  -0.0001341  -0.0000273   0.0000457  -0.0002030   0.0000157
    2   0.0004081  -0.0002649   0.0002779   0.0002478   0.0001338   0.0001738
    3  -0.0000177  -0.0003085   0.0000950  -0.0003780   0.0001288   0.0002007
           25          26          27          28          29          30
    1   0.0005404   0.0000920   0.0000197   0.0000772  -0.0000119  -0.0000079
    2   0.0002327  -0.0000430   0.0000230   0.0000133  -0.0000185  -0.0000829
    3   0.0003515  -0.0000791   0.0000247   0.0001902  -0.0000536  -0.0000039
           31          32          33          34          35          36
    1   0.0000450  -0.0000762   0.0001494   0.0001772  -0.0002920   0.0005669
    2   0.0000400  -0.0006838  -0.0001350  -0.0001949   0.0001235   0.0002092
    3   0.0000155   0.0031494   0.0000225   0.0001258   0.0001325  -0.0000659
           37          38          39          40          41          42
    1  -0.0000670  -0.0000096  -0.0000986   0.0006043   0.0000006   0.0000330
    2  -0.0005917   0.0004389  -0.0000803  -0.0002014   0.0000312   0.0000076
    3   0.0000580  -0.0002410   0.0001473   0.0001066   0.0000003  -0.0000438
           43          44          45          46          47          48
    1   0.0000038   0.0000474   0.0000235  -0.0000668  -0.0000101  -0.0000349
    2   0.0000424  -0.0000456  -0.0000900  -0.0000031   0.0000308   0.0000079
    3  -0.0000446  -0.0000106  -0.0000121   0.0000263  -0.0000670   0.0001514
           49          50          51          52          53          54
    1  -0.0000320   0.0000101   0.0000349   0.0000262  -0.0004253   0.0002926
    2   0.0000398  -0.0000059   0.0000473   0.0000485   0.0004176  -0.0009637
    3   0.0000257   0.0000468  -0.0000053  -0.0000454   0.0007418  -0.0001976
           55          56
    1  -0.0000771   0.0001678
    2   0.0000648   0.0001011
    3  -0.0000463   0.0000491
 Max gradient component =       4.540E-03
 RMS gradient           =       8.528E-04
 Gradient time:  CPU 30.30 s  wall 0.64 s
 Geometry Optimization Parameters
   NAtoms,    NIC,     NZ,  NCons,   NDum,   NFix, NCnnct, MaxDiis
       56     458       0       0       0       0       0       0

 Cartesian Hessian Update
 Hessian Updated using BFGS Update


** GEOMETRY OPTIMIZATION IN DELOCALIZED INTERNAL COORDINATES **
   Searching for a Minimum

   Optimization Cycle:   2

                       Coordinates (Angstroms)
     ATOM                X               Y               Z
      1  O        -2.7397266381    0.5931021815    2.4200012727
      2  C        -3.5422066965   -0.0267506982    1.6871357770
      3  C        -4.6559057499    0.5925306132    0.7748649975
      4  C        -4.2413216951    0.6399694654   -0.7636278439
      5  C        -2.8514272712   -0.0265362992   -1.0592397479
      6  O        -1.8397489959    0.9898177159   -0.9686316019
      7  C        -0.5293359350    0.4536849534   -1.4123956670
      8  C         0.5447241692    1.5485322609   -1.0674938740
      9  O         1.7240582400    1.3763106385   -1.9395984989
     10  C         2.8419925236    0.6343025782   -1.3984914815
     11  C         3.1057167721    0.6916950848    0.1633525607
     12  C         4.2331722046   -0.2939717182    0.6633144656
     13  C         4.4605949393   -1.6076914060   -0.1660128049
     14  O         3.7004970779   -2.1630435933   -0.9858470417
     15  O        -3.5564302022   -1.4486208559    1.5368536770
     16  O         5.7118452263   -2.1628992595    0.2630411984
     17  O         3.6468861731    0.1687653616   -2.2319697775
     18  C         5.9667957737   -3.4376826475   -0.4455320915
     19  C         3.8422410035    2.0837820359    0.4073785886
     20  C         4.0984472438    2.3078763905    1.9523165411
     21  C         5.3622395468    1.3996613866    2.1937159138
     22  C         5.4808285203    0.6918523400    0.7889148415
     23  O         5.1854513547    1.7982311112   -0.1502828756
     24  H         2.1893082165    0.5693781533    0.7610826351
     25  H         3.9659695439   -0.6383358324    1.6809439500
     26  H         3.3777213428    2.9393901395   -0.1210279956
     27  H         4.3110120361    3.3685374354    2.1593319143
     28  H         3.2327021793    1.9974071060    2.5595673461
     29  H         6.2598099444    2.0072709878    2.3922678943
     30  H         5.2268073488    0.6832403649    3.0195426633
     31  H         6.4592977463    0.2271824630    0.5606112549
     32  O        -2.6142185477   -1.2309114227   -1.2904013858
     33  C        -2.4623102895   -2.0558504236    2.3284968046
     34  C        -5.9755595338   -0.2888440711    0.6974883635
     35  C        -7.1341608696    0.6154649262    0.1167880859
     36  C        -6.7274782922    0.6902127850   -1.4020760256
     37  C        -5.4215338226   -0.1979921006   -1.4131534213
     38  O        -5.6976800327   -1.2413848941   -0.4005425446
     39  H        -4.8639429210    1.6098684234    1.1511963690
     40  H        -4.2090335515    1.6816823812   -1.1283884814
     41  H        -2.5632991319   -1.8293785563    3.4097547227
     42  H        -6.2203940566   -0.8332595864    1.6296743422
     43  H        -8.1099810264    0.1218933074    0.2498978097
     44  H        -7.1702312937    1.6058907238    0.5979353036
     45  H        -7.4998120621    0.2457308752   -2.0497158670
     46  H        -6.5327504117    1.7204753789   -1.7403621506
     47  H        -5.1687808171   -0.6629134878   -2.3856107319
     48  H        -1.4685776536   -1.7021594570    1.9854937305
     49  H        -2.5413715393   -3.1465780709    2.1677433271
     50  H         6.9169870683   -3.8290114248   -0.0376470201
     51  H         6.0687230918   -3.2822018422   -1.5391595364
     52  H         5.1553142431   -4.1731175172   -0.2700153918
     53  H         0.1175809185    2.5456633999   -1.3098404877
     54  H         0.7732041046    1.5322136367    0.0140011880
     55  H        -0.5333382545    0.2778419036   -2.5108026544
     56  H        -0.2977240101   -0.5109979270   -0.9113302500
   Point Group: c1    Number of degrees of freedom:   162


   Energy is  -1510.258677191

 Hessian Updated using BFGS Update

149 Hessian modes will be used to form the next step
  Hessian Eigenvalues:
     0.001184    0.002046    0.002683    0.002797    0.003264    0.004101
     0.004327    0.004610    0.004962    0.004996    0.005386    0.006781
     0.006835    0.007222    0.009269    0.011064    0.011693    0.021383
     0.021691    0.025077    0.025296    0.028442    0.030673    0.030966
     0.034873    0.035633    0.037294    0.041260    0.041677    0.042145
     0.043009    0.046457    0.047020    0.047888    0.048827    0.050913
     0.050959    0.052946    0.054090    0.054295    0.054755    0.055634
     0.056274    0.056483    0.057933    0.059287    0.060169    0.060569
     0.060671    0.062263    0.063094    0.063953    0.064123    0.064476
     0.069788    0.070003    0.072923    0.073794    0.090745    0.092804
     0.092867    0.093292    0.096217    0.096678    0.096722    0.097291
     0.102617    0.102734    0.106659    0.109937    0.110153    0.111780
     0.122606    0.127019    0.133990    0.136232    0.157471    0.158702
     0.159995    0.160065    0.164073    0.167652    0.217045    0.219478
     0.220040    0.220517    0.224652    0.230707    0.238247    0.238376
     0.239285    0.239414    0.242511    0.246209    0.246644    0.247394
     0.248645    0.249668    0.249945    0.249948    0.252897    0.252990
     0.258619    0.259116    0.260019    0.262468    0.266322    0.292251
     0.294335    0.307297    0.307638    0.323491    0.324443    0.324590
     0.326677    0.326752    0.326879    0.326954    0.328482    0.329028
     0.329102    0.329195    0.329235    0.330690    0.330840    0.331054
     0.331894    0.332284    0.334561    0.334698    0.334915    0.334956
     0.335027    0.335111    0.335162    0.335315    0.335911    0.341313
     0.344837    0.345116    0.349360    0.386857    0.402334    0.403365
     0.410459    0.828284    0.835685    0.837348    0.838766

 Minimum Search - Taking Simple RFO Step
 Searching for Lamda that Minimizes Along All modes
 Value Taken    Lamda =  -0.00957804
 Calculated Step too Large.  Step scaled by  0.332073
 Step Taken.  Stepsize is  0.300000

                             Maximum     Tolerance    Cnvgd?
         Gradient           0.004809      0.000300      NO
         Displacement       0.100292      0.001200      NO
         Energy change     -0.003076      0.000001      NO


 New Cartesian Coordinates Obtained by Inverse Iteration

 Displacement from previous Coordinates is:  4.533523
 Adding empirical dispersion correction 
 ----------------------------------------------------------------
 Doing -D3(op) with
 s6 =   1.00000
 s8 =   0.78311
 a1 =   0.30000
 a2 =   4.25000
 n  =  10.00000
 -D3 energy without 3body term =     -0.0661479010 hartrees
 ----------------------------------------------------------------
             Standard Nuclear Orientation (Angstroms)
    I     Atom           X                Y                Z
 ----------------------------------------------------------------
    1      O      -2.3954066480     0.8437657866     2.1870534203
    2      C      -3.2260358431     0.1425485605     1.5676856685
    3      C      -4.4499083348     0.6507223091     0.7307303126
    4      C      -4.1771461858     0.6260781311    -0.8390846303
    5      C      -2.7847937122     0.0104315274    -1.2191843418
    6      O      -1.8158075327     1.0703216173    -1.2255139050
    7      C      -0.4775382824     0.5369392108    -1.5797843793
    8      C       0.5561377882     1.6882933188    -1.3018943455
    9      O       1.7840440303     1.4502541307    -2.0867289518
   10      C       2.8407162535     0.6927452753    -1.4531707692
   11      C       2.9474698729     0.6952140779     0.1274370791
   12      C       3.9781835126    -0.3571355392     0.6933642543
   13      C       4.2401185525    -1.6364992459    -0.1777598226
   14      O       3.5236227963    -2.1422833737    -1.0662282914
   15      O      -3.1713589402    -1.2840472838     1.4867962705
   16      O       5.4559653732    -2.2303288815     0.2985668372
   17      O       3.7129451736     0.2262213156    -2.2152872772
   18      C       5.7388245787    -3.4723462910    -0.4563185495
   19      C       3.7054483137     2.0458194953     0.4986999181
   20      C       3.8159881797     2.2006061147     2.0693843037
   21      C       5.0137163267     1.2303157794     2.3945368137
   22      C       5.2431146361     0.5717162278     0.9795645568
   23      O       5.0851004091     1.7247050242     0.0633602281
   24      H       1.9717552565     0.5844508934     0.6251893872
   25      H       3.6035985086    -0.7343361885     1.6642448024
   26      H       3.3278687359     2.9388583707    -0.0371295105
   27      H       4.0475801320     3.2427688971     2.3400807208
   28      H       2.8826587658     1.9044798852     2.5752403578
   29      H       5.9099364170     1.7913993045     2.7047938604
   30      H       4.7698041383     0.4895843910     3.1726417392
   31      H       6.2210352869     0.0758621283     0.8272343185
   32      O      -2.5077196773    -1.1902783288    -1.4233366943
   33      C      -1.9717632061    -1.7908561294     2.1912011122
   34      C      -5.7215839042    -0.2976402543     0.8230505472
   35      C      -6.9748383981     0.5123368959     0.3036319610
   36      C      -6.7107682142     0.5177924154    -1.2479150308
   37      C      -5.3641413968    -0.3040813896    -1.3319693424
   38      O      -5.4915476989    -1.2986003531    -0.2428649034
   39      H      -4.6782816834     1.6773791680     1.0678908986
   40      H      -4.2316470298     1.6460131514    -1.2590506639
   41      H      -1.9781084209    -1.5138074541     3.2653220940
   42      H      -5.8525706364    -0.7974944258     1.8019684226
   43      H      -7.9063017298    -0.0204294376     0.5528500247
   44      H      -7.0220650414     1.5263942452     0.7317483937
   45      H      -7.5129790561    -0.0011519475    -1.7962852113
   46      H      -6.6033707923     1.5348104823    -1.6577428980
   47      H      -5.1744792938    -0.8124806887    -2.2969769425
   48      H      -1.0387229223    -1.4045972846     1.7323162177
   49      H      -2.0039234971    -2.8912027555     2.0904495595
   50      H       6.6588849848    -3.8961804716    -0.0134007175
   51      H       5.9071313032    -3.2650765990    -1.5330364473
   52      H       4.9106072941    -4.2045552019    -0.3655870956
   53      H       0.1299808464     2.6501245079    -1.6598926790
   54      H       0.7294547554     1.7787047292    -0.2137526684
   55      H      -0.4376587665     0.2542512888    -2.6549126452
   56      H      -0.2395781255    -0.3671737146    -0.9787150790
 ----------------------------------------------------------------
 Molecular Point Group                 C1    NOp =  1
 Largest Abelian Subgroup              C1    NOp =  1
 Nuclear Repulsion Energy =  3058.5379218783 hartrees
 There are      113 alpha and      113 beta electrons
 Applying Cartesian multipole field
    Component          Value
    ---------          -----
     (2,0,0)        1.00000E-12
     (0,2,0)        2.00000E-11
     (0,0,2)       -3.00000E-11
 Nucleus-field energy     =     0.0000000010 hartrees
 Requested basis set is STO-3G
 There are 86 shells and 176 basis functions
 A cutoff of  1.0D-12 yielded   2082 shell pairs
 There are      9726 function pairs
 Smallest overlap matrix eigenvalue = 2.13E-01
 Guess MOs from SCF MO coefficient file
 Reading MOs from coefficient file
 Reading MOs from coefficient file
 A restricted hybrid HF-DFT SCF calculation will be
 performed using Pulay DIIS extrapolation
 Exchange:     0.2000 Hartree-Fock + 0.0800 Slater + 0.7200 B88
 Correlation:  0.1900 VWN1RPA + 0.8100 LYP
 Using SG-1 standard quadrature grid
 Dispersion:   Grimme D3
 SCF converges when DIIS error is below 1.0E-08
 Geometry optimization detected.  Setting ReadMinima to 0
 Setting SaveMinima to 0
 using 48 threads for integral computing
 -------------------------------------------------------
 OpenMP Integral computing Module                
 Release: version 1.0, May 2013, Q-Chem Inc. Pittsburgh 
 -------------------------------------------------------
 -------------------------------------------------------
 OpenMP BLAS3 based DFT computing Module                
 Release: version 1.0, May 2013, Q-Chem Inc. Pittsburgh 
 -------------------------------------------------------
 ---------------------------------------
  Cycle       Energy         DIIS Error
 ---------------------------------------
    1   -1510.1090185728      5.37E-03
    2   -1510.2592516305      5.24E-04
    3   -1510.2591075898      6.73E-04
    4   -1510.2608512223      2.55E-04
    5   -1510.2611073481      8.86E-05
    6   -1510.2611419362      2.62E-05
    7   -1510.2611452299      7.87E-06
    8   -1510.2611454315      4.60E-06
    9   -1510.2611455267      8.61E-07
   10   -1510.2611455306      3.45E-07
   11   -1510.2611455313      1.30E-07
   12   -1510.2611455313      7.13E-08
   13   -1510.2611455315      2.13E-08
   14   -1510.2611455315      3.25E-09 Convergence criterion met
 ---------------------------------------
 SCF time:  CPU 97.69 s  wall 2.04 s
 SCF   energy in the final basis set = -1510.26114553
 Total energy in the final basis set = -1510.26114553
 
 --------------------------------------------------------------
 
                    Orbital Energies (a.u.)
 --------------------------------------------------------------
 
 Alpha MOs
 -- Occupied --
-18.938 -18.935 -18.930 -18.928 -18.891 -18.889 -18.880 -18.877
-18.876 -18.874 -10.101 -10.101 -10.099 -10.099 -10.079 -10.074
-10.067 -10.065 -10.062 -10.061 -10.061 -10.060 -10.042 -10.041
-10.040 -10.039 -10.025 -10.022 -10.022 -10.021  -1.017  -1.011
 -1.010  -1.002  -0.973  -0.971  -0.942  -0.938  -0.936  -0.930
 -0.766  -0.765  -0.727  -0.724  -0.714  -0.709  -0.702  -0.663
 -0.660  -0.614  -0.602  -0.588  -0.549  -0.547  -0.542  -0.539
 -0.518  -0.516  -0.486  -0.478  -0.469  -0.462  -0.459  -0.444
 -0.437  -0.434  -0.430  -0.416  -0.414  -0.410  -0.408  -0.401
 -0.399  -0.381  -0.377  -0.373  -0.367  -0.359  -0.357  -0.352
 -0.347  -0.345  -0.333  -0.333  -0.330  -0.328  -0.317  -0.310
 -0.310  -0.308  -0.303  -0.300  -0.299  -0.292  -0.284  -0.280
 -0.275  -0.259  -0.253  -0.252  -0.241  -0.236  -0.235  -0.183
 -0.177  -0.177  -0.170  -0.159  -0.157  -0.152  -0.145  -0.144
 -0.142
 -- Virtual --
  0.093   0.097   0.098   0.105   0.206   0.239   0.244   0.246
  0.249   0.261   0.286   0.287   0.296   0.311   0.323   0.325
  0.332   0.335   0.339   0.344   0.351   0.353   0.358   0.365
  0.371   0.371   0.382   0.385   0.395   0.401   0.404   0.407
  0.411   0.413   0.418   0.420   0.423   0.425   0.427   0.432
  0.434   0.435   0.437   0.439   0.444   0.448   0.453   0.461
  0.466   0.468   0.480   0.484   0.488   0.500   0.517   0.534
  0.547   0.550   0.551   0.626   0.636   0.649   0.656
 --------------------------------------------------------------
 
          Ground-State Mulliken Net Atomic Charges

     Atom                 Charge (a.u.)
  ----------------------------------------
      1 O                    -0.217365
      2 C                     0.203446
      3 C                    -0.078668
      4 C                    -0.078076
      5 C                     0.204874
      6 O                    -0.175696
      7 C                    -0.050630
      8 C                    -0.048008
      9 O                    -0.173039
     10 C                     0.212759
     11 C                    -0.083425
     12 C                    -0.078907
     13 C                     0.213788
     14 O                    -0.208405
     15 O                    -0.161501
     16 O                    -0.173673
     17 O                    -0.188671
     18 C                    -0.128504
     19 C                     0.022862
     20 C                    -0.145617
     21 C                    -0.141798
     22 C                     0.025838
     23 O                    -0.187393
     24 H                     0.078167
     25 H                     0.082406
     26 H                     0.082957
     27 H                     0.079456
     28 H                     0.073156
     29 H                     0.078862
     30 H                     0.073844
     31 H                     0.092593
     32 O                    -0.203782
     33 C                    -0.126658
     34 C                     0.026707
     35 C                    -0.143878
     36 C                    -0.144239
     37 C                     0.026269
     38 O                    -0.182449
     39 H                     0.084879
     40 H                     0.085798
     41 H                     0.087652
     42 H                     0.085088
     43 H                     0.078317
     44 H                     0.073277
     45 H                     0.078552
     46 H                     0.073378
     47 H                     0.087003
     48 H                     0.084278
     49 H                     0.095233
     50 H                     0.089247
     51 H                     0.091946
     52 H                     0.088371
     53 H                     0.094570
     54 H                     0.084557
     55 H                     0.092855
     56 H                     0.087395
  ----------------------------------------
  Sum of atomic charges =    -0.000000

 -----------------------------------------------------------------
                    Cartesian Multipole Moments
 -----------------------------------------------------------------
    Charge (ESU x 10^10)
                 0.0000
    Dipole Moment (Debye)
         X      -1.7400      Y       1.0778      Z       3.3684
       Tot       3.9415
    Quadrupole Moments (Debye-Ang)
        XX    -153.4141     XY     -15.1981     YY    -158.4012
        XZ      12.7967     YZ      -3.6137     ZZ    -162.7357
    Octopole Moments (Debye-Ang^2)
       XXX     -86.5481    XXY     -14.1744    XYY      41.2752
       YYY     -36.3657    XXZ      39.8159    XYZ      24.3046
       YYZ       6.8841    XZZ     -28.6819    YZZ     -19.2722
       ZZZ      11.5577
    Hexadecapole Moments (Debye-Ang^3)
      XXXX  -16621.0190   XXXY    -472.1107   XXYY   -3146.0771
      XYYY     -31.5163   YYYY   -2006.3616   XXXZ    -111.1631
      XXYZ      53.2559   XYYZ     -91.2876   YYYZ     -42.7569
      XXZZ   -3177.4438   XYZZ      67.4553   YYZZ    -686.6899
      XZZZ    -180.1583   YZZZ     -44.0108   ZZZZ   -1982.1900
 -----------------------------------------------------------------
 Calculating analytic gradient of the SCF energy
 Gradient of SCF Energy
            1           2           3           4           5           6
    1  -0.0000123  -0.0005300  -0.0006550  -0.0000598  -0.0010791   0.0015344
    2   0.0003636  -0.0004176  -0.0001128   0.0003907   0.0004272   0.0004821
    3  -0.0003017   0.0003795  -0.0004307   0.0019546  -0.0053362   0.0010014
            7           8           9          10          11          12
    1   0.0000460   0.0003018  -0.0014003   0.0029391  -0.0007602   0.0012085
    2   0.0000001   0.0015654  -0.0008311   0.0016264  -0.0011314   0.0005344
    3  -0.0013828  -0.0002942  -0.0004052   0.0001570   0.0004727  -0.0009716
           13          14          15          16          17          18
    1  -0.0022068   0.0017747  -0.0001234  -0.0005275  -0.0010401  -0.0001148
    2  -0.0009201   0.0008832  -0.0000165  -0.0003134  -0.0018357  -0.0000592
    3   0.0009217  -0.0013536   0.0000655   0.0011863  -0.0001262   0.0000805
           19          20          21          22          23          24
    1   0.0000845  -0.0000266   0.0003831  -0.0008637  -0.0002960   0.0006315
    2   0.0006955   0.0001412   0.0001342  -0.0004002   0.0005483  -0.0002876
    3  -0.0004477  -0.0000562   0.0003977  -0.0007092   0.0001391   0.0005270
           25          26          27          28          29          30
    1   0.0009389   0.0000254   0.0000092   0.0000728   0.0000535  -0.0000322
    2   0.0004182   0.0000409   0.0000276  -0.0000825   0.0000225  -0.0001082
    3   0.0005259  -0.0000977  -0.0000479   0.0000229  -0.0000118  -0.0001108
           31          32          33          34          35          36
    1   0.0001183   0.0001981   0.0002296  -0.0002544  -0.0000693   0.0003208
    2   0.0001075  -0.0005154  -0.0000661  -0.0002633  -0.0001716   0.0001295
    3  -0.0000284   0.0028892  -0.0000216   0.0003586  -0.0000816   0.0003310
           37          38          39          40          41          42
    1  -0.0000713   0.0001925  -0.0000692   0.0006971  -0.0000168  -0.0000233
    2  -0.0004981   0.0002391  -0.0000125  -0.0000135  -0.0000431  -0.0000031
    3  -0.0005508  -0.0002351   0.0001374   0.0001532  -0.0000051  -0.0000237
           43          44          45          46          47          48
    1  -0.0000021   0.0001012  -0.0000441  -0.0000942  -0.0000489  -0.0000366
    2   0.0000386  -0.0000273  -0.0000109   0.0000363   0.0000488   0.0000232
    3  -0.0000140  -0.0000005   0.0000210   0.0000193  -0.0000093   0.0000145
           49          50          51          52          53          54
    1  -0.0000945  -0.0000054   0.0000666   0.0000052  -0.0008685  -0.0002402
    2  -0.0000288  -0.0000053  -0.0000174   0.0000456   0.0009945  -0.0020244
    3   0.0000240  -0.0000022  -0.0000524  -0.0000389   0.0015842  -0.0006044
           55          56
    1   0.0000338  -0.0003000
    2  -0.0000848   0.0003373
    3  -0.0000343   0.0004215
 Max gradient component =       5.336E-03
 RMS gradient           =       7.929E-04
 Gradient time:  CPU 29.34 s  wall 0.62 s
 Geometry Optimization Parameters
   NAtoms,    NIC,     NZ,  NCons,   NDum,   NFix, NCnnct, MaxDiis
       56     458       0       0       0       0       0       0

 Cartesian Hessian Update
 Hessian Updated using BFGS Update


** GEOMETRY OPTIMIZATION IN DELOCALIZED INTERNAL COORDINATES **
   Searching for a Minimum

   Optimization Cycle:   3

                       Coordinates (Angstroms)
     ATOM                X               Y               Z
      1  O        -2.3954066480    0.8437657866    2.1870534203
      2  C        -3.2260358431    0.1425485605    1.5676856685
      3  C        -4.4499083348    0.6507223091    0.7307303126
      4  C        -4.1771461858    0.6260781311   -0.8390846303
      5  C        -2.7847937122    0.0104315274   -1.2191843418
      6  O        -1.8158075327    1.0703216173   -1.2255139050
      7  C        -0.4775382824    0.5369392108   -1.5797843793
      8  C         0.5561377882    1.6882933188   -1.3018943455
      9  O         1.7840440303    1.4502541307   -2.0867289518
     10  C         2.8407162535    0.6927452753   -1.4531707692
     11  C         2.9474698729    0.6952140779    0.1274370791
     12  C         3.9781835126   -0.3571355392    0.6933642543
     13  C         4.2401185525   -1.6364992459   -0.1777598226
     14  O         3.5236227963   -2.1422833737   -1.0662282914
     15  O        -3.1713589402   -1.2840472838    1.4867962705
     16  O         5.4559653732   -2.2303288815    0.2985668372
     17  O         3.7129451736    0.2262213156   -2.2152872772
     18  C         5.7388245787   -3.4723462910   -0.4563185495
     19  C         3.7054483137    2.0458194953    0.4986999181
     20  C         3.8159881797    2.2006061147    2.0693843037
     21  C         5.0137163267    1.2303157794    2.3945368137
     22  C         5.2431146361    0.5717162278    0.9795645568
     23  O         5.0851004091    1.7247050242    0.0633602281
     24  H         1.9717552565    0.5844508934    0.6251893872
     25  H         3.6035985086   -0.7343361885    1.6642448024
     26  H         3.3278687359    2.9388583707   -0.0371295105
     27  H         4.0475801320    3.2427688971    2.3400807208
     28  H         2.8826587658    1.9044798852    2.5752403578
     29  H         5.9099364170    1.7913993045    2.7047938604
     30  H         4.7698041383    0.4895843910    3.1726417392
     31  H         6.2210352869    0.0758621283    0.8272343185
     32  O        -2.5077196773   -1.1902783288   -1.4233366943
     33  C        -1.9717632061   -1.7908561294    2.1912011122
     34  C        -5.7215839042   -0.2976402543    0.8230505472
     35  C        -6.9748383981    0.5123368959    0.3036319610
     36  C        -6.7107682142    0.5177924154   -1.2479150308
     37  C        -5.3641413968   -0.3040813896   -1.3319693424
     38  O        -5.4915476989   -1.2986003531   -0.2428649034
     39  H        -4.6782816834    1.6773791680    1.0678908986
     40  H        -4.2316470298    1.6460131514   -1.2590506639
     41  H        -1.9781084209   -1.5138074541    3.2653220940
     42  H        -5.8525706364   -0.7974944258    1.8019684226
     43  H        -7.9063017298   -0.0204294376    0.5528500247
     44  H        -7.0220650414    1.5263942452    0.7317483937
     45  H        -7.5129790561   -0.0011519475   -1.7962852113
     46  H        -6.6033707923    1.5348104823   -1.6577428980
     47  H        -5.1744792938   -0.8124806887   -2.2969769425
     48  H        -1.0387229223   -1.4045972846    1.7323162177
     49  H        -2.0039234971   -2.8912027555    2.0904495595
     50  H         6.6588849848   -3.8961804716   -0.0134007175
     51  H         5.9071313032   -3.2650765990   -1.5330364473
     52  H         4.9106072941   -4.2045552019   -0.3655870956
     53  H         0.1299808464    2.6501245079   -1.6598926790
     54  H         0.7294547554    1.7787047292   -0.2137526684
     55  H        -0.4376587665    0.2542512888   -2.6549126452
     56  H        -0.2395781255   -0.3671737146   -0.9787150790
   Point Group: c1    Number of degrees of freedom:   162


   Energy is  -1510.261145531

 Hessian Updated using BFGS Update

152 Hessian modes will be used to form the next step
  Hessian Eigenvalues:
     0.001398    0.002039    0.002067    0.002666    0.002817    0.002969
     0.004247    0.004585    0.004673    0.004962    0.004996    0.005486
     0.006792    0.006830    0.007321    0.011058    0.011575    0.017064
     0.021411    0.021795    0.025017    0.026554    0.030672    0.030926
     0.032542    0.034897    0.035600    0.039170    0.041293    0.041682
     0.042204    0.043650    0.046587    0.047854    0.048385    0.050816
     0.050921    0.052516    0.053508    0.054265    0.054605    0.054937
     0.055688    0.056459    0.056845    0.057889    0.059820    0.060156
     0.060566    0.061426    0.062965    0.063318    0.063952    0.064407
     0.064505    0.069790    0.070053    0.072931    0.073832    0.090852
     0.092801    0.092867    0.093283    0.096195    0.096714    0.096730
     0.097384    0.102618    0.102729    0.106696    0.109917    0.111042
     0.112313    0.122689    0.125367    0.134025    0.136045    0.156992
     0.158352    0.159997    0.160042    0.160064    0.163998    0.167410
     0.216954    0.219537    0.220344    0.223589    0.224558    0.231262
     0.238278    0.238362    0.239271    0.239453    0.242245    0.245916
     0.246341    0.246725    0.248648    0.249687    0.249945    0.249949
     0.252880    0.252977    0.257725    0.258635    0.259831    0.262214
     0.262617    0.287410    0.294076    0.296469    0.307281    0.307646
     0.323490    0.324441    0.324848    0.326679    0.326761    0.326876
     0.326953    0.328499    0.329039    0.329105    0.329198    0.329233
     0.330690    0.331048    0.331878    0.332122    0.332357    0.334565
     0.334714    0.334918    0.334955    0.335027    0.335111    0.335157
     0.335314    0.336376    0.341337    0.344826    0.345130    0.350564
     0.390391    0.401084    0.403337    0.410465    0.828283    0.835683
     0.837351    0.838703

 Minimum Search - Taking Simple RFO Step
 Searching for Lamda that Minimizes Along All modes
 Value Taken    Lamda =  -0.00805247
 Calculated Step too Large.  Step scaled by  0.337837
 Step Taken.  Stepsize is  0.300000

                             Maximum     Tolerance    Cnvgd?
         Gradient           0.006565      0.000300      NO
         Displacement       0.141637      0.001200      NO
         Energy change     -0.002468      0.000001      NO


 New Cartesian Coordinates Obtained by Inverse Iteration

 Displacement from previous Coordinates is:  4.573558
 Adding empirical dispersion correction 
 ----------------------------------------------------------------
 Doing -D3(op) with
 s6 =   1.00000
 s8 =   0.78311
 a1 =   0.30000
 a2 =   4.25000
 n  =  10.00000
 -D3 energy without 3body term =     -0.0671799376 hartrees
 ----------------------------------------------------------------
             Standard Nuclear Orientation (Angstroms)
    I     Atom           X                Y                Z
 ----------------------------------------------------------------
    1      O      -2.1455843007     1.1687145478     1.9900541529
    2      C      -2.9764255641     0.3803942036     1.4865743872
    3      C      -4.2675400161     0.7577140615     0.6812555827
    4      C      -4.0846785062     0.5855406084    -0.8919541075
    5      C      -2.6891374343    -0.0089534117    -1.2905471553
    6      O      -1.7641544233     1.0815039021    -1.4114892834
    7      C      -0.4024836963     0.5670098605    -1.6973722011
    8      C       0.5848262258     1.7756661417    -1.5092849958
    9      O       1.8475621293     1.5071290888    -2.2244575844
   10      C       2.8541481870     0.7446514884    -1.5223252302
   11      C       2.7834378634     0.6340182288     0.0556972213
   12      C       3.7585077675    -0.4563315526     0.6477334713
   13      C       4.1331115305    -1.6543945685    -0.2951459521
   14      O       3.4894166029    -2.1233470982    -1.2567581060
   15      O      -2.8686093501    -1.0443916641     1.5426355688
   16      O       5.3275293099    -2.2515665170     0.2285870669
   17      O       3.8147371183     0.3426406136    -2.2114890568
   18      C       5.6985944983    -3.4315501199    -0.5854098223
   19      C       3.4745051067     1.9544566699     0.6130890262
   20      C       3.4103158524     1.9831562378     2.1936333518
   21      C       4.5798467645     0.9969240824     2.5703613994
   22      C       4.9716847296     0.4548870733     1.1417785895
   23      O       4.8977483728     1.6762930557     0.3076306552
   24      H       1.7591733751     0.4765022623     0.4281744890
   25      H       3.2895961382    -0.9156194124     1.5388844932
   26      H       3.1449254705     2.8851061122     0.1106360678
   27      H       3.5955941350     3.0015710370     2.5698124030
   28      H       2.4315221545     1.6421227830     2.5684338777
   29      H       5.4283683738     1.5371688851     3.0201898443
   30      H       4.2640197496     0.1950591572     3.2566504975
   31      H       5.9673038800    -0.0215636971     1.0579671208
   32      O      -2.3733433832    -1.2103531396    -1.4208282474
   33      C      -1.6150425742    -1.4368576293     2.2254415126
   34      C      -5.4919543985    -0.2208826187     0.9419867178
   35      C      -6.8052427811     0.4862433353     0.4202421338
   36      C      -6.6298846557     0.3426064088    -1.1372390143
   37      C      -5.2557700180    -0.4330552502    -1.2195190803
   38      O      -5.2801361501    -1.3160803011    -0.0311790522
   39      H      -4.5189324066     1.8041646822     0.9292267454
   40      H      -4.2072565314     1.5572246760    -1.4025258821
   41      H      -1.5762985309    -1.0541990053     3.2659079543
   42      H      -5.5475662083    -0.6233065263     1.9716450563
   43      H      -7.6978173588    -0.0520053609     0.7768669206
   44      H      -6.8716238817     1.5363524413     0.7470015857
   45      H      -7.4388049550    -0.2588063773    -1.5817250629
   46      H      -6.5889119070     1.3156471741    -1.6522989605
   47      H      -5.0982500673    -1.0293399817    -2.1389673115
   48      H      -0.7231813968    -1.0669779163     1.6794249869
   49      H      -1.6086374259    -2.5422481594     2.2347902622
   50      H       6.5977046199    -3.8620308973    -0.1072801241
   51      H       5.9351135274    -3.1467174811    -1.6311020745
   52      H       4.8881514600    -4.1887256684    -0.6031891044
   53      H       0.1472685859     2.6861922113    -1.9708950178
   54      H       0.7202815214     1.9748573054    -0.4296338807
   55      H      -0.3311607705     0.1826398079    -2.7387662656
   56      H      -0.1449191057    -0.2655283719    -1.0074202811
 ----------------------------------------------------------------
 Molecular Point Group                 C1    NOp =  1
 Largest Abelian Subgroup              C1    NOp =  1
 Nuclear Repulsion Energy =  3092.2252022380 hartrees
 There are      113 alpha and      113 beta electrons
 Applying Cartesian multipole field
    Component          Value
    ---------          -----
     (2,0,0)        1.00000E-12
     (0,2,0)        2.00000E-11
     (0,0,2)       -3.00000E-11
 Nucleus-field energy     =    -0.0000000049 hartrees
 Requested basis set is STO-3G
 There are 86 shells and 176 basis functions
 A cutoff of  1.0D-12 yielded   2155 shell pairs
 There are     10075 function pairs
 Smallest overlap matrix eigenvalue = 2.13E-01
 Guess MOs from SCF MO coefficient file
 Reading MOs from coefficient file
 Reading MOs from coefficient file
 A restricted hybrid HF-DFT SCF calculation will be
 performed using Pulay DIIS extrapolation
[...]
      6  O        -0.8562618624    0.8683592482   -1.5846895760
      7  C        -0.2122037087    0.6075147664   -2.8951603538
      8  C         1.0873492417    1.4963233732   -2.9747180085
      9  O         2.3408720018    0.7273749109   -2.8364193938
     10  C         2.6144913265    0.1954364146   -1.5296897466
     11  C         1.7567432545    0.6487105334   -0.2930628634
     12  C         2.0795304214   -0.2390118151    0.9771912624
     13  C         2.9134287599   -1.5226655581    0.6445332831
     14  O         2.4312809574   -2.5717608998    0.1414955601
     15  O        -1.3411329427   -1.6395260522   -0.3766003013
     16  O         4.2441215134   -1.4260490560    1.1469844018
     17  O         3.5900721766   -0.5888861387   -1.4497345774
     18  C         5.0016559052   -2.6465227271    0.7887679774
     19  C         2.2478818446    2.0714471686    0.2231718433
     20  C         1.2144596744    2.5762318438    1.3088888317
     21  C         1.6345389875    1.7097429730    2.5536858162
     22  C         2.7771842197    0.8163384529    1.9276069352
     23  O         3.4629985309    1.7475877001    1.0001769203
     24  H         0.6754021691    0.6524485372   -0.5490776612
     25  H         1.1361426849   -0.6173036112    1.4262547142
     26  H         2.4864877833    2.8026972564   -0.5733169850
     27  H         1.3415963233    3.6538160187    1.4989468117
     28  H         0.1746040131    2.3903212504    0.9947513582
     29  H         2.0361534309    2.3386702842    3.3640354949
     30  H         0.8053289395    1.1028423813    2.9512344769
     31  H         3.4985213909    0.3849657008    2.6472832667
     32  O        -2.7052514286   -0.2550598292   -2.5550643334
     33  C        -0.3859617715   -2.7692220582   -0.5415220406
     34  C        -3.7223382269   -0.6537367495    1.6016099152
     35  C        -4.6743504933    0.4738265482    2.1657168242
     36  C        -5.1994367779    1.1249627115    0.8321492455
     37  C        -4.4178831971    0.2765082989   -0.2445361214
     38  O        -4.3787471461   -1.0806707725    0.3483423609
     39  H        -2.0008448551    0.7684350849    1.8157271952
     40  H        -2.8053982555    1.8290699507   -0.1365734566
     41  H        -0.7333568693   -3.6382315516    0.0525669113
     42  H        -3.5646340886   -1.5176949151    2.2762524570
     43  H        -5.4948569823    0.0269029336    2.7492386915
     44  H        -4.1338825811    1.1888904493    2.8064562539
     45  H        -6.2859933260    0.9847031309    0.7159615612
     46  H        -4.9722496173    2.2007467452    0.7627496563
     47  H        -4.8659623781    0.2408931890   -1.2565960819
     48  H         0.6768463621   -2.5320146617   -0.2501374351
     49  H        -0.4350726582   -3.0281474326   -1.6148621013
     50  H         6.0052443657   -2.5255060244    1.2360314611
     51  H         5.0931724979   -2.7479482849   -0.3119251493
     52  H         4.5189221888   -3.5602843963    1.1918306159
     53  H         1.1588403506    1.9437597515   -3.9868441281
     54  H         1.0073322520    2.3225515744   -2.2366540938
     55  H        -0.9132213376    0.8623865940   -3.7181379255
     56  H         0.0558046069   -0.4677044542   -2.9972454448
   Point Group: c1    Number of degrees of freedom:   162


   Energy is  -1510.293881358

 Hessian Updated using BFGS Update

162 Hessian modes will be used to form the next step
  Hessian Eigenvalues:
     0.001983    0.002664    0.003167    0.004525    0.004875    0.005412
     0.005590    0.007515    0.008266    0.011198    0.013792    0.015163
     0.018580    0.021587    0.022250    0.023807    0.027658    0.027878
     0.030952    0.031551    0.031769    0.033666    0.035714    0.036689
     0.038852    0.040109    0.041332    0.043005    0.043545    0.044542
     0.045277    0.047866    0.050137    0.051063    0.051991    0.052515
     0.053885    0.054502    0.055143    0.056066    0.056555    0.057154
     0.057429    0.058860    0.060428    0.061396    0.062673    0.063740
     0.063983    0.064204    0.064766    0.065807    0.067586    0.070142
     0.070296    0.071673    0.073104    0.075281    0.085064    0.092150
     0.092746    0.093249    0.096570    0.100052    0.100747    0.102167
     0.102762    0.103217    0.104648    0.107061    0.111660    0.115953
     0.119098    0.128200    0.134091    0.142518    0.147342    0.157342
     0.159729    0.160105    0.160258    0.161477    0.161582    0.165555
     0.172071    0.181829    0.193112    0.207274    0.209270    0.219957
     0.229057    0.233370    0.236989    0.239209    0.240064    0.241779
     0.243593    0.246640    0.248250    0.249830    0.251319    0.251625
     0.253140    0.254867    0.256826    0.258773    0.259888    0.261157
     0.262462    0.271482    0.274168    0.279363    0.292344    0.293303
     0.294921    0.301582    0.307753    0.319174    0.321711    0.324272
     0.325923    0.326775    0.326939    0.327069    0.328376    0.329074
     0.329192    0.329297    0.329539    0.330697    0.331015    0.331906
     0.331993    0.332499    0.334672    0.334889    0.334961    0.335040
     0.335131    0.335240    0.335484    0.337123    0.338656    0.344596
     0.346459    0.350804    0.360783    0.367940    0.377181    0.387584
     0.403379    0.409308    0.422268    0.521429    0.757555    0.822547
     0.835666    0.842079    0.849457    1.033724    1.954906    6.710603

 Minimum Search - Taking Simple RFO Step
 Searching for Lamda that Minimizes Along All modes
 Value Taken    Lamda =   0.00000000
 Step Taken.  Stepsize is  0.005476

                             Maximum     Tolerance    Cnvgd?
         Gradient           0.000293      0.000300     YES
         Displacement       0.002147      0.001200      NO
         Energy change     -0.000000      0.000001     YES

 Final energy is   -1510.29388135771     


 ******************************
 **  OPTIMIZATION CONVERGED  **
 ******************************

                       Coordinates (Angstroms)
     ATOM                X               Y               Z
      1  O        -0.4485965917   -1.4037390075    1.8043038035
      2  C        -1.2645526426   -1.0604523204    0.9130770664
      3  C        -2.3752321209    0.0285236168    1.0859576836
      4  C        -2.8974068745    0.7316514360   -0.2341173194
      5  C        -2.1905321889    0.3168229043   -1.5727852706
      6  O        -0.8562618624    0.8683592482   -1.5846895760
      7  C        -0.2122037087    0.6075147664   -2.8951603538
      8  C         1.0873492417    1.4963233732   -2.9747180085
      9  O         2.3408720018    0.7273749109   -2.8364193938
     10  C         2.6144913265    0.1954364146   -1.5296897466
     11  C         1.7567432545    0.6487105334   -0.2930628634
     12  C         2.0795304214   -0.2390118151    0.9771912624
     13  C         2.9134287599   -1.5226655581    0.6445332831
     14  O         2.4312809574   -2.5717608998    0.1414955601
     15  O        -1.3411329427   -1.6395260522   -0.3766003013
     16  O         4.2441215134   -1.4260490560    1.1469844018
     17  O         3.5900721766   -0.5888861387   -1.4497345774
     18  C         5.0016559052   -2.6465227271    0.7887679774
     19  C         2.2478818446    2.0714471686    0.2231718433
     20  C         1.2144596744    2.5762318438    1.3088888317
     21  C         1.6345389875    1.7097429730    2.5536858162
     22  C         2.7771842197    0.8163384529    1.9276069352
     23  O         3.4629985309    1.7475877001    1.0001769203
     24  H         0.6754021691    0.6524485372   -0.5490776612
     25  H         1.1361426849   -0.6173036112    1.4262547142
     26  H         2.4864877833    2.8026972564   -0.5733169850
     27  H         1.3415963233    3.6538160187    1.4989468117
     28  H         0.1746040131    2.3903212504    0.9947513582
     29  H         2.0361534309    2.3386702842    3.3640354949
     30  H         0.8053289395    1.1028423813    2.9512344769
     31  H         3.4985213909    0.3849657008    2.6472832667
     32  O        -2.7052514286   -0.2550598292   -2.5550643334
     33  C        -0.3859617715   -2.7692220582   -0.5415220406
     34  C        -3.7223382269   -0.6537367495    1.6016099152
     35  C        -4.6743504933    0.4738265482    2.1657168242
     36  C        -5.1994367779    1.1249627115    0.8321492455
     37  C        -4.4178831971    0.2765082989   -0.2445361214
     38  O        -4.3787471461   -1.0806707725    0.3483423609
     39  H        -2.0008448551    0.7684350849    1.8157271952
     40  H        -2.8053982555    1.8290699507   -0.1365734566
     41  H        -0.7333568693   -3.6382315516    0.0525669113
     42  H        -3.5646340886   -1.5176949151    2.2762524570
     43  H        -5.4948569823    0.0269029336    2.7492386915
     44  H        -4.1338825811    1.1888904493    2.8064562539
     45  H        -6.2859933260    0.9847031309    0.7159615612
     46  H        -4.9722496173    2.2007467452    0.7627496563
     47  H        -4.8659623781    0.2408931890   -1.2565960819
     48  H         0.6768463621   -2.5320146617   -0.2501374351
     49  H        -0.4350726582   -3.0281474326   -1.6148621013
     50  H         6.0052443657   -2.5255060244    1.2360314611
     51  H         5.0931724979   -2.7479482849   -0.3119251493
     52  H         4.5189221888   -3.5602843963    1.1918306159
     53  H         1.1588403506    1.9437597515   -3.9868441281
     54  H         1.0073322520    2.3225515744   -2.2366540938
     55  H        -0.9132213376    0.8623865940   -3.7181379255
     56  H         0.0558046069   -0.4677044542   -2.9972454448

Z-matrix Print:
$molecule
0 1
O 
C  1 1.443818
O  2 1.247741 1 123.354220
C  1 1.483302 2 109.960319 3 -1.880759 0
H  4 1.110710 1 109.889953 2 46.747895 0
H  4 1.112810 1 110.826222 2 -72.297079 0
C  2 1.569645 1 108.798923 3 -172.481686 0
H  7 1.105580 2 107.463491 1 52.312676 0
C  4 1.576435 1 107.660791 2 167.394008 0
H  9 1.108923 4 109.068436 1 -137.528985 0
H  9 1.110763 4 109.054309 1 -19.657120 0
O  9 1.477067 4 113.663264 1 107.026460 0
C  12 1.437139 9 116.065710 4 -70.548962 0
O  13 1.254318 12 115.943732 9 171.711175 0
C  13 1.571762 12 120.314083 9 -10.938127 0
H  15 1.111241 13 110.533048 12 44.860910 0
C  15 1.582968 13 110.998564 12 170.617192 0
H  17 1.111190 15 110.004275 13 -129.711991 0
C  17 1.566466 15 113.433888 13 -12.455680 0
O  19 1.259410 17 124.307566 15 -78.153439 0
O  19 1.425670 17 111.500063 15 109.814657 0
C  21 1.480450 19 109.661274 17 -178.944582 0
H  22 1.105387 21 106.046105 19 -177.973014 0
H  22 1.109138 21 110.960824 19 62.995533 0
H  22 1.109257 21 111.623145 19 -58.458961 0
C  17 1.582332 15 101.412057 13 112.716578 0
H  26 1.106501 17 114.713065 15 -152.628093 0
O  26 1.482462 17 104.310434 15 -31.613218 0
C  28 1.478219 26 94.944204 17 55.027750 0
H  29 1.107273 28 110.221738 26 179.127001 0
C  26 1.579805 17 107.236355 15 77.336319 0
H  31 1.101594 26 110.530194 17 169.498703 0
H  31 1.101800 26 112.075672 17 47.859305 0
C  31 1.573782 26 101.008995 17 -72.485435 0
H  34 1.101578 31 111.796597 26 -120.836826 0
H  34 1.102064 31 112.608761 26 116.242544 0
C  7 1.584189 2 116.418431 1 -71.317705 0
H  37 1.104626 7 111.402913 2 120.681293 0
C  37 1.565045 7 116.788875 2 -3.172858 0
O  39 1.256151 37 124.943386 7 155.996466 0
O  39 1.415789 37 110.293677 7 -26.133637 0
C  41 1.488544 39 112.124839 37 -174.644362 0
H  42 1.105221 41 104.885137 39 -171.799407 0
H  42 1.108514 41 109.540942 39 71.529991 0
H  42 1.127268 41 114.623337 39 -51.045501 0
C  7 1.587171 2 110.489256 1 174.046834 0
H  46 1.107388 7 113.756223 2 -29.431205 0
O  46 1.481544 7 103.577444 2 90.322340 0
C  48 1.477777 46 94.960089 7 56.519151 0
H  49 1.107446 48 110.763288 46 179.739300 0
C  46 1.577958 7 108.409836 2 -160.253029 0
H  51 1.101699 46 112.328968 7 47.127985 0
H  51 1.101716 46 110.369119 7 168.642746 0
C  51 1.574197 46 100.976913 7 -73.366923 0
H  54 1.101576 51 111.599055 46 -118.971091 0
H  54 1.101803 51 112.818977 46 118.297575 0
$end

 
 --------------------------------------------------------------
 
                    Orbital Energies (a.u.)
 --------------------------------------------------------------
 
 Alpha MOs
 -- Occupied --
-18.947 -18.945 -18.940 -18.926 -18.896 -18.886 -18.883 -18.883
-18.881 -18.857 -10.113 -10.110 -10.103 -10.093 -10.088 -10.084
-10.068 -10.065 -10.059 -10.053 -10.051 -10.048 -10.047 -10.040
-10.027 -10.026 -10.025 -10.020 -10.016 -10.015  -1.026  -1.016
 -1.012  -0.998  -0.978  -0.966  -0.950  -0.943  -0.941  -0.923
 -0.772  -0.757  -0.733  -0.721  -0.717  -0.709  -0.702  -0.655
 -0.651  -0.623  -0.598  -0.592  -0.553  -0.545  -0.543  -0.535
 -0.521  -0.511  -0.495  -0.482  -0.475  -0.466  -0.456  -0.444
 -0.435  -0.430  -0.427  -0.413  -0.411  -0.407  -0.404  -0.402
 -0.399  -0.392  -0.378  -0.377  -0.364  -0.363  -0.357  -0.355
 -0.349  -0.340  -0.332  -0.331  -0.329  -0.325  -0.316  -0.315
 -0.314  -0.313  -0.308  -0.306  -0.302  -0.290  -0.285  -0.276
 -0.268  -0.260  -0.251  -0.249  -0.241  -0.238  -0.229  -0.190
 -0.183  -0.179  -0.166  -0.164  -0.158  -0.152  -0.152  -0.141
 -0.136
 -- Virtual --
  0.081   0.091   0.099   0.118   0.216   0.234   0.242   0.251
  0.257   0.260   0.278   0.284   0.294   0.297   0.314   0.327
  0.330   0.338   0.342   0.346   0.349   0.355   0.361   0.363
  0.371   0.376   0.381   0.389   0.394   0.397   0.406   0.410
  0.410   0.419   0.423   0.427   0.432   0.434   0.436   0.438
  0.440   0.445   0.450   0.452   0.455   0.462   0.462   0.467
  0.476   0.484   0.487   0.492   0.497   0.509   0.524   0.533
  0.545   0.557   0.562   0.623   0.630   0.635   0.648
 --------------------------------------------------------------
 
          Ground-State Mulliken Net Atomic Charges

     Atom                 Charge (a.u.)
  ----------------------------------------
      1 O                    -0.219355
      2 C                     0.214958
      3 C                    -0.079885
      4 C                    -0.080345
      5 C                     0.223387
      6 O                    -0.182391
      7 C                    -0.052300
      8 C                    -0.048621
      9 O                    -0.168363
     10 C                     0.210470
     11 C                    -0.101831
     12 C                    -0.097629
     13 C                     0.223877
     14 O                    -0.232086
     15 O                    -0.166704
     16 O                    -0.164798
     17 O                    -0.194391
     18 C                    -0.126197
     19 C                     0.022459
     20 C                    -0.144739
     21 C                    -0.144068
     22 C                     0.024685
     23 O                    -0.189683
     24 H                     0.099546
     25 H                     0.102939
     26 H                     0.076120
     27 H                     0.075371
     28 H                     0.070092
     29 H                     0.075837
     30 H                     0.075867
     31 H                     0.089787
     32 O                    -0.206905
     33 C                    -0.148786
     34 C                     0.026233
     35 C                    -0.143810
     36 C                    -0.143976
     37 C                     0.025559
     38 O                    -0.185935
     39 H                     0.084232
     40 H                     0.083450
     41 H                     0.081701
     42 H                     0.085484
     43 H                     0.079999
     44 H                     0.074302
     45 H                     0.079869
     46 H                     0.073319
     47 H                     0.091403
     48 H                     0.121628
     49 H                     0.083751
     50 H                     0.088647
     51 H                     0.094668
     52 H                     0.087607
     53 H                     0.095856
     54 H                     0.089855
     55 H                     0.094914
     56 H                     0.094927
  ----------------------------------------
  Sum of atomic charges =     0.000000

 -----------------------------------------------------------------
                    Cartesian Multipole Moments
 -----------------------------------------------------------------
    Charge (ESU x 10^10)
                -0.0000
    Dipole Moment (Debye)
         X      -2.7984      Y       3.0333      Z       0.8389
       Tot       4.2113
    Quadrupole Moments (Debye-Ang)
        XX    -169.6525     XY     -10.1441     YY    -156.5132
        XZ      -2.3594     YZ      -4.5915     ZZ    -157.8881
    Octopole Moments (Debye-Ang^2)
       XXX     -55.5918    XXY      -2.6698    XYY       3.4830
       YYY       8.3919    XXZ      38.0490    XYZ      -5.0811
       YYZ     -13.3062    XZZ     -11.9778    YZZ      18.4078
       ZZZ     -29.1147
    Hexadecapole Moments (Debye-Ang^3)
      XXXX   -8332.8691   XXXY    -118.8511   XXYY   -1738.1447
      XYYY     200.2026   YYYY   -2168.4767   XXXZ      78.8917
      XXYZ     -62.9203   XYYZ      24.9086   YYYZ      24.8127
      XXZZ   -1864.5528   XYZZ      75.6016   YYZZ    -769.8427
      XZZZ      78.3203   YZZZ      10.8851   ZZZZ   -2553.5024
 -----------------------------------------------------------------
Archival summary:
1\1\vega02.cac.cornell.edu\OPT\ProcedureUnspecified\STO-3G\102026\jj585\SatJan1308:46:052018SatJan1308:46:052018\0\\#,OPT,ProcedureUnspecified,STO-3G,\\0,1\O\C,1,1.44382\O,2,1.24774,1,123.354\C,1,1.4833,2,109.96,3,-1.88076,0\H,4,1.11071,1,109.89,2,46.7479,0\H,4,1.11281,1,110.826,2,-72.2971,0\C,2,1.56965,1,108.799,3,-172.482,0\H,7,1.10558,2,107.463,1,52.3127,0\C,4,1.57644,1,107.661,2,167.394,0\H,9,1.10892,4,109.068,1,-137.529,0\H,9,1.11076,4,109.054,1,-19.6571,0\O,9,1.47707,4,113.663,1,107.026,0\C,12,1.43714,9,116.066,4,-70.549,0\O,13,1.25432,12,115.944,9,171.711,0\C,13,1.57176,12,120.314,9,-10.9381,0\H,15,1.11124,13,110.533,12,44.8609,0\C,15,1.58297,13,110.999,12,170.617,0\H,17,1.11119,15,110.004,13,-129.712,0\C,17,1.56647,15,113.434,13,-12.4557,0\O,19,1.25941,17,124.308,15,-78.1534,0\O,19,1.42567,17,111.5,15,109.815,0\C,21,1.48045,19,109.661,17,-178.945,0\H,22,1.10539,21,106.046,19,-177.973,0\H,22,1.10914,21,110.961,19,62.9955,0\H,22,1.10926,21,111.623,19,-58.459,0\C,17,1.58233,15,101.412,13,112.717,0\H,26,1.1065,17,114.713,15,-152.628,0\O,26,1.48246,17,104.31,15,-31.6132,0\C,28,1.47822,26,94.9442,17,55.0278,0\H,29,1.10727,28,110.222,26,179.127,0\C,26,1.57981,17,107.236,15,77.3363,0\H,31,1.10159,26,110.53,17,169.499,0\H,31,1.1018,26,112.076,17,47.8593,0\C,31,1.57378,26,101.009,17,-72.4854,0\H,34,1.10158,31,111.797,26,-120.837,0\H,34,1.10206,31,112.609,26,116.243,0\C,7,1.58419,2,116.418,1,-71.3177,0\H,37,1.10463,7,111.403,2,120.681,0\C,37,1.56504,7,116.789,2,-3.17286,0\O,39,1.25615,37,124.943,7,155.996,0\O,39,1.41579,37,110.294,7,-26.1336,0\C,41,1.48854,39,112.125,37,-174.644,0\H,42,1.10522,41,104.885,39,-171.799,0\H,42,1.10851,41,109.541,39,71.53,0\H,42,1.12727,41,114.623,39,-51.0455,0\C,7,1.58717,2,110.489,1,174.047,0\H,46,1.10739,7,113.756,2,-29.4312,0\O,46,1.48154,7,103.577,2,90.3223,0\C,48,1.47778,46,94.9601,7,56.5192,0\H,49,1.10745,48,110.763,46,179.739,0\C,46,1.57796,7,108.41,2,-160.253,0\H,51,1.1017,46,112.329,7,47.128,0\H,51,1.10172,46,110.369,7,168.643,0\C,51,1.5742,46,100.977,7,-73.3669,0\H,54,1.10158,51,111.599,46,-118.971,0\H,54,1.1018,51,112.819,46,118.298,0\\\@

 Total job time:  168.26s(wall), 8012.13s(cpu) 
 Sat Jan 13 08:46:05 2018

        *************************************************************
        *                                                           *
        *  Thank you very much for using Q-Chem.  Have a nice day.  *
        *                                                           *
        *************************************************************


0 sent ACK to 0 
now end server 0 ... 
