mFile = /opt/software/qchem/qchem-5.0.1//bin/mpi/machines
Process 0 of 1 is on vega02.cac.cornell.edu - thread support 0
initial socket setup ...start
initial socket setup ...done 
now start server 0 ... 
vega02.cac.cornell.edu 10.84.3
Q-Chem Developer Version! Running on 10.84.3.*
                  Welcome to Q-Chem
     A Quantum Leap Into The Future Of Chemistry


 Q-Chem 5.0, Q-Chem, Inc., Pleasanton, CA (2017)

 Yihan Shao,  Zhengting Gan,  E. Epifanovsky,  A. T. B. Gilbert,  M. Wormit,  
 J. Kussmann,  A. W. Lange,  A. Behn,  Jia Deng,  Xintian Feng,  D. Ghosh,  
 M. Goldey,  P. R. Horn,  L. D. Jacobson,  I. Kaliman,  T. Kus,  A. Landau,  
 Jie Liu,  E. I. Proynov,  R. M. Richard,  R. P. Steele,  E. J. Sundstrom,  
 H. L. Woodcock III,  P. M. Zimmerman,  D. Zuev,  B. Albrecht,  E. Alguire,  
 S. A. Baeppler,  Z. Benda,  Y. A. Bernard,  E. J. Berquist,  K. B. Bravaya,  
 D. Casanova,  Chun-Min Chang,  Yunqing Chen,  A. Chien,  K. D. Closser,  
 M. P. Coons,  S. Dasgupta,  M. Diedenhofen,  Hainam Do,  R. G. Edgar,  
 Po-Tung Fang,  S. Fatehi,  Qingguo Feng,  Qinghui Ge,  A. Ghysels,  
 J. Gomes,  J. Gonthier,  A. Gunina,  M. W. D. Hanson-Heine,  
 P. H. P. Harbach,  A. W. Hauser,  J. E. Herr,  E. G. Hohenstein,  
 Z. C. Holden,  Kerwin Hui,  T.-C. Jagau,  Hyunjun Ji,  B. Kaduk,  
 K. Khistyaev,  Jaehoon Kim,  P. Klunzinger,  K. Koh,  D. Kosenkov,  
 T. Kowalczyk,  C. M. Krauter,  A. Kunitsa,  Ka Un Lao,  A. Laurent,  
 K. V. Lawler,  Joonho Lee,  D. Lefrancois,  S. Lehtola,  D. S. Levine,  
 Yi-Pei Li,  You-Sheng Lin,  Fenglai Liu,  E. Livshits,  A. Luenser,  
 P. Manohar,  E. Mansoor,  S. F. Manzer,  Shan-Ping Mao,  Yuezhi Mao,  
 N. Mardirossian,  A. V. Marenich,  L. A. Martinez-Martinez,  S. A. Maurer,  
 N. J. Mayhall,  S. C. McKenzie,  J.-M. Mewes,  A. F. Morrison,  K. Nanda,  
 T. S. Nguyen-Beck,  R. Olivares-Amaya,  J. A. Parkhill,  T. M. Perrine,  
 F. Plasser,  S. Prager,  A. Prociuk,  D. R. Rehn,  F. Rob,  M. Schneider,  
 N. Sergueev,  S. M. Sharada,  S. Sharma,  D. W. Small,  T. Stauch,  
 T. Stein,  Yu-Chuan Su,  A. J. W. Thom,  T. Tsuchimochi,  L. Vogt,  
 O. Vydrov,  M. A. Watson,  J. Wenzel,  M. de Wergifosse,  T. A. Wesolowski,  
 A. White,  J. Witte,  A. Yamada,  Jun Yang,  K. Yao,  S. Yeganeh,  
 S. R. Yost,  Zhi-Qiang You,  A. Zech,  Igor Ying Zhang,  Xing Zhang,  
 Yan Zhao,  Ying Zhu,  B. R. Brooks,  G. K. L. Chan,  C. J. Cramer,  
 M. S. Gordon,  W. J. Hehre,  A. Klamt,  M. W. Schmidt,  C. D. Sherrill,  
 D. G. Truhlar,  A. Aspuru-Guzik,  R. Baer,  A. T. Bell,  N. A. Besley,  
 Jeng-Da Chai,  A. Dreuw,  B. D. Dunietz,  T. R. Furlani,  Chao-Ping Hsu,  
 Yousung Jung,  Jing Kong,  D. S. Lambrecht,  WanZhen Liang,  C. Ochsenfeld,  
 V. A. Rassolov,  L. V. Slipchenko,  J. E. Subotnik,  T. Van Voorhis,  
 J. M. Herbert,  A. I. Krylov,  P. M. W. Gill,  M. Head-Gordon

 Contributors to earlier versions of Q-Chem not listed above: 
 R. D. Adamson,  B. Austin,  J. Baker,  G. J. O. Beran,  K. Brandhorst,  
 S. T. Brown,  E. F. C. Byrd,  A. K. Chakraborty,  C.-L. Cheng,  
 Siu Hung Chien,  D. M. Chipman,  D. L. Crittenden,  H. Dachsel,  
 R. A. DiStasio Jr.,  R. J. Doerksen,  A. D. Dutoi,  L. Fusti-Molnar,  
 W. A. Goddard III,  A. Golubeva-Zadorozhnaya,  S. R. Gwaltney,  G. Hawkins,  
 A. Heyden,  S. Hirata,  G. Kedziora,  F. J. Keil,  C. Kelley,  Jihan Kim,  
 R. A. King,  R. Z. Khaliullin,  P. P. Korambath,  W. Kurlancheek,  
 A. M. Lee,  M. S. Lee,  S. V. Levchenko,  Ching Yeh Lin,  D. Liotard,  
 R. C. Lochan,  I. Lotan,  P. E. Maslen,  N. Nair,  D. P. O'Neill,  
 D. Neuhauser,  E. Neuscamman,  C. M. Oana,  R. Olson,  B. Peters,  
 R. Peverati,  P. A. Pieniazek,  Y. M. Rhee,  J. Ritchie,  M. A. Rohrdanz,  
 E. Rosta,  N. J. Russ,  H. F. Schaefer III,  N. E. Schultz,  N. Shenvi,  
 A. C. Simmonett,  A. Sodt,  D. Stuck,  K. S. Thanthiriwatte,  V. Vanovschi,  
 Tao Wang,  A. Warshel,  C. F. Williams,  Q. Wu,  X. Xu,  W. Zhang

 Please cite Q-Chem as follows:
 Y. Shao et al., Mol. Phys. 113, 184-215 (2015)
 DOI: 10.1080/00268976.2014.952696

 Q-Chem 5.0.1 for Intel X86 EM64T Linux

 Parts of Q-Chem use Armadillo 5.200.1 (Boston Tea Smuggler).
 http://arma.sourceforge.net/

 Q-Chem begins on Sat Jan 13 09:13:03 2018  

Host: vega02.cac.cornell.edu
0

     Scratch files written to /scratch/jj585/SOT1001/0031r.save//
 Parallel job on  1  processors

Checking the input file for inconsistencies... 	...done.

--------------------------------------------------------------
User input:
--------------------------------------------------------------
$molecule
0  1
O -5.8630947654 0.8761266634 1.2584316423
C -5.1864940551 0.9234007531 0.2102206688
C -4.7406112352 -0.2827977444 -0.692536341
C -3.181402726 -0.3364436953 -0.9624736229
C -2.3707368403 0.728924742 -0.1491741938
O -1.2523446586 1.1701646428 -0.9441902687
C -0.0919140529 1.463906631 -0.0649154532
C 0.9445879373 2.2487602671 -0.9583847285
O 2.3982357181 2.1101567554 -0.6782698837
C 2.6819280097 1.2612984455 0.4785311244
C 2.7470092827 -0.281359641 0.1145280289
C 4.0387953538 -0.7907474696 -0.6499016127
C 5.2820236468 0.1729310285 -0.6373312332
O 6.4788810747 -0.1608282038 -0.7716035421
O -4.7570908318 2.1337585561 -0.4269471814
O 4.8472222887 1.5165015225 -0.4435646648
O 2.8408308438 1.7292778994 1.6237579751
C 5.9952916182 2.4451518065 -0.3575848149
C 2.7410183429 -1.2362894086 1.3827859406
C 2.1244868804 -2.6166112932 0.9316575975
C 3.2898579665 -3.1770375107 0.0324838479
C 4.3973428207 -2.0662127221 0.2258886068
O 4.1688867094 -1.5646653667 1.6022858473
H 1.8754003936 -0.4918918109 -0.5292441238
H 3.8074652468 -1.0525048768 -1.6989676131
H 2.3043169279 -0.7816436478 2.2934055655
H 1.9437375426 -3.2622027434 1.8061193054
H 1.178298791 -2.4954974395 0.3799049409
H 3.6524411913 -4.1505538501 0.3987061058
H 2.9955676207 -3.2858724582 -1.0238735452
H 5.4444049303 -2.405765318 0.1018552586
O -2.5726894973 1.0715505421 1.0361673273
C -5.0840658662 3.2965886167 0.4280486055
C -4.9794127215 -1.6744261723 0.0271062457
C -4.954654873 -2.8076321938 -1.0704151408
C -3.4181393762 -2.8636635648 -1.409930706
C -2.8413520684 -1.7894302631 -0.4048556825
O -3.7209373462 -1.9005737494 0.778724312
H -5.2957100937 -0.2204668995 -1.6466395698
H -2.9338594686 -0.2356086425 -2.033618234
H -4.5174468174 3.2618758077 1.3812368756
H -5.8463776089 -1.6812420775 0.7161139111
H -5.3082186296 -3.7617492643 -0.6481317221
H -5.575303718 -2.5555291839 -1.9449307656
H -2.9923953094 -3.8567218688 -1.1950669224
H -3.2039606094 -2.6065313666 -2.4595056622
H -1.7815451199 -1.9358370243 -0.1183235278
H -6.1673514212 3.3424192445 0.6611351496
H -4.7883147365 4.1934657207 -0.1466344348
H 5.5589714557 3.4491045754 -0.2037821283
H 6.5922666714 2.433964083 -1.2921697242
H 6.6590804501 2.1900192643 0.493573985
H 0.7790256417 1.9151072939 -2.0090932607
H 0.695402184 3.3322100328 -0.915673295
H 0.3220276185 0.5051697329 0.3085336832
H -0.3997916016 2.0660191036 0.8164011568
$end

$rem
JOBTYPE                   OPT
METHOD                    B3LYP
DFT_D                     d3_op
BASIS                     STO-3G
GEOM_OPT_MAX_CYCLES       100
GEOM_OPT_TOL_GRADIENT     300
GEOM_OPT_TOL_DISPLACEMENT 1200
GEOM_OPT_TOL_ENERGY       100
SYMMETRY                  False
THRESH                    12
SCF_CONVERGENCE           8
MAX_SUB_FILE_NUM          128
MEM_STATIC                400
MEM_TOTAL                 4000
$end
--------------------------------------------------------------
 Adding empirical dispersion correction 
 ----------------------------------------------------------------
 Doing -D3(op) with
 s6 =   1.00000
 s8 =   0.78311
 a1 =   0.30000
 a2 =   4.25000
 n  =  10.00000
 -D3 energy without 3body term =     -0.0674307909 hartrees
 ----------------------------------------------------------------
             Standard Nuclear Orientation (Angstroms)
    I     Atom           X                Y                Z
 ----------------------------------------------------------------
    1      O      -5.8391643115     0.9122246200     1.3520270260
    2      C      -5.1760525521     0.9466717174     0.2947352982
    3      C      -4.7505163235    -0.2695325252    -0.6044102304
    4      C      -3.1953962557    -0.3363302235    -0.8942633683
    5      C      -2.3666834594     0.7294293475    -0.0998851933
    6      O      -1.2557459543     1.1566131960    -0.9128280577
    7      C      -0.0818533367     1.4488045379    -0.0510809431
    8      C       0.9483217210     2.2194134584    -0.9640542142
    9      O       2.4045100115     2.0726177306    -0.7018828823
   10      C       2.6973875766     1.2306289161     0.4576462838
   11      C       2.7468697122    -0.3151900751     0.1047681713
   12      C       4.0249163101    -0.8395818221    -0.6725027464
   13      C       5.2749302114     0.1152964016    -0.6836236692
   14      O       6.4675538784    -0.2279848199    -0.8309287025
   15      O      -4.7465640879     2.1490391452    -0.3573292973
   16      O       4.8521402913     1.4633675923    -0.4945942409
   17      O       2.8745726401     1.7062053259     1.5970461044
   18      C       6.0077227517     2.3844574934    -0.4308005010
   19      C       2.7508137883    -1.2603320251     1.3803449121
   20      C       2.1187545048    -2.6396408368     0.9479971408
   21      C       3.2682752057    -3.2151987596     0.0380433061
   22      C       4.3859639730    -2.1108345468     0.2083704000
   23      O       4.1790997769    -1.5971697435     1.5837128964
   24      H       1.8654386742    -0.5244307748    -0.5259188267
   25      H       3.7780192109    -1.1076972622    -1.7164021501
   26      H       2.3292904440    -0.7956447718     2.2930457513
   27      H       1.9449648575    -3.2772279100     1.8297124037
   28      H       1.1662850278    -2.5160197707     0.4077275900
   29      H       3.6287935412    -4.1884423076     0.4070188149
   30      H       2.9594016538    -3.3300079296    -1.0135073484
   31      H       5.4289025252    -2.4587649783     0.0733041593
   32      O      -2.5506670429     1.0825325069     1.0853067895
   33      C      -5.0541361355     3.3206664200     0.4928431459
   34      C      -4.9896138426    -1.6538862149     0.1290326930
   35      C      -4.9871981580    -2.7955948107    -0.9599198674
   36      C      -3.4556977337    -2.8651481489    -1.3190284704
   37      C      -2.8582606442    -1.7873947616    -0.3299111122
   38      O      -3.7230072839    -1.8832292152     0.8658788967
   39      H      -5.3176282638    -0.2105484312    -1.5516365877
   40      H      -2.9612196229    -0.2454482222    -1.9692972825
   41      H      -4.4753235928     3.2892099136     1.4387905717
   42      H      -5.8474953928    -1.6492685092     0.8293355261
   43      H      -5.3418764119    -3.7439173013    -0.5256874526
   44      H      -5.6174783031    -2.5457743215    -1.8281797113
   45      H      -3.0341474196    -3.8595387120    -1.1020676629
   46      H      -3.2535029434    -2.6175753263    -2.3732685116
   47      H      -1.7958402066    -1.9391426441    -0.0561196270
   48      H      -6.1339239248     3.3759820538     0.7396951012
   49      H      -4.7596640227     4.2109985471    -0.0925735822
   50      H       5.5805084042     3.3926348363    -0.2790834642
   51      H       6.5922976983     2.3618808195    -1.3729871903
   52      H       6.6808105786     2.1311222433     0.4135652718
   53      H       0.7666594205     1.8789259723    -2.0098986961
   54      H       0.7073218093     3.3049032095    -0.9264743825
   55      H       0.3302161833     0.4900295168     0.3243355909
   56      H      -0.3739171449     2.0598101047     0.8294972255
 ----------------------------------------------------------------
 Molecular Point Group                 C1    NOp =  1
 Largest Abelian Subgroup              C1    NOp =  1
 Nuclear Repulsion Energy =  3093.5705332118 hartrees
 There are      113 alpha and      113 beta electrons
 Requested basis set is STO-3G
 There are 86 shells and 176 basis functions

 Total QAlloc Memory Limit   4000 MB
 Mega-Array Size       392 MB
 MEM_STATIC part       400 MB
 A cutoff of  1.0D-12 yielded   2179 shell pairs
 There are     10051 function pairs
 
 -------------------------------------------------------
 OpenMP Integral Computing Module                       
 Release: version 1.0, May 2013, Q-Chem Inc. Pittsburgh 
 -------------------------------------------------------
 Integral Job Info:
 Integral job number is                      11
 Integral operator is                         1
 short-range coefficients                     0
 long-range coefficients              100000000
 Omega coefficients                           0
 if combine SR and LR in K                    0
 Integral screening is                        0
 Integral computing path is                   2
 max size of driver memory is            800000
 size of driver memory is                 45569
 size of scratch memory is              1046100
 max col of scratch BK array                289
 max len of scratch array in speh3           22
 max len of scratch index in speh4            8
 max int batch size is                      520
 min int batch size is                       52
 fixed nKL is                                52
 max L of basis functions is                  1
 order of int derivative is                   0
 number of shells is                         86
 number of basis is                         176
 number of cartesian basis is               176
 number of contracted shell pairs          2179
 number of primitive shell pairs          11111
 maxK2 (contraction) of shell pair            9
 max number of K2 of shell pair               1
 max number of CS2 of shell pair            348
 max number of PS2 of shell pair           1216
 mem total for path MDJ                   49782
 -------------------------------------------------------
 Smallest overlap matrix eigenvalue = 2.13E-01

 Scale SEOQF with 1.000000e-02/1.000000e-01/1.000000e-01

 Standard Electronic Orientation quadrupole field applied
 Nucleus-field energy     =     0.0000000507 hartrees
 Guess from superposition of atomic densities
 Warning:  Energy on first SCF cycle will be non-variational
 A restricted hybrid HF-DFT SCF calculation will be
 performed using Pulay DIIS extrapolation
 Exchange:     0.2000 Hartree-Fock + 0.0800 Slater + 0.7200 B88
 Correlation:  0.1900 VWN1RPA + 0.8100 LYP
 Using SG-1 standard quadrature grid
 Dispersion:   Grimme D3
 SCF converges when DIIS error is below 1.0E-08
 using 48 threads for integral computing
 -------------------------------------------------------
 OpenMP Integral computing Module                
 Release: version 1.0, May 2013, Q-Chem Inc. Pittsburgh 
 -------------------------------------------------------
 -------------------------------------------------------
 OpenMP BLAS3 based DFT computing Module                
 Release: version 1.0, May 2013, Q-Chem Inc. Pittsburgh 
 -------------------------------------------------------
 ---------------------------------------
  Cycle       Energy         DIIS Error
 ---------------------------------------
    1   -1507.5876162358      7.45E-02
    2   -1509.6803944330      1.07E-02
    3   -1507.2139440574      2.78E-02
    4   -1510.1560459896      4.47E-03
    5   -1510.2364551717      1.53E-03
    6   -1510.2454835750      5.38E-04
    7   -1510.2467111074      1.45E-04
    8   -1510.2467974056      4.00E-05
    9   -1510.2468034101      1.46E-05
   10   -1510.2468042212      6.17E-06
   11   -1510.2468043810      1.45E-06
   12   -1510.2468043904      2.63E-07
   13   -1510.2468043906      1.52E-07
   14   -1510.2468043908      6.31E-08
   15   -1510.2468043909      1.26E-08
   16   -1510.2468043909      4.88E-09 Convergence criterion met
 ---------------------------------------
 SCF time:  CPU 116.77 s  wall 2.51 s
 SCF   energy in the final basis set = -1510.24680439
 Total energy in the final basis set = -1510.24680439
 
 --------------------------------------------------------------
 
                    Orbital Energies (a.u.)
 --------------------------------------------------------------
 
 Alpha MOs
 -- Occupied --
-18.948 -18.931 -18.930 -18.896 -18.893 -18.892 -18.889 -18.886
-18.880 -18.874 -10.110 -10.106 -10.106 -10.098 -10.077 -10.070
-10.069 -10.068 -10.062 -10.061 -10.061 -10.061 -10.044 -10.042
-10.039 -10.037 -10.026 -10.024 -10.023 -10.023  -1.020  -1.016
 -1.007  -0.999  -0.975  -0.973  -0.944  -0.943  -0.934  -0.929
 -0.767  -0.766  -0.729  -0.726  -0.714  -0.707  -0.701  -0.667
 -0.660  -0.619  -0.603  -0.586  -0.550  -0.547  -0.542  -0.540
 -0.516  -0.512  -0.486  -0.478  -0.466  -0.463  -0.456  -0.447
 -0.438  -0.435  -0.430  -0.417  -0.413  -0.413  -0.410  -0.400
 -0.395  -0.382  -0.377  -0.376  -0.367  -0.360  -0.358  -0.354
 -0.349  -0.344  -0.337  -0.334  -0.332  -0.330  -0.324  -0.317
 -0.315  -0.311  -0.308  -0.306  -0.300  -0.294  -0.287  -0.276
 -0.275  -0.256  -0.253  -0.251  -0.238  -0.238  -0.233  -0.183
 -0.180  -0.174  -0.164  -0.161  -0.153  -0.151  -0.150  -0.148
 -0.144
 -- Virtual --
  0.078   0.083   0.098   0.108   0.204   0.230   0.238   0.252
  0.260   0.268   0.279   0.281   0.298   0.309   0.319   0.324
  0.329   0.333   0.337   0.341   0.346   0.355   0.359   0.365
  0.373   0.375   0.382   0.389   0.397   0.403   0.405   0.408
  0.413   0.416   0.419   0.421   0.426   0.427   0.428   0.430
  0.434   0.434   0.436   0.436   0.442   0.445   0.450   0.460
  0.463   0.465   0.477   0.483   0.489   0.503   0.506   0.536
  0.540   0.548   0.553   0.624   0.636   0.641   0.647
 --------------------------------------------------------------
 
          Ground-State Mulliken Net Atomic Charges

     Atom                 Charge (a.u.)
  ----------------------------------------
      1 O                    -0.209278
      2 C                     0.215091
      3 C                    -0.079677
      4 C                    -0.078256
      5 C                     0.213912
      6 O                    -0.179088
      7 C                    -0.056494
      8 C                    -0.051917
      9 O                    -0.193768
     10 C                     0.229774
     11 C                    -0.085544
     12 C                    -0.076842
     13 C                     0.214545
     14 O                    -0.211249
     15 O                    -0.174945
     16 O                    -0.161965
     17 O                    -0.186166
     18 C                    -0.124071
     19 C                     0.021396
     20 C                    -0.142678
     21 C                    -0.144995
     22 C                     0.024106
     23 O                    -0.189411
     24 H                     0.075981
     25 H                     0.085862
     26 H                     0.088652
     27 H                     0.079945
     28 H                     0.069096
     29 H                     0.079587
     30 H                     0.072832
     31 H                     0.090220
     32 O                    -0.204551
     33 C                    -0.128789
     34 C                     0.024523
     35 C                    -0.143532
     36 C                    -0.143941
     37 C                     0.025446
     38 O                    -0.186763
     39 H                     0.084535
     40 H                     0.086511
     41 H                     0.092812
     42 H                     0.092252
     43 H                     0.079045
     44 H                     0.073956
     45 H                     0.078299
     46 H                     0.074013
     47 H                     0.077782
     48 H                     0.089334
     49 H                     0.088951
     50 H                     0.098423
     51 H                     0.091796
     52 H                     0.093591
     53 H                     0.082833
     54 H                     0.083953
     55 H                     0.078384
     56 H                     0.096479
  ----------------------------------------
  Sum of atomic charges =    -0.000000

 -----------------------------------------------------------------
                    Cartesian Multipole Moments
 -----------------------------------------------------------------
    Charge (ESU x 10^10)
                -0.0000
    Dipole Moment (Debye)
         X      -1.1777      Y      -0.9344      Z      -3.9196
       Tot       4.1980
    Quadrupole Moments (Debye-Ang)
        XX    -170.5737     XY       2.3031     YY    -150.4343
        XZ       6.0164     YZ       2.4627     ZZ    -167.0044
    Octopole Moments (Debye-Ang^2)
       XXX     -58.7477    XXY      52.6028    XYY      -6.0467
       YYY      51.3837    XXZ     -66.2057    XYZ     -11.9036
       YYZ       0.7855    XZZ       5.5547    YZZ       6.2985
       ZZZ      -2.6945
    Hexadecapole Moments (Debye-Ang^3)
      XXXX  -15785.3876   XXXY     347.2298   XXYY   -2863.6327
      XYYY    -106.9170   YYYY   -3451.1944   XXXZ     225.7048
      XXYZ      21.2539   XYYZ     -48.2822   YYYZ     -13.6870
      XXZZ   -2835.5870   XYZZ      11.1411   YYZZ    -768.7537
      XZZZ     -50.0016   YZZZ     -14.7708   ZZZZ    -859.7836
 -----------------------------------------------------------------
 Calculating analytic gradient of the SCF energy
 Gradient of SCF Energy
            1           2           3           4           5           6
    1  -0.0013140   0.0018969  -0.0004357   0.0032243  -0.0032657  -0.0016776
    2   0.0001006   0.0000956   0.0000860  -0.0048913   0.0033277   0.0066912
    3  -0.0008184   0.0008127  -0.0002083   0.0028366  -0.0032083   0.0007924
            7           8           9          10          11          12
    1   0.0016741  -0.0001130   0.0022738  -0.0006407   0.0001001  -0.0017530
    2  -0.0082448   0.0026994  -0.0008401   0.0014982  -0.0012795   0.0008241
    3  -0.0025172   0.0022440  -0.0013536  -0.0005820   0.0052245  -0.0033024
           13          14          15          16          17          18
    1  -0.0000346   0.0000129  -0.0000440   0.0000690  -0.0000145  -0.0000677
    2   0.0000735  -0.0000198  -0.0000252  -0.0000375   0.0000113  -0.0000368
    3  -0.0001745   0.0001138   0.0000406  -0.0000009  -0.0000203  -0.0000168
           19          20          21          22          23          24
    1  -0.0000194  -0.0000137   0.0000305  -0.0000758   0.0000567   0.0000155
    2   0.0000306  -0.0000211   0.0000732  -0.0000275   0.0000325  -0.0000211
    3  -0.0000689   0.0000793   0.0000152  -0.0000716   0.0000690   0.0000393
           25          26          27          28          29          30
    1   0.0000038   0.0000132   0.0000122  -0.0000005   0.0000109   0.0000017
    2  -0.0000328   0.0000370   0.0000120   0.0000459   0.0000127  -0.0000545
    3   0.0000208   0.0000065   0.0000155   0.0000027   0.0000465   0.0000124
           31          32          33          34          35          36
    1   0.0000097  -0.0000069   0.0000183  -0.0000660   0.0000675   0.0000036
    2   0.0000016  -0.0000106  -0.0000399  -0.0000546   0.0000895  -0.0000125
    3   0.0000430  -0.0000072  -0.0000397  -0.0000167   0.0000300   0.0000076
           37          38          39          40          41          42
    1   0.0000355   0.0000172  -0.0000681   0.0000403  -0.0000113   0.0000022
    2  -0.0000424   0.0000101   0.0000332  -0.0000277   0.0000134  -0.0000323
    3   0.0000438   0.0000434   0.0000017   0.0000129  -0.0000112  -0.0000096
           43          44          45          46          47          48
    1  -0.0000129   0.0000315  -0.0000086   0.0000219   0.0000090  -0.0000077
    2  -0.0000186  -0.0000006  -0.0000099  -0.0000547   0.0000167   0.0000064
    3  -0.0000025  -0.0000069   0.0000592   0.0000011  -0.0000035  -0.0000314
           49          50          51          52          53          54
    1  -0.0000009  -0.0000060   0.0000097   0.0000082   0.0000030  -0.0000226
    2  -0.0000027   0.0000031   0.0000175   0.0000207  -0.0000117  -0.0000047
    3  -0.0000255  -0.0000210  -0.0000135  -0.0000016  -0.0000132  -0.0000254
           55          56
    1  -0.0000216   0.0000297
    2  -0.0000089   0.0000005
    3  -0.0000077  -0.0000344
 Max gradient component =       8.245E-03
 RMS gradient           =       1.276E-03
 Gradient time:  CPU 31.07 s  wall 0.66 s
 Geometry Optimization Parameters
   NAtoms,    NIC,     NZ,  NCons,   NDum,   NFix, NCnnct, MaxDiis
       56     458       0       0       0       0       0       0


** GEOMETRY OPTIMIZATION IN DELOCALIZED INTERNAL COORDINATES **
   Searching for a Minimum

   Optimization Cycle:   1

                       Coordinates (Angstroms)
     ATOM                X               Y               Z
      1  O        -5.8391643115    0.9122246200    1.3520270260
      2  C        -5.1760525521    0.9466717174    0.2947352982
      3  C        -4.7505163235   -0.2695325252   -0.6044102304
      4  C        -3.1953962557   -0.3363302235   -0.8942633683
      5  C        -2.3666834594    0.7294293475   -0.0998851933
      6  O        -1.2557459543    1.1566131960   -0.9128280577
      7  C        -0.0818533367    1.4488045379   -0.0510809431
      8  C         0.9483217210    2.2194134584   -0.9640542142
      9  O         2.4045100115    2.0726177306   -0.7018828823
     10  C         2.6973875766    1.2306289161    0.4576462838
     11  C         2.7468697122   -0.3151900751    0.1047681713
     12  C         4.0249163101   -0.8395818221   -0.6725027464
     13  C         5.2749302114    0.1152964016   -0.6836236692
     14  O         6.4675538784   -0.2279848199   -0.8309287025
     15  O        -4.7465640879    2.1490391452   -0.3573292973
     16  O         4.8521402913    1.4633675923   -0.4945942409
     17  O         2.8745726401    1.7062053259    1.5970461044
     18  C         6.0077227517    2.3844574934   -0.4308005010
     19  C         2.7508137883   -1.2603320251    1.3803449121
     20  C         2.1187545048   -2.6396408368    0.9479971408
     21  C         3.2682752057   -3.2151987596    0.0380433061
     22  C         4.3859639730   -2.1108345468    0.2083704000
     23  O         4.1790997769   -1.5971697435    1.5837128964
     24  H         1.8654386742   -0.5244307748   -0.5259188267
     25  H         3.7780192109   -1.1076972622   -1.7164021501
     26  H         2.3292904440   -0.7956447718    2.2930457513
     27  H         1.9449648575   -3.2772279100    1.8297124037
     28  H         1.1662850278   -2.5160197707    0.4077275900
     29  H         3.6287935412   -4.1884423076    0.4070188149
     30  H         2.9594016538   -3.3300079296   -1.0135073484
     31  H         5.4289025252   -2.4587649783    0.0733041593
     32  O        -2.5506670429    1.0825325069    1.0853067895
     33  C        -5.0541361355    3.3206664200    0.4928431459
     34  C        -4.9896138426   -1.6538862149    0.1290326930
     35  C        -4.9871981580   -2.7955948107   -0.9599198674
     36  C        -3.4556977337   -2.8651481489   -1.3190284704
     37  C        -2.8582606442   -1.7873947616   -0.3299111122
     38  O        -3.7230072839   -1.8832292152    0.8658788967
     39  H        -5.3176282638   -0.2105484312   -1.5516365877
     40  H        -2.9612196229   -0.2454482222   -1.9692972825
     41  H        -4.4753235928    3.2892099136    1.4387905717
     42  H        -5.8474953928   -1.6492685092    0.8293355261
     43  H        -5.3418764119   -3.7439173013   -0.5256874526
     44  H        -5.6174783031   -2.5457743215   -1.8281797113
     45  H        -3.0341474196   -3.8595387120   -1.1020676629
     46  H        -3.2535029434   -2.6175753263   -2.3732685116
     47  H        -1.7958402066   -1.9391426441   -0.0561196270
     48  H        -6.1339239248    3.3759820538    0.7396951012
     49  H        -4.7596640227    4.2109985471   -0.0925735822
     50  H         5.5805084042    3.3926348363   -0.2790834642
     51  H         6.5922976983    2.3618808195   -1.3729871903
     52  H         6.6808105786    2.1311222433    0.4135652718
     53  H         0.7666594205    1.8789259723   -2.0098986961
     54  H         0.7073218093    3.3049032095   -0.9264743825
     55  H         0.3302161833    0.4900295168    0.3243355909
     56  H        -0.3739171449    2.0598101047    0.8294972255
   Point Group: c1    Number of degrees of freedom:   162


   Energy is  -1510.246804391


 Attempting to Generate Delocalized Internal Coordinates

162 Hessian modes will be used to form the next step
  Hessian Eigenvalues:
     0.002000    0.002000    0.002000    0.002000    0.002000    0.002688
     0.002736    0.003286    0.004155    0.004309    0.004344    0.004367
     0.004460    0.005076    0.005177    0.006807    0.006810    0.007363
     0.010173    0.011195    0.012285    0.021601    0.021729    0.025843
     0.026395    0.030537    0.030868    0.035288    0.035350    0.038689
     0.039223    0.041317    0.041777    0.041928    0.044134    0.045987
     0.047168    0.047676    0.051200    0.051301    0.052365    0.053466
     0.054284    0.054489    0.055198    0.055435    0.055502    0.055614
     0.057303    0.058600    0.059283    0.060431    0.060681    0.063344
     0.063771    0.064156    0.064487    0.070005    0.070119    0.072962
     0.073078    0.092094    0.092258    0.092819    0.093087    0.095848
     0.096602    0.097129    0.097286    0.102720    0.103170    0.108031
     0.110096    0.111541    0.120582    0.120935    0.121261    0.133705
     0.143227    0.157300    0.157986    0.160000    0.160000    0.160000
     0.160000    0.160000    0.160000    0.162792    0.164128    0.218542
     0.218997    0.220829    0.221563    0.228271    0.228681    0.238181
     0.238280    0.239729    0.239818    0.246391    0.246489    0.247773
     0.249131    0.249574    0.249992    0.250000    0.250000    0.250000
     0.250000    0.250000    0.250000    0.250000    0.250000    0.250000
     0.253421    0.253579    0.254365    0.257816    0.259239    0.263017
     0.291696    0.292422    0.306376    0.307457    0.320996    0.323309
     0.325074    0.326607    0.326918    0.327010    0.327027    0.327034
     0.328438    0.328579    0.328622    0.328734    0.330597    0.330712
     0.330817    0.330899    0.332446    0.332607    0.334635    0.334650
     0.334749    0.334984    0.335021    0.335025    0.335050    0.335159
     0.337954    0.339739    0.345810    0.346685    0.366394    0.393983
     0.404701    0.416567    0.831317    0.833268    0.837909    0.842361

 Minimum Search - Taking Simple RFO Step
 Searching for Lamda that Minimizes Along All modes
 Value Taken    Lamda =  -0.01381072
 Calculated Step too Large.  Step scaled by  0.373275
 Step Taken.  Stepsize is  0.300000

                             Maximum     Tolerance    Cnvgd?
         Gradient           0.008452      0.000300      NO
         Displacement       0.130581      0.001200      NO
         Energy change     *********      0.000001      NO


 New Cartesian Coordinates Obtained by Inverse Iteration

 Displacement from previous Coordinates is:  4.686453
 Adding empirical dispersion correction 
 ----------------------------------------------------------------
 Doing -D3(op) with
 s6 =   1.00000
 s8 =   0.78311
 a1 =   0.30000
 a2 =   4.25000
 n  =  10.00000
 -D3 energy without 3body term =     -0.0668151419 hartrees
 ----------------------------------------------------------------
             Standard Nuclear Orientation (Angstroms)
    I     Atom           X                Y                Z
 ----------------------------------------------------------------
    1      O      -5.7666481249     1.0500463437     1.4621921088
    2      C      -5.1644535743     1.0447414243     0.3685292613
    3      C      -4.8983232643    -0.1881468798    -0.5684053494
    4      C      -3.3701158343    -0.4003074665    -0.9255530777
    5      C      -2.4092276473     0.5617629779    -0.1478469075
    6      O      -1.3077304474     0.9184595958    -1.0063275251
    7      C      -0.1336327897     1.3087879524    -0.1846404955
    8      C       0.8863980118     1.9906208007    -1.1762010813
    9      O       2.3434409465     1.9056028761    -0.8922765888
   10      C       2.6495679004     1.1325059800     0.3109823872
   11      C       2.8912398958    -0.4069060785     0.0137720553
   12      C       4.2933493031    -0.8116828617    -0.6060352144
   13      C       5.4323614582     0.2698052109    -0.5194589359
   14      O       6.6628748616     0.0516379910    -0.5307989557
   15      O      -4.6517023433     2.2138867806    -0.2838467318
   16      O       4.8552507379     1.5695595459    -0.4222594734
   17      O       2.6994552853     1.6550853243     1.4424542506
   18      C       5.8965227061     2.6091664088    -0.2709586652
   19      C       2.8586526091    -1.3156455036     1.3157258115
   20      C       2.4207880083    -2.7640918752     0.8693134804
   21      C       3.7133469000    -3.2366086888     0.1034482988
   22      C       4.6873428086    -2.0166414382     0.3501417067
   23      O       4.2839365257    -1.4948357144     1.6776195670
   24      H       2.1048210722    -0.7230481301    -0.6934083762
   25      H       4.1890648133    -1.1284902659    -1.6602345714
   26      H       2.2973582012    -0.8764237925     2.1634672782
   27      H       2.2207385646    -3.3950653413     1.7502211331
   28      H       1.5234032207    -2.7549271392     0.2298043745
   29      H       4.1304601922    -4.1573528806     0.5411238545
   30      H       3.5314248006    -3.4081174310    -0.9697785112
   31      H       5.7689383726    -2.2552931007     0.3356824894
   32      O      -2.5360086715     0.9465696381     1.0349733279
   33      C      -4.7980074077     3.3901617602     0.6022211091
   34      C      -5.2416657795    -1.5568179710     0.1530579271
   35      C      -5.3969286043    -2.6715778897    -0.9526254561
   36      C      -3.8959280214    -2.8827020690    -1.3788419018
   37      C      -3.1550486574    -1.8884846593    -0.3992786358
   38      O      -3.9746181005    -1.9233273412     0.8309993106
   39      H      -5.4965461016    -0.0556829165    -1.4886615672
   40      H      -3.1706011926    -0.3118183403    -2.0077578745
   41      H      -4.1775173295     3.2804537205     1.5153363579
   42      H      -6.0651141119    -1.4822278873     0.8898000535
   43      H      -5.8245964160    -3.5892409091    -0.5182781696
   44      H      -6.0352960468    -2.3443281077    -1.7886460270
   45      H      -3.5654095307    -3.9176063708    -1.1963154617
   46      H      -3.7143263882    -2.6347408889    -2.4367292602
   47      H      -2.1023969006    -2.1488430183    -0.1737499553
   48      H      -5.8529806106     3.5451566396     0.9070878062
   49      H      -4.4472388194     4.2606259885     0.0179542236
   50      H       5.3541665664     3.5697354328    -0.1994601985
   51      H       6.5775542536     2.6262903637    -1.1460851496
   52      H       6.4980540449     2.4485696247     0.6469375071
   53      H       0.7147725524     1.5440595355    -2.1831019580
   54      H       0.6259156791     3.0698924398    -1.2476105513
   55      H       0.2894931567     0.3990857733     0.2880042194
   56      H      -0.4304627224     2.0056807520     0.6279578250
 ----------------------------------------------------------------
 Molecular Point Group                 C1    NOp =  1
 Largest Abelian Subgroup              C1    NOp =  1
 Nuclear Repulsion Energy =  3072.4852479601 hartrees
 There are      113 alpha and      113 beta electrons
 Applying Cartesian multipole field
    Component          Value
    ---------          -----
     (2,0,0)        1.00000E-12
     (0,2,0)        2.00000E-11
     (0,0,2)       -3.00000E-11
 Nucleus-field energy     =     0.0000000509 hartrees
 Requested basis set is STO-3G
 There are 86 shells and 176 basis functions
 A cutoff of  1.0D-12 yielded   2122 shell pairs
 There are      9748 function pairs
 Smallest overlap matrix eigenvalue = 2.13E-01
 Guess MOs from SCF MO coefficient file
 Reading MOs from coefficient file
 Reading MOs from coefficient file
 A restricted hybrid HF-DFT SCF calculation will be
 performed using Pulay DIIS extrapolation
 Exchange:     0.2000 Hartree-Fock + 0.0800 Slater + 0.7200 B88
 Correlation:  0.1900 VWN1RPA + 0.8100 LYP
 Using SG-1 standard quadrature grid
 Dispersion:   Grimme D3
 SCF converges when DIIS error is below 1.0E-08
 Geometry optimization detected.  Setting ReadMinima to 0
 Setting SaveMinima to 0
 using 48 threads for integral computing
 -------------------------------------------------------
 OpenMP Integral computing Module                
 Release: version 1.0, May 2013, Q-Chem Inc. Pittsburgh 
 -------------------------------------------------------
 -------------------------------------------------------
 OpenMP BLAS3 based DFT computing Module                
 Release: version 1.0, May 2013, Q-Chem Inc. Pittsburgh 
 -------------------------------------------------------
 ---------------------------------------
  Cycle       Energy         DIIS Error
 ---------------------------------------
    1   -1510.0399509496      6.49E-03
    2   -1510.2472158859      7.75E-04
    3   -1510.2443630241      1.22E-03
    4   -1510.2502255873      3.84E-04
    5   -1510.2508526592      9.33E-05
    6   -1510.2508894204      3.62E-05
    7   -1510.2508946418      1.79E-05
    8   -1510.2508960299      4.77E-06
    9   -1510.2508961378      1.14E-06
   10   -1510.2508961427      7.82E-07
   11   -1510.2508961454      3.04E-07
   12   -1510.2508961459      6.59E-08
   13   -1510.2508961459      4.37E-08
   14   -1510.2508961460      1.40E-08
   15   -1510.2508961460      2.69E-09 Convergence criterion met
 ---------------------------------------
 SCF time:  CPU 106.84 s  wall 2.23 s
 SCF   energy in the final basis set = -1510.25089615
 Total energy in the final basis set = -1510.25089615
 
 --------------------------------------------------------------
 
                    Orbital Energies (a.u.)
 --------------------------------------------------------------
 
 Alpha MOs
 -- Occupied --
-18.948 -18.935 -18.929 -18.894 -18.893 -18.891 -18.889 -18.884
-18.880 -18.873 -10.109 -10.106 -10.105 -10.097 -10.077 -10.071
-10.069 -10.066 -10.061 -10.061 -10.060 -10.060 -10.043 -10.042
-10.038 -10.036 -10.025 -10.024 -10.023 -10.022  -1.020  -1.016
 -1.006  -0.999  -0.974  -0.972  -0.943  -0.942  -0.933  -0.928
 -0.766  -0.765  -0.728  -0.726  -0.714  -0.706  -0.700  -0.666
 -0.659  -0.618  -0.602  -0.586  -0.549  -0.546  -0.541  -0.539
 -0.515  -0.512  -0.486  -0.478  -0.463  -0.462  -0.455  -0.446
 -0.439  -0.434  -0.430  -0.417  -0.413  -0.412  -0.409  -0.400
 -0.394  -0.382  -0.377  -0.375  -0.366  -0.360  -0.357  -0.353
 -0.349  -0.343  -0.336  -0.334  -0.332  -0.329  -0.324  -0.315
 -0.314  -0.310  -0.307  -0.304  -0.299  -0.294  -0.286  -0.276
 -0.274  -0.258  -0.252  -0.252  -0.237  -0.237  -0.232  -0.183
 -0.181  -0.172  -0.163  -0.160  -0.152  -0.150  -0.150  -0.147
 -0.144
 -- Virtual --
  0.078   0.087   0.098   0.110   0.204   0.229   0.239   0.253
  0.261   0.269   0.280   0.281   0.299   0.310   0.319   0.324
  0.330   0.334   0.339   0.342   0.347   0.356   0.360   0.367
  0.374   0.377   0.382   0.392   0.398   0.405   0.407   0.409
  0.415   0.417   0.419   0.421   0.426   0.428   0.428   0.430
  0.434   0.434   0.436   0.437   0.441   0.446   0.447   0.459
  0.462   0.464   0.477   0.484   0.488   0.502   0.504   0.538
  0.539   0.548   0.552   0.625   0.636   0.643   0.648
 --------------------------------------------------------------
 
          Ground-State Mulliken Net Atomic Charges

     Atom                 Charge (a.u.)
  ----------------------------------------
      1 O                    -0.209511
      2 C                     0.215227
      3 C                    -0.079524
      4 C                    -0.078312
      5 C                     0.213005
      6 O                    -0.175828
      7 C                    -0.055633
      8 C                    -0.051273
      9 O                    -0.195121
     10 C                     0.229887
     11 C                    -0.085182
     12 C                    -0.076738
     13 C                     0.214695
     14 O                    -0.211280
     15 O                    -0.175437
     16 O                    -0.162455
     17 O                    -0.187484
     18 C                    -0.123997
     19 C                     0.021757
     20 C                    -0.142871
     21 C                    -0.145009
     22 C                     0.024164
     23 O                    -0.189460
     24 H                     0.076594
     25 H                     0.086103
     26 H                     0.087844
     27 H                     0.079505
     28 H                     0.070349
     29 H                     0.079424
     30 H                     0.073027
     31 H                     0.090136
     32 O                    -0.206709
     33 C                    -0.128872
     34 C                     0.024559
     35 C                    -0.143608
     36 C                    -0.144003
     37 C                     0.025397
     38 O                    -0.187016
     39 H                     0.084437
     40 H                     0.086557
     41 H                     0.092964
     42 H                     0.092038
     43 H                     0.078846
     44 H                     0.073719
     45 H                     0.078139
     46 H                     0.073804
     47 H                     0.078998
     48 H                     0.089120
     49 H                     0.088445
     50 H                     0.098230
     51 H                     0.091806
     52 H                     0.093757
     53 H                     0.082311
     54 H                     0.083917
     55 H                     0.078975
     56 H                     0.097587
  ----------------------------------------
  Sum of atomic charges =    -0.000000

 -----------------------------------------------------------------
                    Cartesian Multipole Moments
 -----------------------------------------------------------------
    Charge (ESU x 10^10)
                 0.0000
    Dipole Moment (Debye)
         X      -1.0406      Y      -0.9886      Z      -4.0355
       Tot       4.2831
    Quadrupole Moments (Debye-Ang)
        XX    -169.4267     XY       1.5740     YY    -149.1314
        XZ       6.0597     YZ       2.7977     ZZ    -167.1564
    Octopole Moments (Debye-Ang^2)
       XXX     -75.0461    XXY      38.9891    XYY       4.6616
       YYY      57.4510    XXZ     -72.8607    XYZ      -8.6136
       YYZ       2.1832    XZZ       7.7262    YZZ       6.8425
       ZZZ      -3.5349
    Hexadecapole Moments (Debye-Ang^3)
      XXXX  -16721.4273   XXXY     279.5273   XXYY   -2976.1683
      XYYY    -125.8712   YYYY   -3432.5283   XXXZ     136.7669
      XXYZ      40.4177   XYYZ     -61.7188   YYYZ      -8.6305
      XXZZ   -2967.4160   XYZZ      -2.3762   YYZZ    -764.3277
      XZZZ    -116.1914   YZZZ     -10.0257   ZZZZ    -871.3857
 -----------------------------------------------------------------
 Calculating analytic gradient of the SCF energy
 Gradient of SCF Energy
            1           2           3           4           5           6
    1  -0.0008538   0.0007777  -0.0005156  -0.0000807   0.0003437   0.0000641
    2  -0.0000110  -0.0000116   0.0001041  -0.0028069  -0.0024657   0.0073139
    3  -0.0004482   0.0000116  -0.0003275   0.0012570   0.0005370  -0.0015663
            7           8           9          10          11          12
    1   0.0001569  -0.0001815   0.0018753  -0.0018015   0.0003183  -0.0012142
    2  -0.0061419   0.0003198   0.0005940   0.0008193  -0.0020124   0.0006745
    3  -0.0005627   0.0005634  -0.0000534  -0.0015943   0.0047363  -0.0026263
           13          14          15          16          17          18
    1   0.0000444   0.0000264   0.0007483   0.0003735   0.0014075   0.0002322
    2  -0.0000966  -0.0000410  -0.0003480  -0.0000096   0.0003184   0.0000160
    3   0.0000187   0.0000030   0.0003954   0.0009838  -0.0011381  -0.0000292
           19          20          21          22          23          24
    1   0.0001877  -0.0000404  -0.0001527   0.0002703   0.0001526   0.0015522
    2   0.0001412  -0.0001470   0.0000674   0.0000132  -0.0000779  -0.0007151
    3  -0.0004598   0.0002126  -0.0001697   0.0000269  -0.0001616   0.0002350
           25          26          27          28          29          30
    1  -0.0000479   0.0000271  -0.0000108  -0.0001853  -0.0000359  -0.0000062
    2  -0.0000121   0.0002735  -0.0000217   0.0000730   0.0000017  -0.0000814
    3   0.0000696  -0.0000176  -0.0000645  -0.0001618   0.0000746   0.0000626
           31          32          33          34          35          36
    1  -0.0000068  -0.0020045   0.0002009   0.0000340  -0.0000368   0.0002430
    2  -0.0000143   0.0018525   0.0001158  -0.0001817   0.0002605   0.0002732
    3   0.0000355  -0.0007728   0.0000815   0.0002040  -0.0000522  -0.0000159
           37          38          39          40          41          42
    1   0.0001449   0.0001557  -0.0003520   0.0001411  -0.0000503  -0.0000329
    2   0.0002753  -0.0000632  -0.0000520  -0.0000575  -0.0000245  -0.0001561
    3   0.0003793  -0.0000499   0.0002927   0.0000216  -0.0000314   0.0000009
           43          44          45          46          47          48
    1   0.0000347   0.0001190  -0.0000261   0.0000169   0.0000657  -0.0000487
    2  -0.0000355   0.0000071   0.0000253  -0.0001071  -0.0000582  -0.0000633
    3  -0.0000017   0.0000015   0.0001120   0.0000060   0.0000324  -0.0000392
           49          50          51          52          53          54
    1  -0.0000122  -0.0000172  -0.0001019   0.0000140   0.0001124  -0.0002257
    2   0.0000093  -0.0000271  -0.0000921   0.0000946   0.0007530   0.0000310
    3  -0.0000147  -0.0000648   0.0000180  -0.0000053  -0.0002900   0.0008664
           55          56
    1  -0.0018140   0.0000151
    2   0.0011652   0.0003396
    3  -0.0002632  -0.0002570
 Max gradient component =       7.314E-03
 RMS gradient           =       1.042E-03
 Gradient time:  CPU 29.67 s  wall 0.62 s
 Geometry Optimization Parameters
   NAtoms,    NIC,     NZ,  NCons,   NDum,   NFix, NCnnct, MaxDiis
       56     458       0       0       0       0       0       0

 Cartesian Hessian Update
 Hessian Updated using BFGS Update


** GEOMETRY OPTIMIZATION IN DELOCALIZED INTERNAL COORDINATES **
   Searching for a Minimum

   Optimization Cycle:   2

                       Coordinates (Angstroms)
     ATOM                X               Y               Z
      1  O        -5.7666481249    1.0500463437    1.4621921088
      2  C        -5.1644535743    1.0447414243    0.3685292613
      3  C        -4.8983232643   -0.1881468798   -0.5684053494
      4  C        -3.3701158343   -0.4003074665   -0.9255530777
      5  C        -2.4092276473    0.5617629779   -0.1478469075
      6  O        -1.3077304474    0.9184595958   -1.0063275251
      7  C        -0.1336327897    1.3087879524   -0.1846404955
      8  C         0.8863980118    1.9906208007   -1.1762010813
      9  O         2.3434409465    1.9056028761   -0.8922765888
     10  C         2.6495679004    1.1325059800    0.3109823872
     11  C         2.8912398958   -0.4069060785    0.0137720553
     12  C         4.2933493031   -0.8116828617   -0.6060352144
     13  C         5.4323614582    0.2698052109   -0.5194589359
     14  O         6.6628748616    0.0516379910   -0.5307989557
     15  O        -4.6517023433    2.2138867806   -0.2838467318
     16  O         4.8552507379    1.5695595459   -0.4222594734
     17  O         2.6994552853    1.6550853243    1.4424542506
     18  C         5.8965227061    2.6091664088   -0.2709586652
     19  C         2.8586526091   -1.3156455036    1.3157258115
     20  C         2.4207880083   -2.7640918752    0.8693134804
     21  C         3.7133469000   -3.2366086888    0.1034482988
     22  C         4.6873428086   -2.0166414382    0.3501417067
     23  O         4.2839365257   -1.4948357144    1.6776195670
     24  H         2.1048210722   -0.7230481301   -0.6934083762
     25  H         4.1890648133   -1.1284902659   -1.6602345714
     26  H         2.2973582012   -0.8764237925    2.1634672782
     27  H         2.2207385646   -3.3950653413    1.7502211331
     28  H         1.5234032207   -2.7549271392    0.2298043745
     29  H         4.1304601922   -4.1573528806    0.5411238545
     30  H         3.5314248006   -3.4081174310   -0.9697785112
     31  H         5.7689383726   -2.2552931007    0.3356824894
     32  O        -2.5360086715    0.9465696381    1.0349733279
     33  C        -4.7980074077    3.3901617602    0.6022211091
     34  C        -5.2416657795   -1.5568179710    0.1530579271
     35  C        -5.3969286043   -2.6715778897   -0.9526254561
     36  C        -3.8959280214   -2.8827020690   -1.3788419018
     37  C        -3.1550486574   -1.8884846593   -0.3992786358
     38  O        -3.9746181005   -1.9233273412    0.8309993106
     39  H        -5.4965461016   -0.0556829165   -1.4886615672
     40  H        -3.1706011926   -0.3118183403   -2.0077578745
     41  H        -4.1775173295    3.2804537205    1.5153363579
     42  H        -6.0651141119   -1.4822278873    0.8898000535
     43  H        -5.8245964160   -3.5892409091   -0.5182781696
     44  H        -6.0352960468   -2.3443281077   -1.7886460270
     45  H        -3.5654095307   -3.9176063708   -1.1963154617
     46  H        -3.7143263882   -2.6347408889   -2.4367292602
     47  H        -2.1023969006   -2.1488430183   -0.1737499553
     48  H        -5.8529806106    3.5451566396    0.9070878062
     49  H        -4.4472388194    4.2606259885    0.0179542236
     50  H         5.3541665664    3.5697354328   -0.1994601985
     51  H         6.5775542536    2.6262903637   -1.1460851496
     52  H         6.4980540449    2.4485696247    0.6469375071
     53  H         0.7147725524    1.5440595355   -2.1831019580
     54  H         0.6259156791    3.0698924398   -1.2476105513
     55  H         0.2894931567    0.3990857733    0.2880042194
     56  H        -0.4304627224    2.0056807520    0.6279578250
   Point Group: c1    Number of degrees of freedom:   162


   Energy is  -1510.250896146

 Hessian Updated using BFGS Update

149 Hessian modes will be used to form the next step
  Hessian Eigenvalues:
     0.001833    0.002212    0.002651    0.002706    0.003117    0.004092
     0.004312    0.004353    0.004445    0.004816    0.005076    0.005176
     0.006591    0.006807    0.007466    0.011193    0.012264    0.021481
     0.021676    0.023489    0.025851    0.026856    0.030676    0.030883
     0.035337    0.035385    0.038924    0.040938    0.041601    0.041926
     0.042328    0.044362    0.045991    0.047082    0.047670    0.051217
     0.051372    0.052323    0.053492    0.054306    0.054519    0.055221
     0.055436    0.055507    0.055797    0.057966    0.058852    0.059474
     0.060436    0.060770    0.063347    0.063772    0.064156    0.064488
     0.070002    0.070142    0.072963    0.073073    0.092122    0.092418
     0.092817    0.093315    0.095852    0.096690    0.097132    0.097286
     0.102722    0.103176    0.108339    0.110098    0.112238    0.120594
     0.120960    0.121342    0.134143    0.144555    0.157395    0.157975
     0.160000    0.160036    0.162830    0.164165    0.218542    0.218983
     0.220730    0.228209    0.228638    0.229531    0.238178    0.238277
     0.239727    0.239820    0.246390    0.246496    0.247883    0.249044
     0.249574    0.249936    0.249993    0.250000    0.253416    0.253574
     0.254239    0.257799    0.259213    0.262963    0.286881    0.292197
     0.292808    0.306359    0.307471    0.320998    0.323309    0.325074
     0.326607    0.326918    0.327027    0.327034    0.328437    0.328478
     0.328599    0.328668    0.328737    0.330598    0.330717    0.330817
     0.330899    0.332446    0.333093    0.334648    0.334660    0.334750
     0.334984    0.335021    0.335025    0.335051    0.335159    0.339718
     0.345771    0.346399    0.347008    0.366842    0.399420    0.404710
     0.416581    0.831318    0.833268    0.837909    0.842716

 Minimum Search - Taking Simple RFO Step
 Searching for Lamda that Minimizes Along All modes
 Value Taken    Lamda =  -0.00988683
 Calculated Step too Large.  Step scaled by  0.369170
 Step Taken.  Stepsize is  0.300000

                             Maximum     Tolerance    Cnvgd?
         Gradient           0.006563      0.000300      NO
         Displacement       0.124121      0.001200      NO
         Energy change     -0.004092      0.000001      NO


 New Cartesian Coordinates Obtained by Inverse Iteration

 Displacement from previous Coordinates is:  3.377794
 Adding empirical dispersion correction 
 ----------------------------------------------------------------
 Doing -D3(op) with
 s6 =   1.00000
 s8 =   0.78311
 a1 =   0.30000
 a2 =   4.25000
 n  =  10.00000
 -D3 energy without 3body term =     -0.0667519850 hartrees
 ----------------------------------------------------------------
             Standard Nuclear Orientation (Angstroms)
    I     Atom           X                Y                Z
 ----------------------------------------------------------------
    1      O      -5.6064852659     1.0650835805     1.5917427569
    2      C      -5.0672476059     1.0702676614     0.4657140216
    3      C      -4.9403768287    -0.1326293071    -0.5377451474
    4      C      -3.4503665641    -0.4525098507    -0.9704076897
    5      C      -2.3818348363     0.3808009495    -0.1854435360
    6      O      -1.2896105171     0.6887015866    -1.0711112180
    7      C      -0.1225862591     1.1670538880    -0.2862390294
    8      C       0.8700750420     1.8100519997    -1.3279212380
    9      O       2.3218188653     1.8050311393    -1.0177619070
   10      C       2.6214489869     1.0964625930     0.2255454955
   11      C       2.9566642425    -0.4337865318    -0.0115026582
   12      C       4.4171093153    -0.7794495147    -0.5241931287
   13      C       5.4788070032     0.3761556320    -0.4209946181
   14      O       6.7183858998     0.2393446186    -0.3398502164
   15      O      -4.5279037925     2.2356447870    -0.1720195696
   16      O       4.8163999422     1.6380575261    -0.4539533129
   17      O       2.5494524361     1.6462138357     1.3431885294
   18      C       5.7754674040     2.7528378499    -0.2950981479
   19      C       2.8920070720    -1.2985889866     1.3203956316
   20      C       2.5731032473    -2.7869462249     0.9056891503
   21      C       3.9408001149    -3.2060194147     0.2467915189
   22      C       4.8198115573    -1.9186715585     0.5054988391
   23      O       4.2976294077    -1.3746861953     1.7812926468
   24      H       2.2286171764    -0.8126694170    -0.7510362006
   25      H       4.4001092789    -1.1445530174    -1.5677923920
   26      H       2.2508373969    -0.8658917804     2.1129579082
   27      H       2.3521496910    -3.3959914324     1.7970155506
   28      H       1.7222602095    -2.8579665948     0.2093419981
   29      H       4.3823391334    -4.0816647222     0.7483612841
   30      H       3.8427979971    -3.4282222148    -0.8281121232
   31      H       5.9125015960    -2.0885900928     0.5701121620
   32      O      -2.4259105181     0.7091524682     1.0201341979
   33      C      -4.5530980985     3.3801542825     0.7658049315
   34      C      -5.3699068554    -1.5023333909     0.1335828848
   35      C      -5.6682052794    -2.5420526376    -1.0151183974
   36      C      -4.2106322084    -2.8553257383    -1.5213967175
   37      C      -3.3455099241    -1.9800998368    -0.5295614041
   38      O      -4.1126490168    -2.0094232063     0.7341845949
   39      H      -5.5619742657     0.0932806630    -1.4237281374
   40      H      -3.2857726678    -0.3236490764    -2.0544324051
   41      H      -3.8859976019     3.1986442482     1.6335246581
   42      H      -6.1521706043    -1.3956037601     0.9101586839
   43      H      -6.1544212163    -3.4416974421    -0.6053912896
   44      H      -6.3115567154    -2.1195668938    -1.8033154061
   45      H      -3.9630844708    -3.9225774562    -1.4060013764
   46      H      -4.0535303982    -2.5675015790    -2.5731109940
   47      H      -2.3112033883    -2.3403868637    -0.3653220235
   48      H      -5.5770472157     3.5803715229     1.1417385787
   49      H      -4.1885887434     4.2535365376     0.1944658912
   50      H       5.1699988769     3.6772255460    -0.3254198428
   51      H       6.5198289957     2.7638881961    -1.1172296903
   52      H       6.3131545368     2.6880610577     0.6728188125
   53      H       0.7246552604     1.2835587553    -2.2997756471
   54      H       0.5695094651     2.8704904640    -1.4790916231
   55      H       0.3367877138     0.3071674139     0.2457120579
   56      H      -0.4386889957     1.9087838587     0.4779394009
 ----------------------------------------------------------------
 Molecular Point Group                 C1    NOp =  1
 Largest Abelian Subgroup              C1    NOp =  1
 Nuclear Repulsion Energy =  3068.4937831936 hartrees
 There are      113 alpha and      113 beta electrons
 Applying Cartesian multipole field
    Component          Value
    ---------          -----
     (2,0,0)        1.00000E-12
     (0,2,0)        2.00000E-11
     (0,0,2)       -3.00000E-11
 Nucleus-field energy     =     0.0000000481 hartrees
 Requested basis set is STO-3G
 There are 86 shells and 176 basis functions
 A cutoff of  1.0D-12 yielded   2106 shell pairs
 There are      9693 function pairs
 Smallest overlap matrix eigenvalue = 2.13E-01
 Guess MOs from SCF MO coefficient file
 Reading MOs from coefficient file
 Reading MOs from coefficient file
 A restricted hybrid HF-DFT SCF calculation will be
 performed using Pulay DIIS extrapolation
 Exchange:     0.2000 Hartree-Fock + 0.0800 Slater + 0.7200 B88
 Correlation:  0.1900 VWN1RPA + 0.8100 LYP
 Using SG-1 standard quadrature grid
 Dispersion:   Grimme D3
 SCF converges when DIIS error is below 1.0E-08
 Geometry optimization detected.  Setting ReadMinima to 0
 Setting SaveMinima to 0
 using 48 threads for integral computing
 -------------------------------------------------------
 OpenMP Integral computing Module                
 Release: version 1.0, May 2013, Q-Chem Inc. Pittsburgh 
 -------------------------------------------------------
 -------------------------------------------------------
 OpenMP BLAS3 based DFT computing Module                
 Release: version 1.0, May 2013, Q-Chem Inc. Pittsburgh 
 -------------------------------------------------------
 ---------------------------------------
  Cycle       Energy         DIIS Error
 ---------------------------------------
    1   -1510.1227532076      5.22E-03
    2   -1510.2518483571      5.26E-04
    3   -1510.2505942081      8.37E-04
    4   -1510.2534215087      2.50E-04
    5   -1510.2536785329      7.63E-05
    6   -1510.2537028774      2.93E-05
    7   -1510.2537060153      1.52E-05
    8   -1510.2537070133      2.99E-06
    9   -1510.2537070570      8.21E-07
   10   -1510.2537070596      5.62E-07
   11   -1510.2537070610      2.18E-07
   12   -1510.2537070612      5.18E-08
   13   -1510.2537070613      3.35E-08
   14   -1510.2537070613      9.30E-09 Convergence criterion met
 ---------------------------------------
 SCF time:  CPU 97.72 s  wall 2.04 s
 SCF   energy in the final basis set = -1510.25370706
 Total energy in the final basis set = -1510.25370706
 
 --------------------------------------------------------------
 
                    Orbital Energies (a.u.)
 --------------------------------------------------------------
 
 Alpha MOs
 -- Occupied --
-18.949 -18.937 -18.928 -18.893 -18.892 -18.890 -18.889 -18.881
-18.881 -18.873 -10.109 -10.106 -10.104 -10.097 -10.076 -10.071
-10.070 -10.065 -10.061 -10.060 -10.060 -10.059 -10.043 -10.041
-10.038 -10.036 -10.024 -10.023 -10.022 -10.022  -1.020  -1.017
 -1.006  -0.999  -0.973  -0.972  -0.943  -0.943  -0.933  -0.928
 -0.765  -0.765  -0.728  -0.725  -0.713  -0.706  -0.699  -0.667
 -0.659  -0.618  -0.602  -0.585  -0.548  -0.546  -0.540  -0.539
 -0.515  -0.511  -0.486  -0.477  -0.463  -0.461  -0.455  -0.446
 -0.440  -0.433  -0.429  -0.417  -0.414  -0.412  -0.409  -0.399
 -0.394  -0.382  -0.377  -0.374  -0.365  -0.359  -0.356  -0.353
 -0.348  -0.343  -0.335  -0.333  -0.332  -0.329  -0.325  -0.315
 -0.313  -0.310  -0.306  -0.302  -0.299  -0.295  -0.285  -0.275
 -0.273  -0.259  -0.252  -0.251  -0.237  -0.237  -0.232  -0.184
 -0.182  -0.173  -0.163  -0.160  -0.152  -0.150  -0.150  -0.146
 -0.143
 -- Virtual --
  0.078   0.089   0.098   0.110   0.206   0.229   0.240   0.254
  0.262   0.270   0.281   0.282   0.299   0.310   0.321   0.325
  0.329   0.334   0.340   0.343   0.347   0.357   0.360   0.368
  0.375   0.377   0.383   0.393   0.399   0.406   0.408   0.410
  0.416   0.417   0.420   0.420   0.427   0.428   0.428   0.430
  0.434   0.434   0.435   0.437   0.441   0.446   0.447   0.458
  0.463   0.464   0.477   0.485   0.489   0.503   0.505   0.538
  0.539   0.549   0.552   0.625   0.636   0.644   0.648
 --------------------------------------------------------------
 
          Ground-State Mulliken Net Atomic Charges

     Atom                 Charge (a.u.)
  ----------------------------------------
      1 O                    -0.209287
      2 C                     0.215011
      3 C                    -0.079333
      4 C                    -0.078143
      5 C                     0.211492
      6 O                    -0.173983
      7 C                    -0.055143
      8 C                    -0.051061
      9 O                    -0.196187
     10 C                     0.230286
     11 C                    -0.084992
     12 C                    -0.076821
     13 C                     0.214909
     14 O                    -0.210585
     15 O                    -0.175742
     16 O                    -0.162052
     17 O                    -0.188896
     18 C                    -0.124043
     19 C                     0.021751
     20 C                    -0.143061
     21 C                    -0.144939
     22 C                     0.024192
     23 O                    -0.189551
     24 H                     0.077370
     25 H                     0.086242
     26 H                     0.087842
     27 H                     0.079523
     28 H                     0.070997
     29 H                     0.079347
     30 H                     0.073014
     31 H                     0.089989
     32 O                    -0.208789
     33 C                    -0.129030
     34 C                     0.024591
     35 C                    -0.143623
     36 C                    -0.144081
     37 C                     0.025457
     38 O                    -0.186999
     39 H                     0.084422
     40 H                     0.086495
     41 H                     0.092593
     42 H                     0.091790
     43 H                     0.078725
     44 H                     0.073487
     45 H                     0.078100
     46 H                     0.073701
     47 H                     0.079752
     48 H                     0.089304
     49 H                     0.088290
     50 H                     0.098316
     51 H                     0.092049
     52 H                     0.093841
     53 H                     0.081637
     54 H                     0.083616
     55 H                     0.080363
     56 H                     0.097847
  ----------------------------------------
  Sum of atomic charges =    -0.000000

 -----------------------------------------------------------------
                    Cartesian Multipole Moments
 -----------------------------------------------------------------
    Charge (ESU x 10^10)
                 0.0000
    Dipole Moment (Debye)
         X      -0.9565      Y      -0.8672      Z      -4.1528
       Tot       4.3488
    Quadrupole Moments (Debye-Ang)
        XX    -167.2197     XY       0.3306     YY    -148.6501
        XZ       5.7768     YZ       3.0275     ZZ    -167.2568
    Octopole Moments (Debye-Ang^2)
       XXX     -87.7876    XXY      32.7594    XYY      11.0957
       YYY      63.2564    XXZ     -77.5633    XYZ     -10.2618
       YYZ       3.0142    XZZ       7.1002    YZZ       8.4439
       ZZZ      -5.1878
    Hexadecapole Moments (Debye-Ang^3)
      XXXX  -16952.3201   XXXY     140.3514   XXYY   -3005.6987
      XYYY    -192.8797   YYYY   -3357.9979   XXXZ      27.1741
      XXYZ      44.7716   XYYZ     -78.5827   YYYZ      -8.1871
      XXZZ   -3015.9013   XYZZ     -34.7880   YYZZ    -757.1112
      XZZZ    -174.9830   YZZZ     -14.8054   ZZZZ    -947.7462
 -----------------------------------------------------------------
 Calculating analytic gradient of the SCF energy
 Gradient of SCF Energy
            1           2           3           4           5           6
    1  -0.0012622   0.0019059  -0.0011426  -0.0005401  -0.0000511   0.0015386
    2   0.0001820  -0.0000720  -0.0000416  -0.0008044  -0.0022214   0.0046585
    3  -0.0006594   0.0005864  -0.0006898   0.0009831   0.0015102  -0.0023388
            7           8           9          10          11          12
    1   0.0008380   0.0007303   0.0000510   0.0004290  -0.0017221  -0.0007078
    2  -0.0036989  -0.0009199  -0.0000007   0.0014097  -0.0009582   0.0009765
    3   0.0001799  -0.0003312   0.0007082  -0.0015754   0.0027197  -0.0024158
           13          14          15          16          17          18
    1  -0.0003361   0.0001737  -0.0004505   0.0009778  -0.0007472   0.0000513
    2   0.0005950  -0.0001877   0.0001896  -0.0002412  -0.0001501  -0.0000823
    3   0.0012202  -0.0005333  -0.0000079   0.0001386  -0.0005528  -0.0003563
           19          20          21          22          23          24
    1   0.0002853  -0.0001643  -0.0000251   0.0000407   0.0003272   0.0007393
    2   0.0006146  -0.0003636   0.0003003  -0.0005226  -0.0002072  -0.0010959
    3  -0.0004983   0.0002815  -0.0000005   0.0000751   0.0002031   0.0001856
           25          26          27          28          29          30
    1   0.0000637   0.0001288  -0.0000576  -0.0001257   0.0000173  -0.0000260
    2   0.0000924   0.0002171  -0.0000716   0.0000423   0.0000430  -0.0000459
    3   0.0001905  -0.0000021  -0.0000573  -0.0000660   0.0000483  -0.0000940
           31          32          33          34          35          36
    1  -0.0000179  -0.0008414  -0.0000175   0.0004126  -0.0002556   0.0000606
    2  -0.0000520   0.0004887   0.0001735  -0.0000382  -0.0002453   0.0001306
    3   0.0000221  -0.0003018   0.0000868  -0.0000323   0.0000780  -0.0003109
           37          38          39          40          41          42
    1   0.0000297   0.0002040  -0.0004642   0.0002074  -0.0000003  -0.0000448
    2   0.0006482  -0.0001598  -0.0004408  -0.0000967  -0.0001099  -0.0001037
    3   0.0004207  -0.0000889   0.0003051  -0.0000317  -0.0001209   0.0000392
           43          44          45          46          47          48
    1   0.0000493   0.0000676  -0.0000382   0.0000915  -0.0000053  -0.0000240
    2  -0.0000010   0.0001655   0.0000095  -0.0002174  -0.0000028  -0.0000158
    3  -0.0000385   0.0001227   0.0001535  -0.0000070   0.0001224  -0.0000513
           49          50          51          52          53          54
    1  -0.0000033  -0.0000114  -0.0000015   0.0000098   0.0000192   0.0000073
    2  -0.0000388  -0.0000106   0.0000047   0.0000000   0.0009136   0.0002213
    3  -0.0000009  -0.0000141   0.0000665   0.0000172  -0.0003968   0.0014082
           55          56
    1  -0.0000688  -0.0003042
    2   0.0004207   0.0007206
    3   0.0002711  -0.0005698
 Max gradient component =       4.659E-03
 RMS gradient           =       7.766E-04
 Gradient time:  CPU 29.44 s  wall 0.62 s
 Geometry Optimization Parameters
   NAtoms,    NIC,     NZ,  NCons,   NDum,   NFix, NCnnct, MaxDiis
       56     458       0       0       0       0       0       0

 Cartesian Hessian Update
 Hessian Updated using BFGS Update


** GEOMETRY OPTIMIZATION IN DELOCALIZED INTERNAL COORDINATES **
   Searching for a Minimum

   Optimization Cycle:   3

                       Coordinates (Angstroms)
     ATOM                X               Y               Z
      1  O        -5.6064852659    1.0650835805    1.5917427569
      2  C        -5.0672476059    1.0702676614    0.4657140216
      3  C        -4.9403768287   -0.1326293071   -0.5377451474
      4  C        -3.4503665641   -0.4525098507   -0.9704076897
      5  C        -2.3818348363    0.3808009495   -0.1854435360
      6  O        -1.2896105171    0.6887015866   -1.0711112180
      7  C        -0.1225862591    1.1670538880   -0.2862390294
      8  C         0.8700750420    1.8100519997   -1.3279212380
      9  O         2.3218188653    1.8050311393   -1.0177619070
     10  C         2.6214489869    1.0964625930    0.2255454955
     11  C         2.9566642425   -0.4337865318   -0.0115026582
     12  C         4.4171093153   -0.7794495147   -0.5241931287
     13  C         5.4788070032    0.3761556320   -0.4209946181
     14  O         6.7183858998    0.2393446186   -0.3398502164
     15  O        -4.5279037925    2.2356447870   -0.1720195696
     16  O         4.8163999422    1.6380575261   -0.4539533129
     17  O         2.5494524361    1.6462138357    1.3431885294
     18  C         5.7754674040    2.7528378499   -0.2950981479
     19  C         2.8920070720   -1.2985889866    1.3203956316
     20  C         2.5731032473   -2.7869462249    0.9056891503
     21  C         3.9408001149   -3.2060194147    0.2467915189
     22  C         4.8198115573   -1.9186715585    0.5054988391
     23  O         4.2976294077   -1.3746861953    1.7812926468
     24  H         2.2286171764   -0.8126694170   -0.7510362006
     25  H         4.4001092789   -1.1445530174   -1.5677923920
     26  H         2.2508373969   -0.8658917804    2.1129579082
     27  H         2.3521496910   -3.3959914324    1.7970155506
     28  H         1.7222602095   -2.8579665948    0.2093419981
     29  H         4.3823391334   -4.0816647222    0.7483612841
     30  H         3.8427979971   -3.4282222148   -0.8281121232
     31  H         5.9125015960   -2.0885900928    0.5701121620
     32  O        -2.4259105181    0.7091524682    1.0201341979
     33  C        -4.5530980985    3.3801542825    0.7658049315
     34  C        -5.3699068554   -1.5023333909    0.1335828848
     35  C        -5.6682052794   -2.5420526376   -1.0151183974
     36  C        -4.2106322084   -2.8553257383   -1.5213967175
     37  C        -3.3455099241   -1.9800998368   -0.5295614041
     38  O        -4.1126490168   -2.0094232063    0.7341845949
     39  H        -5.5619742657    0.0932806630   -1.4237281374
     40  H        -3.2857726678   -0.3236490764   -2.0544324051
     41  H        -3.8859976019    3.1986442482    1.6335246581
     42  H        -6.1521706043   -1.3956037601    0.9101586839
     43  H        -6.1544212163   -3.4416974421   -0.6053912896
     44  H        -6.3115567154   -2.1195668938   -1.8033154061
     45  H        -3.9630844708   -3.9225774562   -1.4060013764
     46  H        -4.0535303982   -2.5675015790   -2.5731109940
     47  H        -2.3112033883   -2.3403868637   -0.3653220235
     48  H        -5.5770472157    3.5803715229    1.1417385787
     49  H        -4.1885887434    4.2535365376    0.1944658912
     50  H         5.1699988769    3.6772255460   -0.3254198428
     51  H         6.5198289957    2.7638881961   -1.1172296903
     52  H         6.3131545368    2.6880610577    0.6728188125
     53  H         0.7246552604    1.2835587553   -2.2997756471
     54  H         0.5695094651    2.8704904640   -1.4790916231
     55  H         0.3367877138    0.3071674139    0.2457120579
     56  H        -0.4386889957    1.9087838587    0.4779394009
   Point Group: c1    Number of degrees of freedom:   162


   Energy is  -1510.253707061

 Hessian Updated using BFGS Update

152 Hessian modes will be used to form the next step
  Hessian Eigenvalues:
     0.001842    0.002082    0.002327    0.002654    0.002741    0.003483
     0.004042    0.004276    0.004403    0.004478    0.005076    0.005176
     0.005900    0.006691    0.006968    0.011192    0.012076    0.015623
     0.019286    0.021712    0.021907    0.025952    0.026838    0.030690
     0.031171    0.035338    0.035511    0.038757    0.040592    0.041473
     0.041955    0.042135    0.044365    0.046437    0.047440    0.048751
     0.051274    0.051393    0.052299    0.053514    0.054464    0.054571
     0.055219    0.055441    0.055515    0.055795    0.058125    0.058928
     0.059560    0.060662    0.060981    0.063347    0.063775    0.064159
     0.064489    0.070000    0.070158    0.072977    0.073073    0.092316
     0.092611    0.092900    0.093292    0.096321    0.097132    0.097266
     0.097328    0.102726    0.103181    0.108652    0.110618    0.112254
     0.120936    0.121054    0.123750    0.134167    0.145095    0.157750
     0.159091    0.160000    0.160019    0.160161    0.162828    0.164148
     0.218553    0.219093    0.220542    0.228343    0.228613    0.231721
     0.238192    0.238272    0.239744    0.239854    0.246417    0.246495
     0.247901    0.248817    0.249573    0.249867    0.249993    0.250000
     0.252278    0.253456    0.253576    0.254227    0.257944    0.259203
     0.263209    0.291598    0.292419    0.302057    0.306985    0.307962
     0.320998    0.323309    0.325087    0.326608    0.326918    0.327027
     0.327034    0.328438    0.328555    0.328609    0.328734    0.328849
     0.330610    0.330716    0.330818    0.330899    0.332447    0.333024
     0.334645    0.334658    0.334750    0.334985    0.335021    0.335025
     0.335051    0.335159    0.339734    0.345806    0.346665    0.359929
     0.383882    0.396065    0.404762    0.417248    0.831341    0.833279
     0.837913    0.842581

 Minimum Search - Taking Simple RFO Step
 Searching for Lamda that Minimizes Along All modes
 Value Taken    Lamda =  -0.00625614
 Calculated Step too Large.  Step scaled by  0.407159
 Step Taken.  Stepsize is  0.300000

                             Maximum     Tolerance    Cnvgd?
         Gradient           0.005723      0.000300      NO
         Displacement       0.152145      0.001200      NO
         Energy change     -0.002811      0.000001      NO


 New Cartesian Coordinates Obtained by Inverse Iteration

 Displacement from previous Coordinates is:  4.641380
 Adding empirical dispersion correction 
 ----------------------------------------------------------------
 Doing -D3(op) with
 s6 =   1.00000
 s8 =   0.78311
 a1 =   0.30000
 a2 =   4.25000
 n  =  10.00000
 -D3 energy without 3body term =     -0.0669478340 hartrees
 ----------------------------------------------------------------
             Standard Nuclear Orientation (Angstroms)
    I     Atom           X                Y                Z
 ----------------------------------------------------------------
    1      O      -5.4470928065     1.1079196510     1.6891620818
    2      C      -4.9730525839     1.1233830052     0.5342470119
    3      C      -5.0066855822    -0.0328102198    -0.5299434024
    4      C      -3.5731953789    -0.4814462350    -1.0299534371
    5      C      -2.4114476019     0.2172304718    -0.2488914447
    6      O      -1.3189465882     0.4372766748    -1.1529217290
    7      C      -0.1439659169     0.9586991318    -0.4077816168
    8      C       0.8381715226     1.5379076282    -1.4941777000
    9      O       2.2823702752     1.5946576932    -1.1606771199
   10      C       2.5658619206     0.9676185118     0.1299943639
   11      C       3.0527457626    -0.5288297761    -0.0290769746
   12      C       4.5681957389    -0.7421402292    -0.4429071683
   13      C       5.4789535395     0.5352516973    -0.3513770516
   14      O       6.7159002327     0.5576777859    -0.1749474646
   15      O      -4.3157075773     2.2505396884    -0.0600886950
   16      O       4.6673324808     1.7010736214    -0.4800914782
   17      O       2.4207846202     1.5628427948     1.2173439987
   18      C       5.4626874055     2.9346467837    -0.2969097768
   19      C       2.9997521828    -1.3410129944     1.3379852031
   20      C       2.8727694345    -2.8722829469     0.9815419329
   21      C       4.3174634332    -3.1656211090     0.4273236400
   22      C       5.0307996847    -1.7765762831     0.6675364436
   23      O       4.3734481081    -1.2378458088     1.8812640377
   24      H       2.4007268448    -1.0020893069    -0.7864184385
   25      H       4.6533704375    -1.1562360701    -1.4649266665
   26      H       2.2682969055    -0.9496763956     2.0715880409
   27      H       2.6635975680    -3.4610756421     1.8891958746
   28      H       2.0810180498    -3.0700076785     0.2418033567
   29      H       4.8196675702    -3.9620125627     0.9990087596
   30      H       4.3130782909    -3.4462883742    -0.6382394029
   31      H       6.1295474983    -1.8179177861     0.8020477832
   32      O      -2.3864804950     0.5034416749     0.9679650799
   33      C      -4.1636999662     3.3300647946     0.9406837815
   34      C      -5.5560502220    -1.3822979559     0.0923389799
   35      C      -5.9915589818    -2.3318464931    -1.0903903706
   36      C      -4.5888866204    -2.7677623212    -1.6570054370
   37      C      -3.6107130253    -2.0309632362    -0.6576241996
   38      O      -4.3408754543    -2.0411065168     0.6284914668
   39      H      -5.6270367155     0.3019198769    -1.3818659959
   40      H      -3.4314479072    -0.3207438277    -2.1128979580
   41      H      -3.4927712691     3.0166541962     1.7669850333
   42      H      -6.3006320571    -1.2331443283     0.8983220646
   43      H      -6.5563822592    -3.1953650451    -0.7043416127
   44      H      -6.6100649934    -1.8107710979    -1.8385913876
   45      H      -4.4486846341    -3.8588463397    -1.5973957325
   46      H      -4.4333763442    -2.4474011218    -2.6995604163
   47      H      -2.6139005123    -2.4998784675    -0.5440228621
   48      H      -5.1400140240     3.6307910610     1.3722142546
   49      H      -3.7147148886     4.1856425854     0.4035241762
   50      H       4.7486721625     3.7718352901    -0.4035027315
   51      H       6.2583170780     3.0191185812    -1.0651424271
   52      H       5.9312789742     2.9669460591     0.7078280418
   53      H       0.7159959017     0.9253198225    -2.4177400401
   54      H       0.5159915765     2.5737546483    -1.7408746830
   55      H       0.3258512374     0.1348231463     0.1729158010
   56      H      -0.4570940213     1.7439272182     0.3126093104
 ----------------------------------------------------------------
 Molecular Point Group                 C1    NOp =  1
 Largest Abelian Subgroup              C1    NOp =  1
 Nuclear Repulsion Energy =  3067.2053383736 hartrees
 There are      113 alpha and      113 beta electrons
 Applying Cartesian multipole field
    Component          Value
    ---------          -----
     (2,0,0)        1.00000E-12
     (0,2,0)        2.00000E-11
     (0,0,2)       -3.00000E-11
 Nucleus-field energy     =     0.0000000440 hartrees
 Requested basis set is STO-3G
 There are 86 shells and 176 basis functions
 A cutoff of  1.0D-12 yielded   2071 shell pairs
 There are      9538 function pairs
 Smallest overlap matrix eigenvalue = 2.13E-01
 Guess MOs from SCF MO coefficient file
 Reading MOs from coefficient file
 Reading MOs from coefficient file
 A restricted hybrid HF-DFT SCF calculation will be
[...]
      7  C        -0.4869122007   -1.7631111215   -1.6475145996
      8  C         0.5232156065   -0.6348117796   -2.0676912602
      9  O         1.9200357598   -0.9970921618   -1.7218536212
     10  C         2.2035319449   -0.6856010991   -0.3543601990
     11  C         3.7006729098   -1.0430743600   -0.0661072486
     12  C         4.5994798262    0.2339061498    0.2240588580
     13  C         3.8194358001    1.5942306288    0.1495947784
     14  O         3.8300403369    2.5260622460    0.9800504409
     15  O        -2.0590449540    1.2548515554   -0.0757484252
     16  O         3.0709222965    1.6100191531   -1.0737915807
     17  O         1.3683804128   -0.2423984867    0.4665077188
     18  C         2.2625051797    2.8464349264   -1.1685773696
     19  C         3.8537950929   -1.8237344155    1.3110398701
     20  C         5.2981172971   -2.4623516737    1.3607654458
     21  C         6.1833499635   -1.1928287770    1.6493880027
     22  C         5.0844000152   -0.0615043253    1.7022620151
     23  O         3.9159269758   -0.7372153540    2.3136993314
     24  H         4.0902420926   -1.6217780155   -0.9214768098
     25  H         5.4466569528    0.2797896117   -0.4853183875
     26  H         3.0199038344   -2.5149684756    1.5407268634
     27  H         5.3651177524   -3.1971657293    2.1787279348
     28  H         5.5636314179   -2.9608559133    0.4148723957
     29  H         6.7008350583   -1.2734306785    2.6184746499
     30  H         6.9313349501   -1.0075149022    0.8623198237
     31  H         5.3486840375    0.8488018499    2.2749695829
     32  O        -2.2688144235   -1.6156399990    0.3380208647
     33  C        -0.9439452325    1.6193053184    0.8336857294
     34  C        -5.7057620245    0.2075079408    0.4259956736
     35  C        -6.9101862742    0.1755931214   -0.5934844979
     36  C        -6.5660521403   -1.1152681825   -1.4273781941
     37  C        -5.2390791753   -1.5943088532   -0.7161106811
     38  O        -5.4476054707   -1.2259894761    0.7010822636
     39  H        -4.6129530774    1.5146275192   -1.0328837371
     40  H        -4.0623786501   -0.4521754013   -2.2580672976
     41  H        -0.1099726141    0.8960683579    0.6813678645
     42  H        -5.8827945525    0.7553653167    1.3721236146
     43  H        -7.8664698645    0.0659226221   -0.0575965517
     44  H        -6.9551775677    1.0845893172   -1.2144136318
     45  H        -7.3514980860   -1.8813698763   -1.3292256746
     46  H        -6.4112715697   -0.9033867246   -2.4975961911
     47  H        -5.0190970637   -2.6757279272   -0.8075160169
     48  H        -1.2995741491    1.5909977205    1.8821756275
     49  H        -0.6060549255    2.6460384953    0.5893936450
     50  H         1.7104968708    2.7766494285   -2.1239095379
     51  H         2.9014008295    3.7528228204   -1.1733537143
     52  H         1.5426447954    2.9241792454   -0.3289909368
     53  H         0.5108891885   -0.5021179602   -3.1681301547
     54  H         0.2263231869    0.3173859267   -1.5807983271
     55  H        -0.2738299103   -2.7010314030   -2.2013929514
     56  H        -0.4372871823   -1.9493399390   -0.5518447988
   Point Group: c1    Number of degrees of freedom:   162


   Energy is  -1510.292209718

 Hessian Updated using BFGS Update

162 Hessian modes will be used to form the next step
  Hessian Eigenvalues:
     0.000912    0.001517    0.002619    0.003254    0.003512    0.004580
     0.005317    0.005980    0.006503    0.007687    0.012321    0.014500
     0.016770    0.019447    0.021898    0.021984    0.025676    0.026710
     0.027443    0.030181    0.031477    0.032797    0.033546    0.035691
     0.037230    0.037676    0.041299    0.041565    0.042994    0.043789
     0.044754    0.047451    0.048767    0.049460    0.051523    0.051891
     0.052607    0.054438    0.054684    0.055295    0.055381    0.056579
     0.057111    0.057858    0.058609    0.059979    0.061822    0.063040
     0.064024    0.064271    0.064892    0.065538    0.066804    0.068165
     0.069768    0.070688    0.072066    0.073259    0.073914    0.090770
     0.092336    0.093229    0.094476    0.098042    0.099334    0.101485
     0.102741    0.103559    0.105424    0.106692    0.108130    0.113679
     0.122934    0.125486    0.137415    0.140661    0.143867    0.150781
     0.157934    0.159813    0.161265    0.162792    0.164204    0.167039
     0.170699    0.174434    0.184638    0.194260    0.209909    0.218875
     0.223842    0.228353    0.231294    0.235706    0.238097    0.239549
     0.240472    0.241925    0.243303    0.246246    0.248887    0.249226
     0.252219    0.253943    0.254911    0.257101    0.260479    0.261248
     0.263847    0.265505    0.271466    0.276350    0.285107    0.289033
     0.292203    0.300050    0.302469    0.304169    0.311471    0.316458
     0.321875    0.324994    0.326020    0.327118    0.327282    0.327773
     0.328417    0.328689    0.328734    0.329265    0.329687    0.330851
     0.331220    0.331647    0.332342    0.332896    0.333969    0.333990
     0.334849    0.335027    0.335085    0.335264    0.335333    0.335800
     0.337929    0.343042    0.344799    0.354807    0.361090    0.374107
     0.382733    0.393313    0.421392    0.433675    0.476138    0.543110
     0.623309    0.827888    0.832594    0.841537    0.850064    2.075222

 Minimum Search - Taking Simple RFO Step
 Searching for Lamda that Minimizes Along All modes
 Value Taken    Lamda =   0.00000000
 Step Taken.  Stepsize is  0.002146

                             Maximum     Tolerance    Cnvgd?
         Gradient           0.000022      0.000300     YES
         Displacement       0.000677      0.001200     YES
         Energy change     -0.000004      0.000001      NO

 Final energy is   -1510.29220971843     


 ******************************
 **  OPTIMIZATION CONVERGED  **
 ******************************

                       Coordinates (Angstroms)
     ATOM                X               Y               Z
      1  O        -3.4092355604    1.3315368803    1.8798735448
      2  C        -3.2811399609    1.1163463481    0.6554778758
      3  C        -4.4048206938    0.6724563753   -0.3475473163
      4  C        -4.0508219410   -0.6385856401   -1.1702808359
      5  C        -2.6551169215   -1.2329849530   -0.7882239809
      6  O        -1.8569061880   -1.3071573476   -1.9818347881
      7  C        -0.4869122007   -1.7631111215   -1.6475145996
      8  C         0.5232156065   -0.6348117796   -2.0676912602
      9  O         1.9200357598   -0.9970921618   -1.7218536212
     10  C         2.2035319449   -0.6856010991   -0.3543601990
     11  C         3.7006729098   -1.0430743600   -0.0661072486
     12  C         4.5994798262    0.2339061498    0.2240588580
     13  C         3.8194358001    1.5942306288    0.1495947784
     14  O         3.8300403369    2.5260622460    0.9800504409
     15  O        -2.0590449540    1.2548515554   -0.0757484252
     16  O         3.0709222965    1.6100191531   -1.0737915807
     17  O         1.3683804128   -0.2423984867    0.4665077188
     18  C         2.2625051797    2.8464349264   -1.1685773696
     19  C         3.8537950929   -1.8237344155    1.3110398701
     20  C         5.2981172971   -2.4623516737    1.3607654458
     21  C         6.1833499635   -1.1928287770    1.6493880027
     22  C         5.0844000152   -0.0615043253    1.7022620151
     23  O         3.9159269758   -0.7372153540    2.3136993314
     24  H         4.0902420926   -1.6217780155   -0.9214768098
     25  H         5.4466569528    0.2797896117   -0.4853183875
     26  H         3.0199038344   -2.5149684756    1.5407268634
     27  H         5.3651177524   -3.1971657293    2.1787279348
     28  H         5.5636314179   -2.9608559133    0.4148723957
     29  H         6.7008350583   -1.2734306785    2.6184746499
     30  H         6.9313349501   -1.0075149022    0.8623198237
     31  H         5.3486840375    0.8488018499    2.2749695829
     32  O        -2.2688144235   -1.6156399990    0.3380208647
     33  C        -0.9439452325    1.6193053184    0.8336857294
     34  C        -5.7057620245    0.2075079408    0.4259956736
     35  C        -6.9101862742    0.1755931214   -0.5934844979
     36  C        -6.5660521403   -1.1152681825   -1.4273781941
     37  C        -5.2390791753   -1.5943088532   -0.7161106811
     38  O        -5.4476054707   -1.2259894761    0.7010822636
     39  H        -4.6129530774    1.5146275192   -1.0328837371
     40  H        -4.0623786501   -0.4521754013   -2.2580672976
     41  H        -0.1099726141    0.8960683579    0.6813678645
     42  H        -5.8827945525    0.7553653167    1.3721236146
     43  H        -7.8664698645    0.0659226221   -0.0575965517
     44  H        -6.9551775677    1.0845893172   -1.2144136318
     45  H        -7.3514980860   -1.8813698763   -1.3292256746
     46  H        -6.4112715697   -0.9033867246   -2.4975961911
     47  H        -5.0190970637   -2.6757279272   -0.8075160169
     48  H        -1.2995741491    1.5909977205    1.8821756275
     49  H        -0.6060549255    2.6460384953    0.5893936450
     50  H         1.7104968708    2.7766494285   -2.1239095379
     51  H         2.9014008295    3.7528228204   -1.1733537143
     52  H         1.5426447954    2.9241792454   -0.3289909368
     53  H         0.5108891885   -0.5021179602   -3.1681301547
     54  H         0.2263231869    0.3173859267   -1.5807983271
     55  H        -0.2738299103   -2.7010314030   -2.2013929514
     56  H        -0.4372871823   -1.9493399390   -0.5518447988

Z-matrix Print:
$molecule
0 1
O 
C  1 1.252091
O  2 1.430886 1 124.851931
C  3 1.483899 2 110.860092 1 3.995502 0
H  4 1.108479 3 105.727519 2 157.068884 0
H  4 1.109906 3 111.039288 2 38.680380 0
C  2 1.565985 1 126.713077 3 -177.575512 0
H  7 1.103775 2 108.328421 1 166.866017 0
C  4 1.571613 3 111.557319 2 -83.212256 0
H  9 1.109901 4 110.479280 3 -62.724545 0
H  9 1.112491 4 110.782418 3 59.389554 0
O  9 1.482075 4 108.237228 3 178.053859 0
C  12 1.437828 9 109.985138 4 -119.149345 0
O  13 1.250633 12 124.077952 9 -5.881667 0
C  13 1.564375 12 108.189057 9 175.448584 0
H  15 1.103704 13 108.313514 12 1.142088 0
C  15 1.587777 13 112.712130 12 -122.898618 0
H  17 1.105557 15 110.472279 13 123.243797 0
C  17 1.570273 15 113.881972 13 1.006687 0
O  19 1.249744 17 126.950913 15 -125.981037 0
O  19 1.430871 17 108.186987 15 54.726377 0
C  21 1.484367 19 110.627231 17 -177.633236 0
H  22 1.107522 21 109.421862 19 6.083423 0
H  22 1.108165 21 108.752479 19 -113.227656 0
H  22 1.114353 21 108.609496 19 127.001419 0
C  17 1.583349 15 101.178584 13 -118.176350 0
H  26 1.107541 17 113.792418 15 154.251080 0
O  26 1.482306 17 103.388278 15 34.546685 0
C  28 1.479046 26 95.023251 17 -56.766767 0
H  29 1.107346 28 110.505362 26 -179.819931 0
C  26 1.578289 17 108.504196 15 -74.871870 0
H  31 1.101672 26 110.500651 17 -168.031581 0
H  31 1.101749 26 112.242136 17 -46.500261 0
C  31 1.574843 26 101.060722 17 73.878617 0
H  34 1.101577 31 111.534560 26 118.115140 0
H  34 1.101915 31 112.790371 26 -119.239734 0
C  7 1.588310 2 113.023573 1 -69.306053 0
H  37 1.105907 7 110.467137 2 -122.877759 0
C  37 1.569871 7 114.005467 2 -0.641598 0
O  39 1.248230 37 127.668873 7 131.373350 0
O  39 1.434293 37 108.017381 7 -49.156933 0
C  41 1.480286 39 110.414871 37 177.335726 0
H  42 1.105551 41 105.979306 39 -179.288126 0
H  42 1.108670 41 111.387777 39 -60.212572 0
H  42 1.108941 41 111.612622 39 61.445841 0
C  37 1.583509 7 101.177272 2 118.539693 0
H  46 1.107473 37 113.733100 7 -154.763010 0
O  46 1.481813 37 103.225269 7 -35.050985 0
C  48 1.479767 46 95.068180 37 56.965529 0
H  49 1.107220 48 110.453831 46 -179.977307 0
C  46 1.578094 37 108.404012 7 74.445036 0
H  51 1.101499 46 112.099451 37 46.132756 0
H  51 1.101552 46 110.494852 37 167.646029 0
C  51 1.574366 46 101.108369 37 -74.186962 0
H  54 1.101591 51 111.565486 46 -117.746699 0
H  54 1.101689 51 112.753285 46 119.563697 0
$end

 
 --------------------------------------------------------------
 
                    Orbital Energies (a.u.)
 --------------------------------------------------------------
 
 Alpha MOs
 -- Occupied --
-18.942 -18.941 -18.930 -18.923 -18.889 -18.885 -18.885 -18.881
-18.873 -18.871 -10.109 -10.106 -10.097 -10.093 -10.074 -10.070
-10.065 -10.063 -10.060 -10.059 -10.055 -10.043 -10.041 -10.036
-10.035 -10.034 -10.022 -10.021 -10.019 -10.018  -1.022  -1.014
 -1.010  -1.001  -0.972  -0.967  -0.944  -0.943  -0.934  -0.928
 -0.767  -0.761  -0.728  -0.722  -0.713  -0.705  -0.695  -0.668
 -0.648  -0.620  -0.598  -0.580  -0.549  -0.542  -0.540  -0.535
 -0.514  -0.506  -0.484  -0.475  -0.466  -0.458  -0.455  -0.449
 -0.437  -0.432  -0.428  -0.420  -0.415  -0.407  -0.404  -0.398
 -0.393  -0.382  -0.378  -0.364  -0.359  -0.358  -0.355  -0.353
 -0.352  -0.336  -0.335  -0.332  -0.329  -0.325  -0.323  -0.313
 -0.308  -0.307  -0.302  -0.301  -0.293  -0.289  -0.283  -0.277
 -0.269  -0.258  -0.257  -0.245  -0.240  -0.236  -0.231  -0.189
 -0.184  -0.171  -0.165  -0.162  -0.157  -0.155  -0.149  -0.146
 -0.141
 -- Virtual --
  0.086   0.096   0.102   0.114   0.208   0.231   0.242   0.256
  0.266   0.279   0.282   0.287   0.301   0.315   0.327   0.328
  0.340   0.341   0.344   0.351   0.356   0.364   0.369   0.371
  0.378   0.381   0.387   0.394   0.396   0.400   0.404   0.407
  0.413   0.415   0.417   0.421   0.423   0.424   0.426   0.430
  0.434   0.435   0.439   0.443   0.446   0.462   0.465   0.468
  0.477   0.484   0.486   0.489   0.499   0.506   0.508   0.538
  0.543   0.550   0.553   0.637   0.646   0.653   0.656
 --------------------------------------------------------------
 
          Ground-State Mulliken Net Atomic Charges

     Atom                 Charge (a.u.)
  ----------------------------------------
      1 O                    -0.209508
      2 C                     0.214000
      3 C                    -0.078265
      4 C                    -0.078408
      5 C                     0.213836
      6 O                    -0.174208
      7 C                    -0.059225
      8 C                    -0.050083
      9 O                    -0.167497
     10 C                     0.219841
     11 C                    -0.078730
     12 C                    -0.078133
     13 C                     0.213137
     14 O                    -0.205149
     15 O                    -0.180020
     16 O                    -0.172021
     17 O                    -0.217689
     18 C                    -0.129309
     19 C                     0.025972
     20 C                    -0.143893
     21 C                    -0.143957
     22 C                     0.024222
     23 O                    -0.185306
     24 H                     0.087106
     25 H                     0.085944
     26 H                     0.085430
     27 H                     0.079260
     28 H                     0.073535
     29 H                     0.079265
     30 H                     0.073156
     31 H                     0.091452
     32 O                    -0.210926
     33 C                    -0.153259
     34 C                     0.024423
     35 C                    -0.144005
     36 C                    -0.143959
     37 C                     0.025896
     38 O                    -0.185885
     39 H                     0.083706
     40 H                     0.085762
     41 H                     0.111141
     42 H                     0.091438
     43 H                     0.078141
     44 H                     0.072573
     45 H                     0.077923
     46 H                     0.072950
     47 H                     0.082759
     48 H                     0.099165
     49 H                     0.070938
     50 H                     0.091067
     51 H                     0.090679
     52 H                     0.092430
     53 H                     0.089685
     54 H                     0.095138
     55 H                     0.082604
     56 H                     0.104861
  ----------------------------------------
  Sum of atomic charges =     0.000000

 -----------------------------------------------------------------
                    Cartesian Multipole Moments
 -----------------------------------------------------------------
    Charge (ESU x 10^10)
                 0.0000
    Dipole Moment (Debye)
         X       1.6210      Y      -0.1442      Z      -4.6789
       Tot       4.9538
    Quadrupole Moments (Debye-Ang)
        XX    -140.2954     XY      -8.2227     YY    -155.0018
        XZ       8.2389     YZ      -2.1361     ZZ    -167.5036
    Octopole Moments (Debye-Ang^2)
       XXX      77.6622    XXY      14.2637    XYY      23.1941
       YYY      76.9187    XXZ     -47.5618    XYZ     -20.3600
       YYZ     -10.7336    XZZ      18.6128    YZZ      26.7320
       ZZZ       2.1774
    Hexadecapole Moments (Debye-Ang^3)
      XXXX  -14815.4600   XXXY    -218.3371   XXYY   -2985.6637
      XYYY     -57.6787   YYYY   -2070.5087   XXXZ    -605.4833
      XXYZ     -27.1908   XYYZ    -284.2220   YYYZ     -84.9923
      XXZZ   -2972.8908   XYZZ     -22.5619   YYZZ    -620.0989
      XZZZ    -858.2760   YZZZ     -63.2254   ZZZZ   -1621.3901
 -----------------------------------------------------------------
Archival summary:
1\1\vega02.cac.cornell.edu\OPT\ProcedureUnspecified\STO-3G\102026\jj585\SatJan1309:15:562018SatJan1309:15:562018\0\\#,OPT,ProcedureUnspecified,STO-3G,\\0,1\O\C,1,1.25209\O,2,1.43089,1,124.852\C,3,1.4839,2,110.86,1,3.9955,0\H,4,1.10848,3,105.728,2,157.069,0\H,4,1.10991,3,111.039,2,38.6804,0\C,2,1.56598,1,126.713,3,-177.576,0\H,7,1.10377,2,108.328,1,166.866,0\C,4,1.57161,3,111.557,2,-83.2123,0\H,9,1.1099,4,110.479,3,-62.7245,0\H,9,1.11249,4,110.782,3,59.3896,0\O,9,1.48208,4,108.237,3,178.054,0\C,12,1.43783,9,109.985,4,-119.149,0\O,13,1.25063,12,124.078,9,-5.88167,0\C,13,1.56438,12,108.189,9,175.449,0\H,15,1.1037,13,108.314,12,1.14209,0\C,15,1.58778,13,112.712,12,-122.899,0\H,17,1.10556,15,110.472,13,123.244,0\C,17,1.57027,15,113.882,13,1.00669,0\O,19,1.24974,17,126.951,15,-125.981,0\O,19,1.43087,17,108.187,15,54.7264,0\C,21,1.48437,19,110.627,17,-177.633,0\H,22,1.10752,21,109.422,19,6.08342,0\H,22,1.10816,21,108.752,19,-113.228,0\H,22,1.11435,21,108.609,19,127.001,0\C,17,1.58335,15,101.179,13,-118.176,0\H,26,1.10754,17,113.792,15,154.251,0\O,26,1.48231,17,103.388,15,34.5467,0\C,28,1.47905,26,95.0233,17,-56.7668,0\H,29,1.10735,28,110.505,26,-179.82,0\C,26,1.57829,17,108.504,15,-74.8719,0\H,31,1.10167,26,110.501,17,-168.032,0\H,31,1.10175,26,112.242,17,-46.5003,0\C,31,1.57484,26,101.061,17,73.8786,0\H,34,1.10158,31,111.535,26,118.115,0\H,34,1.10192,31,112.79,26,-119.24,0\C,7,1.58831,2,113.024,1,-69.3061,0\H,37,1.10591,7,110.467,2,-122.878,0\C,37,1.56987,7,114.005,2,-0.641598,0\O,39,1.24823,37,127.669,7,131.373,0\O,39,1.43429,37,108.017,7,-49.1569,0\C,41,1.48029,39,110.415,37,177.336,0\H,42,1.10555,41,105.979,39,-179.288,0\H,42,1.10867,41,111.388,39,-60.2126,0\H,42,1.10894,41,111.613,39,61.4458,0\C,37,1.58351,7,101.177,2,118.54,0\H,46,1.10747,37,113.733,7,-154.763,0\O,46,1.48181,37,103.225,7,-35.051,0\C,48,1.47977,46,95.0682,37,56.9655,0\H,49,1.10722,48,110.454,46,-179.977,0\C,46,1.57809,37,108.404,7,74.445,0\H,51,1.1015,46,112.099,37,46.1328,0\H,51,1.10155,46,110.495,37,167.646,0\C,51,1.57437,46,101.108,37,-74.187,0\H,54,1.10159,51,111.565,46,-117.747,0\H,54,1.10169,51,112.753,46,119.564,0\\\@

 Total job time:  172.53s(wall), 8227.99s(cpu) 
 Sat Jan 13 09:15:56 2018

        *************************************************************
        *                                                           *
        *  Thank you very much for using Q-Chem.  Have a nice day.  *
        *                                                           *
        *************************************************************


0 sent ACK to 0 
now end server 0 ... 
