mFile = /opt/software/qchem/qchem-5.0.1//bin/mpi/machines
Process 0 of 1 is on vega02.cac.cornell.edu - thread support 0
initial socket setup ...start
initial socket setup ...done 
now start server 0 ... 
vega02.cac.cornell.edu 10.84.3
Q-Chem Developer Version! Running on 10.84.3.*
                  Welcome to Q-Chem
     A Quantum Leap Into The Future Of Chemistry


 Q-Chem 5.0, Q-Chem, Inc., Pleasanton, CA (2017)

 Yihan Shao,  Zhengting Gan,  E. Epifanovsky,  A. T. B. Gilbert,  M. Wormit,  
 J. Kussmann,  A. W. Lange,  A. Behn,  Jia Deng,  Xintian Feng,  D. Ghosh,  
 M. Goldey,  P. R. Horn,  L. D. Jacobson,  I. Kaliman,  T. Kus,  A. Landau,  
 Jie Liu,  E. I. Proynov,  R. M. Richard,  R. P. Steele,  E. J. Sundstrom,  
 H. L. Woodcock III,  P. M. Zimmerman,  D. Zuev,  B. Albrecht,  E. Alguire,  
 S. A. Baeppler,  Z. Benda,  Y. A. Bernard,  E. J. Berquist,  K. B. Bravaya,  
 D. Casanova,  Chun-Min Chang,  Yunqing Chen,  A. Chien,  K. D. Closser,  
 M. P. Coons,  S. Dasgupta,  M. Diedenhofen,  Hainam Do,  R. G. Edgar,  
 Po-Tung Fang,  S. Fatehi,  Qingguo Feng,  Qinghui Ge,  A. Ghysels,  
 J. Gomes,  J. Gonthier,  A. Gunina,  M. W. D. Hanson-Heine,  
 P. H. P. Harbach,  A. W. Hauser,  J. E. Herr,  E. G. Hohenstein,  
 Z. C. Holden,  Kerwin Hui,  T.-C. Jagau,  Hyunjun Ji,  B. Kaduk,  
 K. Khistyaev,  Jaehoon Kim,  P. Klunzinger,  K. Koh,  D. Kosenkov,  
 T. Kowalczyk,  C. M. Krauter,  A. Kunitsa,  Ka Un Lao,  A. Laurent,  
 K. V. Lawler,  Joonho Lee,  D. Lefrancois,  S. Lehtola,  D. S. Levine,  
 Yi-Pei Li,  You-Sheng Lin,  Fenglai Liu,  E. Livshits,  A. Luenser,  
 P. Manohar,  E. Mansoor,  S. F. Manzer,  Shan-Ping Mao,  Yuezhi Mao,  
 N. Mardirossian,  A. V. Marenich,  L. A. Martinez-Martinez,  S. A. Maurer,  
 N. J. Mayhall,  S. C. McKenzie,  J.-M. Mewes,  A. F. Morrison,  K. Nanda,  
 T. S. Nguyen-Beck,  R. Olivares-Amaya,  J. A. Parkhill,  T. M. Perrine,  
 F. Plasser,  S. Prager,  A. Prociuk,  D. R. Rehn,  F. Rob,  M. Schneider,  
 N. Sergueev,  S. M. Sharada,  S. Sharma,  D. W. Small,  T. Stauch,  
 T. Stein,  Yu-Chuan Su,  A. J. W. Thom,  T. Tsuchimochi,  L. Vogt,  
 O. Vydrov,  M. A. Watson,  J. Wenzel,  M. de Wergifosse,  T. A. Wesolowski,  
 A. White,  J. Witte,  A. Yamada,  Jun Yang,  K. Yao,  S. Yeganeh,  
 S. R. Yost,  Zhi-Qiang You,  A. Zech,  Igor Ying Zhang,  Xing Zhang,  
 Yan Zhao,  Ying Zhu,  B. R. Brooks,  G. K. L. Chan,  C. J. Cramer,  
 M. S. Gordon,  W. J. Hehre,  A. Klamt,  M. W. Schmidt,  C. D. Sherrill,  
 D. G. Truhlar,  A. Aspuru-Guzik,  R. Baer,  A. T. Bell,  N. A. Besley,  
 Jeng-Da Chai,  A. Dreuw,  B. D. Dunietz,  T. R. Furlani,  Chao-Ping Hsu,  
 Yousung Jung,  Jing Kong,  D. S. Lambrecht,  WanZhen Liang,  C. Ochsenfeld,  
 V. A. Rassolov,  L. V. Slipchenko,  J. E. Subotnik,  T. Van Voorhis,  
 J. M. Herbert,  A. I. Krylov,  P. M. W. Gill,  M. Head-Gordon

 Contributors to earlier versions of Q-Chem not listed above: 
 R. D. Adamson,  B. Austin,  J. Baker,  G. J. O. Beran,  K. Brandhorst,  
 S. T. Brown,  E. F. C. Byrd,  A. K. Chakraborty,  C.-L. Cheng,  
 Siu Hung Chien,  D. M. Chipman,  D. L. Crittenden,  H. Dachsel,  
 R. A. DiStasio Jr.,  R. J. Doerksen,  A. D. Dutoi,  L. Fusti-Molnar,  
 W. A. Goddard III,  A. Golubeva-Zadorozhnaya,  S. R. Gwaltney,  G. Hawkins,  
 A. Heyden,  S. Hirata,  G. Kedziora,  F. J. Keil,  C. Kelley,  Jihan Kim,  
 R. A. King,  R. Z. Khaliullin,  P. P. Korambath,  W. Kurlancheek,  
 A. M. Lee,  M. S. Lee,  S. V. Levchenko,  Ching Yeh Lin,  D. Liotard,  
 R. C. Lochan,  I. Lotan,  P. E. Maslen,  N. Nair,  D. P. O'Neill,  
 D. Neuhauser,  E. Neuscamman,  C. M. Oana,  R. Olson,  B. Peters,  
 R. Peverati,  P. A. Pieniazek,  Y. M. Rhee,  J. Ritchie,  M. A. Rohrdanz,  
 E. Rosta,  N. J. Russ,  H. F. Schaefer III,  N. E. Schultz,  N. Shenvi,  
 A. C. Simmonett,  A. Sodt,  D. Stuck,  K. S. Thanthiriwatte,  V. Vanovschi,  
 Tao Wang,  A. Warshel,  C. F. Williams,  Q. Wu,  X. Xu,  W. Zhang

 Please cite Q-Chem as follows:
 Y. Shao et al., Mol. Phys. 113, 184-215 (2015)
 DOI: 10.1080/00268976.2014.952696

 Q-Chem 5.0.1 for Intel X86 EM64T Linux

 Parts of Q-Chem use Armadillo 5.200.1 (Boston Tea Smuggler).
 http://arma.sourceforge.net/

 Q-Chem begins on Sat Jan 13 09:12:14 2018  

Host: vega02.cac.cornell.edu
0

     Scratch files written to /scratch/jj585/SOT1001/0031c.save//
 Parallel job on  1  processors

Checking the input file for inconsistencies... 	...done.

--------------------------------------------------------------
User input:
--------------------------------------------------------------
$molecule
0  1
O -3.94934 -3.66094 2.70899
C -3.26408 -4.56952 2.26188
C -3.36658 -6.02376 2.66595
C -2.07557 -6.71593 3.13292
C -0.8627 -5.83018 3.31315
O 0.26867 -6.51936 2.9808
C 1.40238 -6.15803 3.77666
C 2.67967 -6.71234 3.15426
O 3.6405 -6.99945 4.1825
C 3.25516 -6.68634 5.44449
C 2.45345 -7.7831 6.10407
C 3.27355 -8.99714 6.56431
C 4.77411 -8.79493 6.62864
O 5.54455 -9.4257 7.33794
O -2.40543 -4.29899 1.24373
O 5.37886 -8.10528 5.62631
O 3.44349 -5.57822 5.92628
C 6.7398 -7.91125 5.49429
C 1.80813 -7.35609 7.44283
C 0.60691 -8.24947 7.74785
C 1.30311 -9.55426 8.06905
C 2.7671 -9.10109 8.01879
O 2.72833 -7.75579 8.42509
H 1.65505 -8.17354 5.43833
H 3.08711 -9.92332 5.97721
H 1.49705 -6.2889 7.46671
H 0.14116 -7.85544 8.67979
H -0.16573 -8.30905 6.95242
H 1.01409 -9.86074 9.09888
H 1.11276 -10.384 7.35422
H 3.39256 -9.77665 8.64294
O -0.87599 -4.79545 3.97204
C -2.19721 -3.04249 0.71512
C -4.2675 -6.23231 3.89797
C -4.75166 -7.68239 3.95991
C -3.48693 -8.38177 4.4083
C -2.53624 -7.18932 4.52743
O -3.37109 -6.14899 4.97641
H -3.79458 -6.54683 1.78176
H -1.80042 -7.5941 2.50415
H -1.81235 -2.35695 1.50018
H -5.13961 -5.54346 3.92761
H -5.50797 -7.76677 4.77258
H -5.18747 -8.05125 3.00643
H -3.66079 -8.80638 5.42257
H -3.11305 -9.17696 3.72788
H -1.6819 -7.44838 5.19073
H -3.14469 -2.641 0.2963
H -1.44694 -3.11038 -0.09909
H 6.93307 -7.30213 4.58762
H 7.25942 -8.88711 5.38667
H 7.13478 -7.36893 6.3799
H 2.44013 -7.6986 2.70196
H 3.08306 -6.05493 2.35477
H 1.04082 -6.37684 4.78673
H 1.55965 -5.05458 3.79891
$end

$opt
CONSTRAINT
tors           1           2           3           4    -126.316
tors           3           4           5           6    -145.928
tors           4           5           6           7    -145.829
tors           5           6           7           8    -166.977
tors           6           7           8           9    -149.434
tors           7           8           9          10      -2.287
tors           8           9          10          11     +85.530
tors           9          10          11          12     +74.756
tors          11          12          13          14    +155.184
ENDCONSTRAINT
$end

$rem
JOBTYPE                   OPT
METHOD                    B3LYP
DFT_D                     d3_op
BASIS                     STO-3G
GEOM_OPT_MAX_CYCLES       100
GEOM_OPT_TOL_GRADIENT     300
GEOM_OPT_TOL_DISPLACEMENT 1200
GEOM_OPT_TOL_ENERGY       100
SYMMETRY                  False
THRESH                    12
SCF_CONVERGENCE           8
MAX_SUB_FILE_NUM          128
MEM_STATIC                400
MEM_TOTAL                 4000
$end
--------------------------------------------------------------
 Adding empirical dispersion correction 
 ----------------------------------------------------------------
 Doing -D3(op) with
 s6 =   1.00000
 s8 =   0.78311
 a1 =   0.30000
 a2 =   4.25000
 n  =  10.00000
 -D3 energy without 3body term =     -0.0690583441 hartrees
 ----------------------------------------------------------------
             Standard Nuclear Orientation (Angstroms)
    I     Atom           X                Y                Z
 ----------------------------------------------------------------
    1      O      -5.6927140415     0.6698923225     1.2767981130
    2      C      -5.0144140800     0.8360890301     0.2731577129
    3      C      -4.4511944405    -0.2670932451    -0.5953843402
    4      C      -2.9384527225    -0.2428429732    -0.8690475070
    5      C      -2.1301928235     0.7783562697    -0.0996597021
    6      O      -1.0989061420     1.2313688665    -0.8720916016
    7      C       0.0806265048     1.5299279606    -0.1178926390
    8      C       1.0648460019     2.3214512246    -0.9728277150
    9      O       2.4112884111     2.0256637795    -0.5697066853
   10      C       2.5322616726     1.1756531623     0.4800508907
   11      C       2.5021602095    -0.2767899077     0.0675339477
   12      C       3.7865295119    -0.7861073936    -0.6027415052
   13      C       5.0091902825     0.0950272463    -0.4433365709
   14      O       6.1695443301    -0.2851761447    -0.5031608307
   15      O      -4.8224000544     2.1020776030    -0.1823631681
   16      O       4.8580582730     1.4404132871    -0.5577945581
   17      O       2.5378824652     1.5685475326     1.6381191737
   18      C       5.8810009833     2.3676487890    -0.5252808617
   19      C       2.4008262682    -1.2552513694     1.2605965531
   20      C       1.8151071887    -2.5860840629     0.7916487787
   21      C       2.9647263349    -3.1223529276    -0.0336586474
   22      C       4.0251670478    -2.0514088807     0.2486535550
   23      O       3.7299260394    -1.6045128347     1.5484733748
   24      H       1.6702215855    -0.4930870059    -0.6354521065
   25      H       3.6775312717    -1.0117203539    -1.6864729534
   26      H       1.8017865029    -0.8608395601     2.1102001084
   27      H       1.6991184050    -3.2237248504     1.6975492672
   28      H       0.8407168960    -2.5258073386     0.2623459307
   29      H       3.2680847623    -4.1067407237     0.3870154675
   30      H       2.7656456016    -3.2157498427    -1.1233041847
   31      H       5.0414230415    -2.4797074340     0.1039854787
   32      O      -2.1932945630     0.9084587105     1.1185645607
   33      C      -5.2862753732     3.2354087700     0.4516372301
   34      C      -4.6062627574    -1.6598234830     0.0443652443
   35      C      -4.5133090170    -2.7476640462    -1.0275218705
   36      C      -3.0283466827    -2.7296182830    -1.3178478346
   37      C      -2.5668579782    -1.6449971623    -0.3428782784
   38      O      -3.4129946848    -1.8220416723     0.7677755773
   39      H      -5.0233374856    -0.2142305640    -1.5485034586
   40      H      -2.6933485377    -0.1656069353    -1.9535752002
   41      H      -4.8463154301     3.3109120164     1.4690535771
   42      H      -5.5507864756    -1.7780514163     0.6187046960
   43      H      -4.7690829336    -3.7253061780    -0.5602394130
   44      H      -5.1723281328    -2.5709464003    -1.9047771611
   45      H      -2.5964523753    -3.7056329401    -1.0014188836
   46      H      -2.7497338041    -2.5207436936    -2.3732297734
   47      H      -1.4771658817    -1.7487723050    -0.1459578278
   48      H      -6.3947335968     3.2088085670     0.5218907615
   49      H      -4.9865859148     4.1282578684    -0.1344163214
   50      H       5.4518673547     3.3850176709    -0.6312801215
   51      H       6.5891807678     2.1895079128    -1.3623214638
   52      H       6.4197391223     2.3064166856     0.4444805017
   53      H       0.9892379960     1.9478975072    -2.0165731528
   54      H       0.8429437314     3.4099442226    -0.9789950400
   55      H       0.2858860914     0.5664460401     0.3600361691
   56      H      -0.1374496160     2.1987551427     0.7469448162
 ----------------------------------------------------------------
 Molecular Point Group                 C1    NOp =  1
 Largest Abelian Subgroup              C1    NOp =  1
 Nuclear Repulsion Energy =  3202.4893455017 hartrees
 There are      113 alpha and      113 beta electrons
 Requested basis set is STO-3G
 There are 86 shells and 176 basis functions

 Total QAlloc Memory Limit   4000 MB
 Mega-Array Size       392 MB
 MEM_STATIC part       400 MB
 A cutoff of  1.0D-12 yielded   2281 shell pairs
 There are     10636 function pairs
 
 -------------------------------------------------------
 OpenMP Integral Computing Module                       
 Release: version 1.0, May 2013, Q-Chem Inc. Pittsburgh 
 -------------------------------------------------------
 Integral Job Info:
 Integral job number is                      11
 Integral operator is                         1
 short-range coefficients                     0
 long-range coefficients              100000000
 Omega coefficients                           0
 if combine SR and LR in K                    0
 Integral screening is                        0
 Integral computing path is                   2
 max size of driver memory is            800000
 size of driver memory is                 45569
 size of scratch memory is              1046100
 max col of scratch BK array                289
 max len of scratch array in speh3           22
 max len of scratch index in speh4            8
 max int batch size is                      520
 min int batch size is                       52
 fixed nKL is                                52
 max L of basis functions is                  1
 order of int derivative is                   0
 number of shells is                         86
 number of basis is                         176
 number of cartesian basis is               176
 number of contracted shell pairs          2281
 number of primitive shell pairs          11617
 maxK2 (contraction) of shell pair            9
 max number of K2 of shell pair               1
 max number of CS2 of shell pair            345
 max number of PS2 of shell pair           1254
 mem total for path MDJ                   51530
 -------------------------------------------------------
 Smallest overlap matrix eigenvalue = 1.93E-01

 Scale SEOQF with 1.000000e-02/1.000000e-01/1.000000e-01

 Standard Electronic Orientation quadrupole field applied
 Nucleus-field energy     =     0.0000000484 hartrees
 Guess from superposition of atomic densities
 Warning:  Energy on first SCF cycle will be non-variational
 A restricted hybrid HF-DFT SCF calculation will be
 performed using Pulay DIIS extrapolation
 Exchange:     0.2000 Hartree-Fock + 0.0800 Slater + 0.7200 B88
 Correlation:  0.1900 VWN1RPA + 0.8100 LYP
 Using SG-1 standard quadrature grid
 Dispersion:   Grimme D3
 SCF converges when DIIS error is below 1.0E-08
 using 48 threads for integral computing
 -------------------------------------------------------
 OpenMP Integral computing Module                
 Release: version 1.0, May 2013, Q-Chem Inc. Pittsburgh 
 -------------------------------------------------------
 -------------------------------------------------------
 OpenMP BLAS3 based DFT computing Module                
 Release: version 1.0, May 2013, Q-Chem Inc. Pittsburgh 
 -------------------------------------------------------
 ---------------------------------------
  Cycle       Energy         DIIS Error
 ---------------------------------------
    1   -1509.4954149899      8.31E-02
    2   -1509.5215170781      1.07E-02
    3   -1507.3457533154      2.63E-02
    4   -1510.0311589692      3.77E-03
    5   -1510.0863828500      1.34E-03
    6   -1510.0932865196      5.06E-04
    7   -1510.0943584590      1.26E-04
    8   -1510.0944230708      3.52E-05
    9   -1510.0944266034      2.09E-05
   10   -1510.0944285216      3.16E-06
   11   -1510.0944285656      8.62E-07
   12   -1510.0944285681      4.50E-07
   13   -1510.0944285689      1.22E-07
   14   -1510.0944285690      2.45E-08
   15   -1510.0944285690      5.82E-09 Convergence criterion met
 ---------------------------------------
 SCF time:  CPU 117.05 s  wall 2.51 s
 SCF   energy in the final basis set = -1510.09442857
 Total energy in the final basis set = -1510.09442857
 
 --------------------------------------------------------------
 
                    Orbital Energies (a.u.)
 --------------------------------------------------------------
 
 Alpha MOs
 -- Occupied --
-18.944 -18.930 -18.928 -18.908 -18.905 -18.903 -18.895 -18.873
-18.855 -18.854 -10.127 -10.113 -10.112 -10.110 -10.095 -10.086
-10.080 -10.080 -10.075 -10.071 -10.070 -10.069 -10.049 -10.043
-10.041 -10.037 -10.023 -10.021 -10.020 -10.019  -1.052  -1.048
 -1.041  -1.038  -1.029  -1.028  -0.962  -0.956  -0.944  -0.942
 -0.789  -0.787  -0.750  -0.748  -0.737  -0.725  -0.722  -0.681
 -0.681  -0.643  -0.616  -0.599  -0.560  -0.557  -0.543  -0.541
 -0.532  -0.525  -0.505  -0.496  -0.492  -0.487  -0.472  -0.467
 -0.453  -0.450  -0.443  -0.429  -0.428  -0.426  -0.425  -0.424
 -0.412  -0.402  -0.398  -0.391  -0.387  -0.374  -0.369  -0.368
 -0.359  -0.354  -0.348  -0.340  -0.338  -0.329  -0.328  -0.319
 -0.318  -0.315  -0.312  -0.306  -0.302  -0.299  -0.292  -0.280
 -0.278  -0.252  -0.241  -0.240  -0.230  -0.224  -0.221  -0.184
 -0.171  -0.170  -0.167  -0.161  -0.159  -0.155  -0.153  -0.139
 -0.137
 -- Virtual --
  0.079   0.096   0.112   0.122   0.217   0.240   0.245   0.285
  0.289   0.303   0.320   0.323   0.329   0.336   0.338   0.345
  0.356   0.368   0.374   0.383   0.390   0.391   0.398   0.398
  0.399   0.403   0.404   0.408   0.410   0.412   0.419   0.426
  0.428   0.429   0.436   0.438   0.441   0.447   0.449   0.453
  0.455   0.463   0.467   0.472   0.475   0.478   0.482   0.488
  0.490   0.501   0.506   0.522   0.537   0.542   0.550   0.554
  0.563   0.576   0.583   0.667   0.684   0.688   0.692
 --------------------------------------------------------------
 
          Ground-State Mulliken Net Atomic Charges

     Atom                 Charge (a.u.)
  ----------------------------------------
      1 O                    -0.232371
      2 C                     0.241113
      3 C                    -0.080934
      4 C                    -0.081081
      5 C                     0.230101
      6 O                    -0.196532
      7 C                    -0.053670
      8 C                    -0.030405
      9 O                    -0.217608
     10 C                     0.258719
     11 C                    -0.092583
     12 C                    -0.077337
     13 C                     0.236185
     14 O                    -0.236512
     15 O                    -0.216030
     16 O                    -0.209247
     17 O                    -0.195460
     18 C                    -0.094992
     19 C                     0.036804
     20 C                    -0.142623
     21 C                    -0.144679
     22 C                     0.040650
     23 O                    -0.209870
     24 H                     0.080032
     25 H                     0.090553
     26 H                     0.088942
     27 H                     0.078246
     28 H                     0.066543
     29 H                     0.077873
     30 H                     0.070478
     31 H                     0.092807
     32 O                    -0.222299
     33 C                    -0.097934
     34 C                     0.041078
     35 C                    -0.142817
     36 C                    -0.143371
     37 C                     0.041268
     38 O                    -0.205261
     39 H                     0.086372
     40 H                     0.084274
     41 H                     0.090049
     42 H                     0.094796
     43 H                     0.076834
     44 H                     0.072716
     45 H                     0.076147
     46 H                     0.072133
     47 H                     0.074319
     48 H                     0.085657
     49 H                     0.092560
     50 H                     0.097788
     51 H                     0.087368
     52 H                     0.089102
     53 H                     0.086593
     54 H                     0.095494
     55 H                     0.095756
     56 H                     0.094267
  ----------------------------------------
  Sum of atomic charges =     0.000000

 -----------------------------------------------------------------
                    Cartesian Multipole Moments
 -----------------------------------------------------------------
    Charge (ESU x 10^10)
                 0.0000
    Dipole Moment (Debye)
         X      -1.3574      Y      -0.1120      Z      -4.6832
       Tot       4.8772
    Quadrupole Moments (Debye-Ang)
        XX    -174.1376     XY       1.2149     YY    -148.7422
        XZ       5.4876     YZ       1.5862     ZZ    -167.3965
    Octopole Moments (Debye-Ang^2)
       XXX     -75.5546    XXY      62.6967    XYY      -9.0996
       YYY      57.5585    XXZ     -68.5600    XYZ     -10.4496
       YYZ       1.8974    XZZ       9.9169    YZZ       6.6185
       ZZZ      -2.9409
    Hexadecapole Moments (Debye-Ang^3)
      XXXX  -14430.4466   XXXY     234.1798   XXYY   -2594.0837
      XYYY     -96.7924   YYYY   -3300.7753   XXXZ     191.5011
      XXYZ      23.0467   XYYZ     -49.1380   YYYZ     -33.2428
      XXZZ   -2550.7086   XYZZ       5.2196   YYZZ    -732.0626
      XZZZ     -49.1555   YZZZ     -13.3164   ZZZZ    -813.0421
 -----------------------------------------------------------------
 Calculating analytic gradient of the SCF energy
 Gradient of SCF Energy
            1           2           3           4           5           6
    1   0.0351026   0.0125650   0.0167770   0.0033087   0.0115484  -0.0055694
    2   0.0225115  -0.0056794  -0.0126675  -0.0103338   0.0193857  -0.0190522
    3  -0.0572473  -0.0267451   0.0479480   0.0532647  -0.0098142   0.0687804
            7           8           9          10          11          12
    1   0.0397707  -0.0052311  -0.0329460   0.0105671   0.0172173   0.0074349
    2  -0.0286789   0.0269492  -0.0584811   0.0205128   0.0261964   0.0016900
    3  -0.0527960   0.0287810   0.0544604  -0.0133278   0.0306546   0.0224540
           13          14          15          16          17          18
    1  -0.0364192  -0.0678881  -0.0684143   0.1331925  -0.0106214  -0.0529105
    2  -0.0127641   0.0532313   0.0085091  -0.0282305  -0.0159718  -0.0148631
    3   0.0195381  -0.0100125   0.1040966   0.0005374  -0.0576656  -0.0054066
           19          20          21          22          23          24
    1   0.0646580   0.0456800  -0.0014001  -0.0520629  -0.0487261  -0.0030586
    2  -0.0253746   0.0230313   0.0385380   0.0383651  -0.0065920  -0.0104355
    3  -0.0227218  -0.0116283   0.0284333   0.0420172  -0.0715166  -0.0040422
           25          26          27          28          29          30
    1   0.0028946  -0.0134636   0.0064605  -0.0062627  -0.0032802   0.0009545
    2  -0.0024067  -0.0046500  -0.0049339  -0.0016804  -0.0068519   0.0027766
    3  -0.0054959  -0.0028794   0.0084835  -0.0038308   0.0113520  -0.0086303
           31          32          33          34          35          36
    1  -0.0019739   0.0062080   0.0274008   0.0727269   0.0365458  -0.0269964
    2  -0.0097780  -0.0162196  -0.0298149  -0.0003176   0.0295324   0.0286718
    3  -0.0097747  -0.0529650  -0.0424672  -0.0019561   0.0201635   0.0325815
           37          38          39          40          41          42
    1  -0.0688007  -0.0199515  -0.0050454   0.0043193   0.0048145  -0.0094876
    2   0.0046547   0.0144595   0.0013591  -0.0022124  -0.0057537  -0.0058203
    3   0.0194095  -0.0826828  -0.0018013  -0.0076609  -0.0048418  -0.0102665
           43          44          45          46          47          48
    1   0.0051160  -0.0049396  -0.0027317   0.0023965   0.0051941   0.0028575
    2  -0.0085849   0.0019933  -0.0090425   0.0027231  -0.0016624  -0.0058784
    3   0.0067621  -0.0063165   0.0079175  -0.0074599  -0.0119059  -0.0062361
           49          50          51          52          53          54
    1  -0.0012698   0.0037633  -0.0074399  -0.0079203   0.0059378  -0.0004096
    2   0.0026584   0.0024178  -0.0030458  -0.0039781  -0.0048519  -0.0003951
    3   0.0019268   0.0000762  -0.0013305   0.0010640   0.0070425  -0.0053558
           55          56
    1  -0.0277598   0.0075681
    2   0.0046378   0.0021985
    3   0.0014170  -0.0023801
 Max gradient component =       1.332E-01
 RMS gradient           =       2.906E-02
 Gradient time:  CPU 30.59 s  wall 0.65 s
 Geometry Optimization Parameters
   NAtoms,    NIC,     NZ,  NCons,   NDum,   NFix, NCnnct, MaxDiis
       56     458       0       9       0       0       0       0


** CONSTRAINED OPTIMIZATION IN DELOCALIZED INTERNAL COORDINATES **
   Searching for a Minimum

   Optimization Cycle:   1

                       Coordinates (Angstroms)
     ATOM                X               Y               Z
      1  O        -5.6927140415    0.6698923225    1.2767981130
      2  C        -5.0144140800    0.8360890301    0.2731577129
      3  C        -4.4511944405   -0.2670932451   -0.5953843402
      4  C        -2.9384527225   -0.2428429732   -0.8690475070
      5  C        -2.1301928235    0.7783562697   -0.0996597021
      6  O        -1.0989061420    1.2313688665   -0.8720916016
      7  C         0.0806265048    1.5299279606   -0.1178926390
      8  C         1.0648460019    2.3214512246   -0.9728277150
      9  O         2.4112884111    2.0256637795   -0.5697066853
     10  C         2.5322616726    1.1756531623    0.4800508907
     11  C         2.5021602095   -0.2767899077    0.0675339477
     12  C         3.7865295119   -0.7861073936   -0.6027415052
     13  C         5.0091902825    0.0950272463   -0.4433365709
     14  O         6.1695443301   -0.2851761447   -0.5031608307
     15  O        -4.8224000544    2.1020776030   -0.1823631681
     16  O         4.8580582730    1.4404132871   -0.5577945581
     17  O         2.5378824652    1.5685475326    1.6381191737
     18  C         5.8810009833    2.3676487890   -0.5252808617
     19  C         2.4008262682   -1.2552513694    1.2605965531
     20  C         1.8151071887   -2.5860840629    0.7916487787
     21  C         2.9647263349   -3.1223529276   -0.0336586474
     22  C         4.0251670478   -2.0514088807    0.2486535550
     23  O         3.7299260394   -1.6045128347    1.5484733748
     24  H         1.6702215855   -0.4930870059   -0.6354521065
     25  H         3.6775312717   -1.0117203539   -1.6864729534
     26  H         1.8017865029   -0.8608395601    2.1102001084
     27  H         1.6991184050   -3.2237248504    1.6975492672
     28  H         0.8407168960   -2.5258073386    0.2623459307
     29  H         3.2680847623   -4.1067407237    0.3870154675
     30  H         2.7656456016   -3.2157498427   -1.1233041847
     31  H         5.0414230415   -2.4797074340    0.1039854787
     32  O        -2.1932945630    0.9084587105    1.1185645607
     33  C        -5.2862753732    3.2354087700    0.4516372301
     34  C        -4.6062627574   -1.6598234830    0.0443652443
     35  C        -4.5133090170   -2.7476640462   -1.0275218705
     36  C        -3.0283466827   -2.7296182830   -1.3178478346
     37  C        -2.5668579782   -1.6449971623   -0.3428782784
     38  O        -3.4129946848   -1.8220416723    0.7677755773
     39  H        -5.0233374856   -0.2142305640   -1.5485034586
     40  H        -2.6933485377   -0.1656069353   -1.9535752002
     41  H        -4.8463154301    3.3109120164    1.4690535771
     42  H        -5.5507864756   -1.7780514163    0.6187046960
     43  H        -4.7690829336   -3.7253061780   -0.5602394130
     44  H        -5.1723281328   -2.5709464003   -1.9047771611
     45  H        -2.5964523753   -3.7056329401   -1.0014188836
     46  H        -2.7497338041   -2.5207436936   -2.3732297734
     47  H        -1.4771658817   -1.7487723050   -0.1459578278
     48  H        -6.3947335968    3.2088085670    0.5218907615
     49  H        -4.9865859148    4.1282578684   -0.1344163214
     50  H         5.4518673547    3.3850176709   -0.6312801215
     51  H         6.5891807678    2.1895079128   -1.3623214638
     52  H         6.4197391223    2.3064166856    0.4444805017
     53  H         0.9892379960    1.9478975072   -2.0165731528
     54  H         0.8429437314    3.4099442226   -0.9789950400
     55  H         0.2858860914    0.5664460401    0.3600361691
     56  H        -0.1374496160    2.1987551427    0.7469448162
   Point Group: c1    Number of degrees of freedom:   162


   Energy is  -1510.094428569

              Constraints and their Current Values
                                        Value     Constraint
   Dihedral:        1   2   3   4     -126.316     -126.316
   Dihedral:        3   4   5   6     -145.928     -145.928
   Dihedral:        4   5   6   7     -145.829     -145.829
   Dihedral:        5   6   7   8     -166.976     -166.977
   Dihedral:        6   7   8   9     -149.434     -149.434
   Dihedral:        7   8   9  10       -2.288       -2.287
   Dihedral:        8   9  10  11       85.531       85.530
   Dihedral:        9  10  11  12       74.755       74.756
   Dihedral:       11  12  13  14      155.185      155.184

 Attempting to Generate Delocalized Internal Coordinates

   Using Lagrange Multiplier Algorithm


171 Hessian modes will be used to form the next step
  Hessian Eigenvalues:
    -0.977753   -0.977753   -0.977753   -0.977753   -0.977753   -0.977753
    -0.977753   -0.977753   -0.977753    0.045000    0.045000    0.045000
     0.045000    0.045124    0.045180    0.045546    0.045600    0.046056
     0.046382    0.048883    0.048911    0.053652    0.060014    0.060074
     0.062759    0.062846    0.066951    0.067002    0.067162    0.067577
     0.068380    0.071031    0.072133    0.073090    0.073582    0.075384
     0.076183    0.076901    0.077030    0.080073    0.082436    0.082592
     0.084162    0.084217    0.084504    0.085276    0.085299    0.085807
     0.086399    0.086903    0.087687    0.088625    0.088822    0.089101
     0.089388    0.089627    0.089853    0.093886    0.094113    0.096606
     0.096677    0.111492    0.111572    0.114594    0.114653    0.115911
     0.115959    0.116034    0.117530    0.118133    0.118163    0.118579
     0.124111    0.127715    0.130400    0.130626    0.130819    0.138627
     0.140136    0.160000    0.160000    0.160000    0.160000    0.160000
     0.160000    0.171250    0.171681    0.171997    0.172663    0.215475
     0.220604    0.237035    0.238043    0.242162    0.245930    0.248460
     0.249477    0.250000    0.250000    0.250000    0.250000    0.250000
     0.250000    0.250000    0.250000    0.258374    0.258710    0.267000
     0.267653    0.279788    0.279916    0.281168    0.283902    0.295505
     0.296086    0.298750    0.308052    0.310698    0.310863    0.313316
     0.320946    0.321221    0.321942    0.322475    0.322612    0.322934
     0.323200    0.323556    0.323609    0.323688    0.324037    0.324164
     0.324298    0.324569    0.324582    0.324781    0.324894    0.324906
     0.324943    0.325051    0.325148    0.325461    0.325526    0.326788
     0.326798    0.342505    0.369275    0.370614    0.385003    0.386388
     0.400999    0.407716    0.489151    0.492898    0.517912    0.531341
     0.532157    0.537333    0.924431    0.941035    0.941950    0.942754
     1.022753    1.022753    1.022753    1.022753    1.022753    1.022753
     1.022753    1.022753    1.022753

 Minimum Search - Taking P-RFO Step
 Searching for Lamda that Maximizes Along the Constraint modes Only
 Value Taken    Lamda =   0.00177832
 Searching for Lamda that Minimizes Along All other modes
 Value Taken    Lamda =  -0.19608959
 Calculated Step too Large.  Step scaled by  0.491115
 Step Taken.  Stepsize is  0.300000

                             Maximum     Tolerance    Cnvgd?
         Gradient            0.123465       0.000300      NO
         Displacement        0.099128       0.001200      NO
         Energy change     *********       0.000001      NO


 New Cartesian Coordinates Obtained by Inverse Iteration

 Displacement from previous Coordinates is:  3.311238
 Adding empirical dispersion correction 
 ----------------------------------------------------------------
 Doing -D3(op) with
 s6 =   1.00000
 s8 =   0.78311
 a1 =   0.30000
 a2 =   4.25000
 n  =  10.00000
 -D3 energy without 3body term =     -0.0675296976 hartrees
 ----------------------------------------------------------------
             Standard Nuclear Orientation (Angstroms)
    I     Atom           X                Y                Z
 ----------------------------------------------------------------
    1      O      -5.8882715794     0.7738391031     1.2058738554
    2      C      -5.1685828931     0.9204807318     0.2085632008
    3      C      -4.6211911213    -0.2087771038    -0.6659597244
    4      C      -3.0858694871    -0.2327610604    -0.8955495313
    5      C      -2.2693341645     0.7755199620    -0.0805819609
    6      O      -1.1839141669     1.2087317309    -0.8271549323
    7      C      -0.0094716139     1.4729889640    -0.0167888277
    8      C       1.0252182041     2.2509866337    -0.8591507994
    9      O       2.4114083390     1.9830220392    -0.4914239121
   10      C       2.6515998020     1.1269445878     0.5724409804
   11      C       2.6701606067    -0.3541098373     0.1664934639
   12      C       3.9468732363    -0.8126689256    -0.5958534021
   13      C       5.1454926248     0.1389876860    -0.5221956284
   14      O       6.3311545391    -0.1996324191    -0.6612992668
   15      O      -4.8797256857     2.1778537646    -0.2732866575
   16      O       4.8466339780     1.4812623461    -0.6128089219
   17      O       2.7263523543     1.5288407183     1.7394970000
   18      C       5.8469497437     2.4661213042    -0.6458221039
   19      C       2.7014966240    -1.3388970663     1.3810836650
   20      C       2.1410797241    -2.7125797751     0.9405977075
   21      C       3.2730775316    -3.2026728613     0.0248659188
   22      C       4.3164252237    -2.0741150896     0.2432414888
   23      O       4.0875898743    -1.6287415537     1.5831919553
   24      H       1.8029728953    -0.6083493134    -0.4729105887
   25      H       3.7709677501    -1.0463516590    -1.6661457632
   26      H       2.1522635512    -0.9646012400     2.2702983651
   27      H       2.1098105942    -3.3541438242     1.8450397819
   28      H       1.1349545202    -2.6931105035     0.4795419550
   29      H       3.6508807882    -4.1696919818     0.4116931150
   30      H       3.0040140351    -3.3033897296    -1.0448137407
   31      H       5.3417561808    -2.4452213094     0.0322261695
   32      O      -2.3727976512     0.9156961983     1.1465593619
   33      C      -5.3327896733     3.3274950024     0.3937456455
   34      C      -4.8512608276    -1.6120320303    -0.0330404745
   35      C      -4.7612608825    -2.6991095688    -1.1338923846
   36      C      -3.2450371494    -2.7318193949    -1.3812761379
   37      C      -2.7685404758    -1.6677716871    -0.3611230051
   38      O      -3.6678438327    -1.8293095309     0.7401126214
   39      H      -5.1597913457    -0.1294174582    -1.6342120249
   40      H      -2.8042767772    -0.1550801806    -1.9668526611
   41      H      -4.9240067123     3.3752769571     1.4273063935
   42      H      -5.8113423190    -1.6946420923     0.5179943191
   43      H      -5.0710523923    -3.6692020726    -0.6954114305
   44      H      -5.3825398821    -2.4844501243    -2.0249177757
   45      H      -2.8554749508    -3.7229885196    -1.0731454580
   46      H      -2.9277369291    -2.5169137538    -2.4200949623
   47      H      -1.6927308125    -1.8078326623    -0.1234053403
   48      H      -6.4440954612     3.3502288425     0.4412291826
   49      H      -4.9836668293     4.2181454260    -0.1670041443
   50      H       5.3560247815     3.4583945367    -0.7090422996
   51      H       6.5055559076     2.3367078772    -1.5329407877
   52      H       6.4673488520     2.4342250975     0.2769441665
   53      H       0.9440920326     1.8820177345    -1.9069700250
   54      H       0.8055056738     3.3400806255    -0.8570242548
   55      H       0.1985408825     0.5013332047     0.4529292052
   56      H      -0.2440061240     2.1347195144     0.8504995183
 ----------------------------------------------------------------
 Molecular Point Group                 C1    NOp =  1
 Largest Abelian Subgroup              C1    NOp =  1
 Nuclear Repulsion Energy =  3136.6683809906 hartrees
 There are      113 alpha and      113 beta electrons
 Applying Cartesian multipole field
    Component          Value
    ---------          -----
     (2,0,0)        1.00000E-12
     (0,2,0)        2.00000E-11
     (0,0,2)       -3.00000E-11
 Nucleus-field energy     =     0.0000000493 hartrees
 Requested basis set is STO-3G
 There are 86 shells and 176 basis functions
 A cutoff of  1.0D-12 yielded   2208 shell pairs
 There are     10239 function pairs
 Smallest overlap matrix eigenvalue = 2.01E-01
 Guess MOs from SCF MO coefficient file
 Reading MOs from coefficient file
 Reading MOs from coefficient file
 A restricted hybrid HF-DFT SCF calculation will be
 performed using Pulay DIIS extrapolation
 Exchange:     0.2000 Hartree-Fock + 0.0800 Slater + 0.7200 B88
 Correlation:  0.1900 VWN1RPA + 0.8100 LYP
 Using SG-1 standard quadrature grid
 Dispersion:   Grimme D3
 SCF converges when DIIS error is below 1.0E-08
 Geometry optimization detected.  Setting ReadMinima to 0
 Setting SaveMinima to 0
 using 48 threads for integral computing
 -------------------------------------------------------
 OpenMP Integral computing Module                
 Release: version 1.0, May 2013, Q-Chem Inc. Pittsburgh 
 -------------------------------------------------------
 -------------------------------------------------------
 OpenMP BLAS3 based DFT computing Module                
 Release: version 1.0, May 2013, Q-Chem Inc. Pittsburgh 
 -------------------------------------------------------
 ---------------------------------------
  Cycle       Energy         DIIS Error
 ---------------------------------------
    1   -1509.9567101533      4.74E-03
    2   -1510.1656444885      9.77E-04
    3   -1510.1574160020      1.73E-03
    4   -1510.1696347815      3.50E-04
    5   -1510.1701795294      7.08E-05
    6   -1510.1702001499      2.88E-05
    7   -1510.1702028231      1.75E-05
    8   -1510.1702042040      2.87E-06
    9   -1510.1702042449      1.28E-06
   10   -1510.1702042513      6.54E-07
   11   -1510.1702042535      1.54E-07
   12   -1510.1702042537      8.02E-08
   13   -1510.1702042538      4.17E-08
   14   -1510.1702042538      6.13E-09 Convergence criterion met
 ---------------------------------------
 SCF time:  CPU 100.24 s  wall 2.09 s
 SCF   energy in the final basis set = -1510.17020425
 Total energy in the final basis set = -1510.17020425
 
 --------------------------------------------------------------
 
                    Orbital Energies (a.u.)
 --------------------------------------------------------------
 
 Alpha MOs
 -- Occupied --
-18.940 -18.937 -18.932 -18.902 -18.902 -18.899 -18.894 -18.873
-18.859 -18.858 -10.120 -10.109 -10.107 -10.105 -10.090 -10.085
-10.078 -10.076 -10.072 -10.067 -10.067 -10.066 -10.047 -10.042
-10.041 -10.037 -10.023 -10.020 -10.020 -10.019  -1.038  -1.036
 -1.030  -1.021  -1.010  -1.009  -0.952  -0.946  -0.939  -0.939
 -0.780  -0.779  -0.742  -0.739  -0.730  -0.717  -0.715  -0.676
 -0.676  -0.634  -0.610  -0.595  -0.556  -0.553  -0.542  -0.538
 -0.527  -0.520  -0.498  -0.490  -0.482  -0.479  -0.464  -0.462
 -0.447  -0.444  -0.438  -0.423  -0.422  -0.422  -0.420  -0.414
 -0.406  -0.396  -0.392  -0.386  -0.380  -0.368  -0.365  -0.364
 -0.355  -0.349  -0.346  -0.340  -0.335  -0.330  -0.329  -0.316
 -0.314  -0.312  -0.310  -0.306  -0.299  -0.297  -0.289  -0.277
 -0.276  -0.251  -0.240  -0.239  -0.231  -0.231  -0.224  -0.182
 -0.174  -0.172  -0.164  -0.158  -0.157  -0.154  -0.150  -0.142
 -0.142
 -- Virtual --
  0.076   0.091   0.105   0.116   0.212   0.238   0.243   0.279
  0.281   0.294   0.310   0.313   0.321   0.330   0.334   0.342
  0.350   0.360   0.364   0.373   0.376   0.381   0.382   0.386
  0.391   0.396   0.397   0.398   0.402   0.407   0.412   0.413
  0.423   0.423   0.430   0.432   0.434   0.437   0.439   0.441
  0.449   0.451   0.459   0.461   0.466   0.468   0.472   0.479
  0.483   0.486   0.495   0.498   0.505   0.524   0.530   0.545
  0.554   0.561   0.565   0.645   0.657   0.667   0.669
 --------------------------------------------------------------
 
          Ground-State Mulliken Net Atomic Charges

     Atom                 Charge (a.u.)
  ----------------------------------------
      1 O                    -0.224475
      2 C                     0.230160
      3 C                    -0.079885
      4 C                    -0.079549
      5 C                     0.221528
      6 O                    -0.190873
      7 C                    -0.052996
      8 C                    -0.034759
      9 O                    -0.211471
     10 C                     0.247142
     11 C                    -0.089594
     12 C                    -0.076715
     13 C                     0.225564
     14 O                    -0.227208
     15 O                    -0.203675
     16 O                    -0.194994
     17 O                    -0.190699
     18 C                    -0.102621
     19 C                     0.032725
     20 C                    -0.143484
     21 C                    -0.145349
     22 C                     0.035604
     23 O                    -0.202044
     24 H                     0.079063
     25 H                     0.089104
     26 H                     0.088291
     27 H                     0.077788
     28 H                     0.068510
     29 H                     0.077588
     30 H                     0.070928
     31 H                     0.092178
     32 O                    -0.216441
     33 C                    -0.105396
     34 C                     0.036374
     35 C                    -0.143619
     36 C                    -0.144079
     37 C                     0.036643
     38 O                    -0.197359
     39 H                     0.085703
     40 H                     0.084997
     41 H                     0.090498
     42 H                     0.094016
     43 H                     0.076919
     44 H                     0.073172
     45 H                     0.076441
     46 H                     0.072847
     47 H                     0.075959
     48 H                     0.086083
     49 H                     0.092375
     50 H                     0.098303
     51 H                     0.087918
     52 H                     0.089675
     53 H                     0.086317
     54 H                     0.093699
     55 H                     0.089760
     56 H                     0.093411
  ----------------------------------------
  Sum of atomic charges =     0.000000

 -----------------------------------------------------------------
                    Cartesian Multipole Moments
 -----------------------------------------------------------------
    Charge (ESU x 10^10)
                 0.0000
    Dipole Moment (Debye)
         X      -1.3706      Y      -0.1854      Z      -4.5102
       Tot       4.7175
    Quadrupole Moments (Debye-Ang)
        XX    -175.2213     XY       0.8353     YY    -148.1750
        XZ       5.7194     YZ       1.5000     ZZ    -167.1473
    Octopole Moments (Debye-Ang^2)
       XXX     -81.7239    XXY      62.1076    XYY      -7.2573
       YYY      59.3949    XXZ     -75.4390    XYZ     -12.7356
       YYZ       1.2158    XZZ       6.6836    YZZ       5.8740
       ZZZ      -2.1370
    Hexadecapole Moments (Debye-Ang^3)
      XXXX  -15614.1786   XXXY     314.4266   XXYY   -2752.0983
      XYYY     -29.5784   YYYY   -3373.2977   XXXZ     146.7151
      XXYZ      20.1714   XYYZ     -77.3176   YYYZ     -20.5562
      XXZZ   -2752.1773   XYZZ      33.0412   YYZZ    -754.5117
      XZZZ    -128.3976   YZZZ      -8.2986   ZZZZ    -863.9824
 -----------------------------------------------------------------
 Calculating analytic gradient of the SCF energy
 Gradient of SCF Energy
            1           2           3           4           5           6
    1   0.0168040   0.0185560   0.0099679   0.0015628   0.0056550  -0.0079809
    2   0.0105058  -0.0013048  -0.0086194  -0.0070114   0.0181856  -0.0130229
    3  -0.0268244  -0.0315378   0.0336543   0.0339600  -0.0177092   0.0486625
            7           8           9          10          11          12
    1   0.0279229  -0.0094519  -0.0149602   0.0201676   0.0062648   0.0062786
    2  -0.0245629   0.0302896  -0.0406172   0.0118262   0.0197985   0.0006397
    3  -0.0419998   0.0186310   0.0353851  -0.0137760   0.0190599   0.0086875
           13          14          15          16          17          18
    1  -0.0411931  -0.0303630  -0.0514477   0.0941053  -0.0102724  -0.0424639
    2  -0.0057799   0.0238673   0.0078848  -0.0084850  -0.0090494  -0.0140683
    3   0.0238412  -0.0078478   0.0736891  -0.0085820  -0.0282694  -0.0013118
           19          20          21          22          23          24
    1   0.0450294   0.0239343   0.0005410  -0.0288190  -0.0331182   0.0005384
    2  -0.0131919   0.0165449   0.0212053   0.0260253  -0.0063576  -0.0093570
    3  -0.0145247  -0.0095160   0.0148325   0.0332544  -0.0437990  -0.0017182
           25          26          27          28          29          30
    1   0.0026238  -0.0118744   0.0054973  -0.0044331  -0.0021952   0.0010413
    2  -0.0015191  -0.0045932  -0.0025219  -0.0022968  -0.0039621   0.0018383
    3  -0.0035039  -0.0026735   0.0053677  -0.0013091   0.0083433  -0.0054995
           31          32          33          34          35          36
    1  -0.0024951   0.0057692   0.0216594   0.0475342   0.0196619  -0.0137059
    2  -0.0084262  -0.0123967  -0.0223902  -0.0012631   0.0177387   0.0176793
    3  -0.0088229  -0.0264494  -0.0335092   0.0052855   0.0116211   0.0172640
           37          38          39          40          41          42
    1  -0.0452229  -0.0108393  -0.0038397   0.0036160   0.0032982  -0.0078942
    2   0.0039372   0.0103798   0.0010764  -0.0024102  -0.0029013  -0.0042294
    3   0.0155548  -0.0531167  -0.0009333  -0.0045081  -0.0018811  -0.0099348
           43          44          45          46          47          48
    1   0.0039060  -0.0035155  -0.0030147   0.0023669   0.0044453   0.0004991
    2  -0.0054169   0.0006292  -0.0055911   0.0010929  -0.0013866  -0.0029573
    3   0.0049244  -0.0036389   0.0057459  -0.0042953  -0.0106714  -0.0038548
           49          50          51          52          53          54
    1  -0.0011307   0.0030927  -0.0036914  -0.0039699   0.0054763  -0.0009497
    2   0.0030121   0.0028470  -0.0016131  -0.0022412  -0.0050546  -0.0002498
    3   0.0017379  -0.0001385  -0.0014889   0.0019305   0.0041564  -0.0042728
           55          56
    1  -0.0254759   0.0065022
    2   0.0056880   0.0021566
    3   0.0025621  -0.0002330
 Max gradient component =       9.411E-02
 RMS gradient           =       1.976E-02
 Gradient time:  CPU 30.33 s  wall 0.65 s
 Geometry Optimization Parameters
   NAtoms,    NIC,     NZ,  NCons,   NDum,   NFix, NCnnct, MaxDiis
       56     458       0       9       0       0       0       0

 Cartesian Hessian Update
 Hessian Updated using BFGS Update


** CONSTRAINED OPTIMIZATION IN DELOCALIZED INTERNAL COORDINATES **
   Searching for a Minimum

   Optimization Cycle:   2

                       Coordinates (Angstroms)
     ATOM                X               Y               Z
      1  O        -5.8882715794    0.7738391031    1.2058738554
      2  C        -5.1685828931    0.9204807318    0.2085632008
      3  C        -4.6211911213   -0.2087771038   -0.6659597244
      4  C        -3.0858694871   -0.2327610604   -0.8955495313
      5  C        -2.2693341645    0.7755199620   -0.0805819609
      6  O        -1.1839141669    1.2087317309   -0.8271549323
      7  C        -0.0094716139    1.4729889640   -0.0167888277
      8  C         1.0252182041    2.2509866337   -0.8591507994
      9  O         2.4114083390    1.9830220392   -0.4914239121
     10  C         2.6515998020    1.1269445878    0.5724409804
     11  C         2.6701606067   -0.3541098373    0.1664934639
     12  C         3.9468732363   -0.8126689256   -0.5958534021
     13  C         5.1454926248    0.1389876860   -0.5221956284
     14  O         6.3311545391   -0.1996324191   -0.6612992668
     15  O        -4.8797256857    2.1778537646   -0.2732866575
     16  O         4.8466339780    1.4812623461   -0.6128089219
     17  O         2.7263523543    1.5288407183    1.7394970000
     18  C         5.8469497437    2.4661213042   -0.6458221039
     19  C         2.7014966240   -1.3388970663    1.3810836650
     20  C         2.1410797241   -2.7125797751    0.9405977075
     21  C         3.2730775316   -3.2026728613    0.0248659188
     22  C         4.3164252237   -2.0741150896    0.2432414888
     23  O         4.0875898743   -1.6287415537    1.5831919553
     24  H         1.8029728953   -0.6083493134   -0.4729105887
     25  H         3.7709677501   -1.0463516590   -1.6661457632
     26  H         2.1522635512   -0.9646012400    2.2702983651
     27  H         2.1098105942   -3.3541438242    1.8450397819
     28  H         1.1349545202   -2.6931105035    0.4795419550
     29  H         3.6508807882   -4.1696919818    0.4116931150
     30  H         3.0040140351   -3.3033897296   -1.0448137407
     31  H         5.3417561808   -2.4452213094    0.0322261695
     32  O        -2.3727976512    0.9156961983    1.1465593619
     33  C        -5.3327896733    3.3274950024    0.3937456455
     34  C        -4.8512608276   -1.6120320303   -0.0330404745
     35  C        -4.7612608825   -2.6991095688   -1.1338923846
     36  C        -3.2450371494   -2.7318193949   -1.3812761379
     37  C        -2.7685404758   -1.6677716871   -0.3611230051
     38  O        -3.6678438327   -1.8293095309    0.7401126214
     39  H        -5.1597913457   -0.1294174582   -1.6342120249
     40  H        -2.8042767772   -0.1550801806   -1.9668526611
     41  H        -4.9240067123    3.3752769571    1.4273063935
     42  H        -5.8113423190   -1.6946420923    0.5179943191
     43  H        -5.0710523923   -3.6692020726   -0.6954114305
     44  H        -5.3825398821   -2.4844501243   -2.0249177757
     45  H        -2.8554749508   -3.7229885196   -1.0731454580
     46  H        -2.9277369291   -2.5169137538   -2.4200949623
     47  H        -1.6927308125   -1.8078326623   -0.1234053403
     48  H        -6.4440954612    3.3502288425    0.4412291826
     49  H        -4.9836668293    4.2181454260   -0.1670041443
     50  H         5.3560247815    3.4583945367   -0.7090422996
     51  H         6.5055559076    2.3367078772   -1.5329407877
     52  H         6.4673488520    2.4342250975    0.2769441665
     53  H         0.9440920326    1.8820177345   -1.9069700250
     54  H         0.8055056738    3.3400806255   -0.8570242548
     55  H         0.1985408825    0.5013332047    0.4529292052
     56  H        -0.2440061240    2.1347195144    0.8504995183
   Point Group: c1    Number of degrees of freedom:   162


   Energy is  -1510.170204254

              Constraints and their Current Values
                                        Value     Constraint
   Dihedral:        1   2   3   4     -126.315     -126.316
   Dihedral:        3   4   5   6     -145.951     -145.928
   Dihedral:        4   5   6   7     -145.775     -145.829
   Dihedral:        5   6   7   8     -166.910     -166.977
   Dihedral:        6   7   8   9     -149.379     -149.434
   Dihedral:        7   8   9  10       -2.332       -2.287
   Dihedral:        8   9  10  11       85.464       85.530
   Dihedral:        9  10  11  12       74.743       74.756
   Dihedral:       11  12  13  14      155.203      155.184
 Hessian Updated using BFGS Update

   Using Lagrange Multiplier Algorithm


161 Hessian modes will be used to form the next step
  Hessian Eigenvalues:
    -0.977753   -0.977753   -0.977753   -0.977753   -0.977753   -0.977753
    -0.977753   -0.977753   -0.974811    0.044999    0.045000    0.045120
     0.045204    0.045546    0.045593    0.046036    0.046359    0.048882
     0.048907    0.053656    0.059925    0.060055    0.062754    0.062837
     0.066935    0.067002    0.067161    0.067591    0.068135    0.071018
     0.072133    0.073080    0.073576    0.075378    0.076184    0.076849
     0.076979    0.080072    0.082433    0.082585    0.084128    0.084209
     0.084505    0.085207    0.085646    0.085803    0.086400    0.086902
     0.087621    0.088556    0.088824    0.089087    0.089403    0.089638
     0.089875    0.093881    0.094088    0.096604    0.096636    0.111508
     0.111593    0.114600    0.114662    0.115911    0.115959    0.116038
     0.117111    0.117612    0.118135    0.118580    0.124186    0.126731
     0.129529    0.130428    0.130822    0.138624    0.140127    0.159613
     0.160000    0.160000    0.160690    0.171070    0.171543    0.172021
     0.172371    0.209862    0.218804    0.230226    0.237135    0.238067
     0.242165    0.246354    0.248469    0.249493    0.258036    0.258518
     0.266379    0.267629    0.268703    0.279839    0.280744    0.282857
     0.289788    0.295762    0.297205    0.303254    0.308531    0.310674
     0.311984    0.320829    0.321046    0.321692    0.322224    0.322551
     0.322902    0.323054    0.323496    0.323600    0.323678    0.323963
     0.324081    0.324179    0.324396    0.324574    0.324650    0.324808
     0.324899    0.324929    0.325050    0.325107    0.325372    0.325463
     0.326763    0.326793    0.336513    0.342021    0.369315    0.370574
     0.385560    0.388180    0.406493    0.463238    0.484647    0.492769
     0.518004    0.529765    0.533103    0.564311    0.924881    0.940517
     0.942021    0.975356    1.022753    1.022753    1.022753    1.022753
     1.022753    1.022753    1.022753    1.022753    1.049653

 Minimum Search - Taking P-RFO Step
 Searching for Lamda that Maximizes Along the Constraint modes Only
 Value Taken    Lamda =   0.00031839
 Searching for Lamda that Minimizes Along All other modes
 Value Taken    Lamda =  -0.10095091
 Calculated Step too Large.  Step scaled by  0.532140
 Step Taken.  Stepsize is  0.300000

                             Maximum     Tolerance    Cnvgd?
         Gradient            0.071681       0.000300      NO
         Displacement        0.086492       0.001200      NO
         Energy change     -0.075776       0.000001      NO


 New Cartesian Coordinates Obtained by Inverse Iteration

 Displacement from previous Coordinates is:  1.492113
 Adding empirical dispersion correction 
 ----------------------------------------------------------------
 Doing -D3(op) with
 s6 =   1.00000
 s8 =   0.78311
 a1 =   0.30000
 a2 =   4.25000
 n  =  10.00000
 -D3 energy without 3body term =     -0.0678686738 hartrees
 ----------------------------------------------------------------
             Standard Nuclear Orientation (Angstroms)
    I     Atom           X                Y                Z
 ----------------------------------------------------------------
    1      O      -5.8207795145     0.7643740412     1.2807559314
    2      C      -5.1254806240     0.8922277691     0.2527641517
    3      C      -4.6018903797    -0.2533424090    -0.6434827497
    4      C      -3.0610903896    -0.2650798095    -0.9088339044
    5      C      -2.2457782593     0.7755523137    -0.1043264859
    6      O      -1.1657399185     1.2255799880    -0.8865614729
    7      C       0.0171678653     1.5156490034    -0.0692507868
    8      C       1.0250935812     2.3073685080    -0.9486345748
    9      O       2.4248175418     2.0701992811    -0.5962906825
   10      C       2.6151158896     1.2099156493     0.5049277182
   11      C       2.6202582902    -0.2948043202     0.1154499837
   12      C       3.9237383541    -0.7992076406    -0.6028115918
   13      C       5.1589579176     0.1301157750    -0.4934704223
   14      O       6.3497508474    -0.2371574137    -0.5862087010
   15      O      -4.8095855126     2.1405103523    -0.2871894220
   16      O       4.8368658162     1.4847330762    -0.5722199880
   17      O       2.6717343374     1.6298667464     1.6762404083
   18      C       5.9232847701     2.4163172535    -0.5527400920
   19      C       2.5871057554    -1.2741870811     1.3521012032
   20      C       1.9967545598    -2.6456433443     0.8896898863
   21      C       3.1560617774    -3.1781652451     0.0036538579
   22      C       4.2395316159    -2.0752222842     0.2582934028
   23      O       3.9788988176    -1.6062860841     1.6090726742
   24      H       1.7633523710    -0.5205216988    -0.5467008068
   25      H       3.7709759509    -1.0319202208    -1.6746099503
   26      H       2.0332027222    -0.8700464394     2.2232273527
   27      H       1.9088116204    -3.2839801551     1.7877608271
   28      H       1.0119072919    -2.5909460654     0.3944438816
   29      H       3.4939521068    -4.1540618350     0.3943960150
   30      H       2.9161876809    -3.2710998942    -1.0701974614
   31      H       5.2644127308    -2.4637407507     0.0893382865
   32      O      -2.3372300286     0.9467524445     1.1285414149
   33      C      -5.2674425236     3.2790794156     0.4503973532
   34      C      -4.8138094983    -1.6633985119     0.0113857921
   35      C      -4.7377183670    -2.7565605897    -1.1059695102
   36      C      -3.2091984014    -2.7790010499    -1.3889598511
   37      C      -2.7095185386    -1.7065602004    -0.3653423084
   38      O      -3.5944237062    -1.8757532234     0.7734989869
   39      H      -5.1605276754    -0.1825536477    -1.5986432864
   40      H      -2.8020093857    -0.1888919517    -1.9822500677
   41      H      -4.8322006837     3.3042104793     1.4735070689
   42      H      -5.7521797071    -1.7407380728     0.5962922821
   43      H      -5.0372919293    -3.7269478053    -0.6706838682
   44      H      -5.3751775464    -2.5397024748    -1.9806025702
   45      H      -2.8033716454    -3.7652856334    -1.1002936775
   46      H      -2.9189675771    -2.5560249694    -2.4304494610
   47      H      -1.6316738709    -1.8320690530    -0.1368461541
   48      H      -6.3762440785     3.2928220352     0.5364228975
   49      H      -4.9407105730     4.1836671477    -0.0988805229
   50      H       5.4859415410     3.4321039347    -0.6126172220
   51      H       6.6045590965     2.2651440896    -1.4187225208
   52      H       6.5154841119     2.3349957647     0.3849092071
   53      H       0.9233337391     1.9298944665    -1.9930639224
   54      H       0.7853323350     3.3921904220    -0.9466139830
   55      H       0.3195198716     0.5512404855     0.3829420181
   56      H      -0.2324814619     2.1639056917     0.8033255253
 ----------------------------------------------------------------
 Molecular Point Group                 C1    NOp =  1
 Largest Abelian Subgroup              C1    NOp =  1
 Nuclear Repulsion Energy =  3132.3191497997 hartrees
 There are      113 alpha and      113 beta electrons
 Applying Cartesian multipole field
    Component          Value
    ---------          -----
     (2,0,0)        1.00000E-12
     (0,2,0)        2.00000E-11
     (0,0,2)       -3.00000E-11
 Nucleus-field energy     =     0.0000000495 hartrees
 Requested basis set is STO-3G
 There are 86 shells and 176 basis functions
 A cutoff of  1.0D-12 yielded   2222 shell pairs
 There are     10310 function pairs
 Smallest overlap matrix eigenvalue = 2.06E-01
 Guess MOs from SCF MO coefficient file
 Reading MOs from coefficient file
 Reading MOs from coefficient file
 A restricted hybrid HF-DFT SCF calculation will be
 performed using Pulay DIIS extrapolation
 Exchange:     0.2000 Hartree-Fock + 0.0800 Slater + 0.7200 B88
 Correlation:  0.1900 VWN1RPA + 0.8100 LYP
 Using SG-1 standard quadrature grid
 Dispersion:   Grimme D3
 SCF converges when DIIS error is below 1.0E-08
 Geometry optimization detected.  Setting ReadMinima to 0
 Setting SaveMinima to 0
 using 48 threads for integral computing
 -------------------------------------------------------
 OpenMP Integral computing Module                
 Release: version 1.0, May 2013, Q-Chem Inc. Pittsburgh 
 -------------------------------------------------------
 -------------------------------------------------------
 OpenMP BLAS3 based DFT computing Module                
 Release: version 1.0, May 2013, Q-Chem Inc. Pittsburgh 
 -------------------------------------------------------
 ---------------------------------------
  Cycle       Energy         DIIS Error
 ---------------------------------------
    1   -1510.0563816010      3.12E-03
    2   -1510.2082962416      8.94E-04
    3   -1510.2013060186      1.58E-03
    4   -1510.2115615939      3.01E-04
    5   -1510.2119663462      5.49E-05
    6   -1510.2119788138      2.23E-05
    7   -1510.2119803825      1.38E-05
    8   -1510.2119812363      2.54E-06
    9   -1510.2119812689      9.44E-07
   10   -1510.2119812723      5.41E-07
   11   -1510.2119812737      1.49E-07
   12   -1510.2119812738      5.39E-08
   13   -1510.2119812738      4.12E-08
   14   -1510.2119812739      6.60E-09 Convergence criterion met
 ---------------------------------------
 SCF time:  CPU 101.98 s  wall 2.13 s
 SCF   energy in the final basis set = -1510.21198127
 Total energy in the final basis set = -1510.21198127
 
 --------------------------------------------------------------
 
                    Orbital Energies (a.u.)
 --------------------------------------------------------------
 
 Alpha MOs
 -- Occupied --
-18.943 -18.937 -18.935 -18.900 -18.900 -18.898 -18.895 -18.875
-18.866 -18.864 -10.116 -10.106 -10.105 -10.102 -10.084 -10.081
-10.074 -10.071 -10.070 -10.064 -10.064 -10.064 -10.045 -10.042
-10.040 -10.038 -10.023 -10.021 -10.021 -10.020  -1.030  -1.027
 -1.021  -1.013  -0.994  -0.993  -0.947  -0.941  -0.938  -0.937
 -0.774  -0.774  -0.735  -0.733  -0.723  -0.713  -0.709  -0.672
 -0.670  -0.628  -0.607  -0.592  -0.554  -0.551  -0.541  -0.538
 -0.523  -0.516  -0.493  -0.485  -0.477  -0.472  -0.460  -0.457
 -0.443  -0.440  -0.434  -0.420  -0.419  -0.418  -0.417  -0.408
 -0.402  -0.391  -0.387  -0.380  -0.374  -0.364  -0.362  -0.360
 -0.351  -0.346  -0.344  -0.341  -0.333  -0.331  -0.329  -0.315
 -0.313  -0.310  -0.307  -0.306  -0.298  -0.296  -0.288  -0.275
 -0.274  -0.252  -0.243  -0.240  -0.239  -0.239  -0.229  -0.181
 -0.178  -0.174  -0.163  -0.158  -0.156  -0.154  -0.149  -0.146
 -0.145
 -- Virtual --
  0.075   0.087   0.101   0.111   0.211   0.236   0.241   0.272
  0.274   0.286   0.298   0.301   0.312   0.321   0.336   0.337
  0.346   0.350   0.355   0.361   0.363   0.363   0.370   0.377
  0.380   0.387   0.392   0.394   0.400   0.404   0.407   0.412
  0.417   0.420   0.422   0.423   0.430   0.432   0.433   0.435
  0.442   0.443   0.447   0.449   0.459   0.463   0.468   0.471
  0.471   0.475   0.479   0.487   0.495   0.515   0.518   0.540
  0.549   0.553   0.555   0.630   0.642   0.652   0.655
 --------------------------------------------------------------
 
          Ground-State Mulliken Net Atomic Charges

     Atom                 Charge (a.u.)
  ----------------------------------------
      1 O                    -0.217623
      2 C                     0.221839
      3 C                    -0.079520
      4 C                    -0.078898
      5 C                     0.215142
      6 O                    -0.185854
      7 C                    -0.054277
      8 C                    -0.039753
      9 O                    -0.205121
     10 C                     0.239140
     11 C                    -0.088244
     12 C                    -0.076496
     13 C                     0.218437
     14 O                    -0.220506
     15 O                    -0.190416
     16 O                    -0.180711
     17 O                    -0.187267
     18 C                    -0.111498
     19 C                     0.027887
     20 C                    -0.143984
     21 C                    -0.145873
     22 C                     0.030684
     23 O                    -0.194656
     24 H                     0.078854
     25 H                     0.088120
     26 H                     0.088141
     27 H                     0.078651
     28 H                     0.068689
     29 H                     0.077897
     30 H                     0.071727
     31 H                     0.091624
     32 O                    -0.211647
     33 C                    -0.114478
     34 C                     0.031701
     35 C                    -0.144290
     36 C                    -0.144667
     37 C                     0.032416
     38 O                    -0.190519
     39 H                     0.085116
     40 H                     0.085638
     41 H                     0.091570
     42 H                     0.093087
     43 H                     0.077266
     44 H                     0.073745
     45 H                     0.076877
     46 H                     0.073482
     47 H                     0.076086
     48 H                     0.086907
     49 H                     0.091379
     50 H                     0.097976
     51 H                     0.089304
     52 H                     0.090803
     53 H                     0.084482
     54 H                     0.091072
     55 H                     0.086608
     56 H                     0.093953
  ----------------------------------------
  Sum of atomic charges =     0.000000

 -----------------------------------------------------------------
                    Cartesian Multipole Moments
 -----------------------------------------------------------------
    Charge (ESU x 10^10)
                 0.0000
    Dipole Moment (Debye)
         X      -1.3060      Y      -0.3292      Z      -4.4280
       Tot       4.6283
    Quadrupole Moments (Debye-Ang)
        XX    -171.8472     XY       1.1674     YY    -149.1578
        XZ       5.2615     YZ       2.1331     ZZ    -167.1775
    Octopole Moments (Debye-Ang^2)
       XXX     -73.1590    XXY      62.0432    XYY      -8.3971
       YYY      53.9658    XXZ     -71.5244    XYZ     -12.2441
       YYZ       1.8062    XZZ       7.2440    YZZ       5.2127
       ZZZ      -0.6147
    Hexadecapole Moments (Debye-Ang^3)
      XXXX  -15189.0177   XXXY     273.7511   XXYY   -2727.4693
      XYYY     -97.7761   YYYY   -3398.8491   XXXZ     139.5813
      XXYZ      28.1043   XYYZ     -68.3925   YYYZ     -23.8864
      XXZZ   -2705.5610   XYZZ       9.9883   YYZZ    -758.5579
      XZZZ    -101.9694   YZZZ     -13.8162   ZZZZ    -861.3009
 -----------------------------------------------------------------
 Calculating analytic gradient of the SCF energy
 Gradient of SCF Energy
            1           2           3           4           5           6
    1   0.0043486   0.0150928   0.0076438   0.0026893  -0.0009021  -0.0051585
    2   0.0041174   0.0025443  -0.0044968  -0.0043772   0.0162686  -0.0056686
    3  -0.0093698  -0.0255245   0.0201833   0.0179049  -0.0188484   0.0281359
            7           8           9          10          11          12
    1   0.0257062  -0.0035304  -0.0146055   0.0107178  -0.0030801   0.0023529
    2  -0.0194393   0.0262530  -0.0274539   0.0068028   0.0155800   0.0002740
    3  -0.0292127   0.0142436   0.0212835  -0.0170438   0.0121722  -0.0006623
           13          14          15          16          17          18
    1  -0.0322210  -0.0095478  -0.0297440   0.0568055  -0.0074674  -0.0282595
    2   0.0006264   0.0115945   0.0040776  -0.0069821  -0.0032033  -0.0094174
    3   0.0217851  -0.0086271   0.0446659  -0.0061279  -0.0098565  -0.0017530
           19          20          21          22          23          24
    1   0.0291652   0.0101354   0.0008589  -0.0135176  -0.0161676  -0.0014026
    2  -0.0072812   0.0089180   0.0093938   0.0177959  -0.0035601  -0.0058824
    3  -0.0039027  -0.0060835   0.0047652   0.0220025  -0.0238970  -0.0005115
           25          26          27          28          29          30
    1   0.0021816  -0.0098196   0.0044730  -0.0024629  -0.0022470   0.0015921
    2  -0.0009112  -0.0033274  -0.0008886  -0.0023383  -0.0013991   0.0008940
    3  -0.0016308  -0.0034827   0.0028784   0.0004951   0.0056867  -0.0027715
           31          32          33          34          35          36
    1  -0.0025590   0.0045918   0.0131332   0.0273412   0.0076712  -0.0051157
    2  -0.0063835  -0.0088647  -0.0153074  -0.0002621   0.0101516   0.0095680
    3  -0.0077636  -0.0084740  -0.0221994   0.0070640   0.0034198   0.0064479
           37          38          39          40          41          42
    1  -0.0254203  -0.0065084  -0.0024974   0.0026471   0.0017803  -0.0062130
    2   0.0016806   0.0049885   0.0006287  -0.0025129  -0.0008290  -0.0028339
    3   0.0132949  -0.0279970  -0.0003306  -0.0020607  -0.0003339  -0.0084556
           43          44          45          46          47          48
    1   0.0034437  -0.0024497  -0.0026118   0.0019534   0.0027375  -0.0005271
    2  -0.0024862  -0.0005652  -0.0026946  -0.0001183  -0.0007150  -0.0008704
    3   0.0032504  -0.0012168   0.0041136  -0.0018879  -0.0090620  -0.0018557
           49          50          51          52          53          54
    1  -0.0006967   0.0021660  -0.0011279  -0.0014136   0.0048010  -0.0010592
    2   0.0020126   0.0018352  -0.0001493  -0.0004193  -0.0045325  -0.0003995
    3   0.0012191   0.0000220  -0.0013811   0.0014100   0.0023396  -0.0033426
           55          56
    1  -0.0125811   0.0048853
    2  -0.0014925   0.0020576
    3   0.0061702   0.0007127
 Max gradient component =       5.681E-02
 RMS gradient           =       1.230E-02
 Gradient time:  CPU 29.40 s  wall 0.62 s
 Geometry Optimization Parameters
   NAtoms,    NIC,     NZ,  NCons,   NDum,   NFix, NCnnct, MaxDiis
       56     458       0       9       0       0       0       0

 Cartesian Hessian Update
 Hessian Updated using BFGS Update


** CONSTRAINED OPTIMIZATION IN DELOCALIZED INTERNAL COORDINATES **
   Searching for a Minimum

   Optimization Cycle:   3

                       Coordinates (Angstroms)
     ATOM                X               Y               Z
      1  O        -5.8207795145    0.7643740412    1.2807559314
      2  C        -5.1254806240    0.8922277691    0.2527641517
      3  C        -4.6018903797   -0.2533424090   -0.6434827497
      4  C        -3.0610903896   -0.2650798095   -0.9088339044
      5  C        -2.2457782593    0.7755523137   -0.1043264859
      6  O        -1.1657399185    1.2255799880   -0.8865614729
      7  C         0.0171678653    1.5156490034   -0.0692507868
      8  C         1.0250935812    2.3073685080   -0.9486345748
      9  O         2.4248175418    2.0701992811   -0.5962906825
     10  C         2.6151158896    1.2099156493    0.5049277182
     11  C         2.6202582902   -0.2948043202    0.1154499837
     12  C         3.9237383541   -0.7992076406   -0.6028115918
     13  C         5.1589579176    0.1301157750   -0.4934704223
     14  O         6.3497508474   -0.2371574137   -0.5862087010
     15  O        -4.8095855126    2.1405103523   -0.2871894220
     16  O         4.8368658162    1.4847330762   -0.5722199880
     17  O         2.6717343374    1.6298667464    1.6762404083
     18  C         5.9232847701    2.4163172535   -0.5527400920
     19  C         2.5871057554   -1.2741870811    1.3521012032
     20  C         1.9967545598   -2.6456433443    0.8896898863
     21  C         3.1560617774   -3.1781652451    0.0036538579
     22  C         4.2395316159   -2.0752222842    0.2582934028
     23  O         3.9788988176   -1.6062860841    1.6090726742
     24  H         1.7633523710   -0.5205216988   -0.5467008068
     25  H         3.7709759509   -1.0319202208   -1.6746099503
     26  H         2.0332027222   -0.8700464394    2.2232273527
     27  H         1.9088116204   -3.2839801551    1.7877608271
     28  H         1.0119072919   -2.5909460654    0.3944438816
     29  H         3.4939521068   -4.1540618350    0.3943960150
     30  H         2.9161876809   -3.2710998942   -1.0701974614
     31  H         5.2644127308   -2.4637407507    0.0893382865
     32  O        -2.3372300286    0.9467524445    1.1285414149
     33  C        -5.2674425236    3.2790794156    0.4503973532
     34  C        -4.8138094983   -1.6633985119    0.0113857921
     35  C        -4.7377183670   -2.7565605897   -1.1059695102
     36  C        -3.2091984014   -2.7790010499   -1.3889598511
     37  C        -2.7095185386   -1.7065602004   -0.3653423084
     38  O        -3.5944237062   -1.8757532234    0.7734989869
     39  H        -5.1605276754   -0.1825536477   -1.5986432864
     40  H        -2.8020093857   -0.1888919517   -1.9822500677
     41  H        -4.8322006837    3.3042104793    1.4735070689
     42  H        -5.7521797071   -1.7407380728    0.5962922821
     43  H        -5.0372919293   -3.7269478053   -0.6706838682
     44  H        -5.3751775464   -2.5397024748   -1.9806025702
     45  H        -2.8033716454   -3.7652856334   -1.1002936775
     46  H        -2.9189675771   -2.5560249694   -2.4304494610
     47  H        -1.6316738709   -1.8320690530   -0.1368461541
     48  H        -6.3762440785    3.2928220352    0.5364228975
     49  H        -4.9407105730    4.1836671477   -0.0988805229
     50  H         5.4859415410    3.4321039347   -0.6126172220
     51  H         6.6045590965    2.2651440896   -1.4187225208
     52  H         6.5154841119    2.3349957647    0.3849092071
     53  H         0.9233337391    1.9298944665   -1.9930639224
     54  H         0.7853323350    3.3921904220   -0.9466139830
     55  H         0.3195198716    0.5512404855    0.3829420181
     56  H        -0.2324814619    2.1639056917    0.8033255253
   Point Group: c1    Number of degrees of freedom:   162


   Energy is  -1510.211981274

              Constraints and their Current Values
                                        Value     Constraint
   Dihedral:        1   2   3   4     -126.321     -126.316
   Dihedral:        3   4   5   6     -145.936     -145.928
   Dihedral:        4   5   6   7     -145.803     -145.829
   Dihedral:        5   6   7   8     -166.955     -166.977
   Dihedral:        6   7   8   9     -149.422     -149.434
   Dihedral:        7   8   9  10       -2.270       -2.287
   Dihedral:        8   9  10  11       85.556       85.530
   Dihedral:        9  10  11  12       74.748       74.756
   Dihedral:       11  12  13  14      155.194      155.184
 Hessian Updated using BFGS Update

   Using Lagrange Multiplier Algorithm


164 Hessian modes will be used to form the next step
  Hessian Eigenvalues:
    -0.977753   -0.977753   -0.977753   -0.977753   -0.977753   -0.977753
    -0.977753   -0.977036   -0.975221    0.044980    0.045000    0.045000
     0.045103    0.045165    0.045541    0.045587    0.045827    0.046324
     0.048877    0.048892    0.053661    0.059472    0.060055    0.062722
     0.062813    0.066942    0.066991    0.067163    0.067591    0.068202
     0.070961    0.072141    0.073112    0.073551    0.075392    0.076185
     0.076692    0.076951    0.080073    0.082425    0.082590    0.084074
     0.084221    0.084488    0.084995    0.085590    0.085874    0.086401
     0.086907    0.087731    0.088506    0.088825    0.089085    0.089426
     0.089659    0.089870    0.093866    0.094098    0.096604    0.096653
     0.111509    0.111587    0.114592    0.114655    0.115911    0.115959
     0.116037    0.117407    0.118032    0.118165    0.118726    0.124144
     0.127877    0.130426    0.130819    0.132155    0.138740    0.140020
     0.159176    0.160000    0.160000    0.160002    0.161495    0.171424
     0.171761    0.172006    0.172457    0.212061    0.216548    0.236991
     0.238032    0.239957    0.242172    0.247107    0.248499    0.249601
     0.254406    0.258446    0.261543    0.267238    0.267665    0.279829
     0.280697    0.282738    0.288827    0.295718    0.296193    0.300575
     0.307998    0.310418    0.311752    0.315465    0.320910    0.321326
     0.322063    0.322534    0.322816    0.322921    0.323354    0.323582
     0.323632    0.323699    0.324034    0.324146    0.324282    0.324472
     0.324576    0.324780    0.324897    0.324926    0.324929    0.325064
     0.325096    0.325375    0.326713    0.326793    0.327587    0.338401
     0.352648    0.369280    0.370290    0.385621    0.395437    0.412630
     0.446204    0.468591    0.491261    0.513502    0.526240    0.532670
     0.540744    0.925964    0.941104    0.942469    0.994224    1.022753
     1.022753    1.022753    1.022753    1.022753    1.022753    1.022753
     1.027528    1.036268

 Minimum Search - Taking P-RFO Step
 Searching for Lamda that Maximizes Along the Constraint modes Only
 Value Taken    Lamda =   0.00041508
 Searching for Lamda that Minimizes Along All other modes
 Value Taken    Lamda =  -0.05113185
 Calculated Step too Large.  Step scaled by  0.614801
 Step Taken.  Stepsize is  0.300000

                             Maximum     Tolerance    Cnvgd?
         Gradient            0.037394       0.000300      NO
         Displacement        0.062404       0.001200      NO
         Energy change     -0.041777       0.000001      NO


 New Cartesian Coordinates Obtained by Inverse Iteration

 Displacement from previous Coordinates is:  2.237079
 Adding empirical dispersion correction 
 ----------------------------------------------------------------
 Doing -D3(op) with
 s6 =   1.00000
 s8 =   0.78311
 a1 =   0.30000
 a2 =   4.25000
 n  =  10.00000
 -D3 energy without 3body term =     -0.0670752301 hartrees
 ----------------------------------------------------------------
             Standard Nuclear Orientation (Angstroms)
    I     Atom           X                Y                Z
 ----------------------------------------------------------------
    1      O      -5.9063238534     0.8678966847     1.2369397757
    2      C      -5.2040164130     0.9505953846     0.2074623479
    3      C      -4.7250051136    -0.2242626128    -0.6971815558
    4      C      -3.1758886343    -0.2796923685    -0.9449220670
    5      C      -2.3575038115     0.7596039776    -0.1240009863
    6      O      -1.2432553316     1.1872364823    -0.9016198043
    7      C      -0.0796373933     1.4581677121    -0.0348510818
    8      C       0.9731845521     2.2311836763    -0.9021077352
    9      O       2.4090802432     2.0413179571    -0.5873313568
   10      C       2.6884013694     1.1908205255     0.5344449784
   11      C       2.7408129981    -0.3352675085     0.1656254459
   12      C       4.0348660449    -0.8045724798    -0.6049571368
   13      C       5.2477193570     0.1795347661    -0.5535318000
   14      O       6.4512556375    -0.1305972417    -0.6895565879
   15      O      -4.7978867937     2.1804364095    -0.3616318987
   16      O       4.8220429803     1.5239620255    -0.5655979715
   17      O       2.7986104841     1.6349347967     1.6958027856
   18      C       5.9312553775     2.4680178974    -0.5589708805
   19      C       2.7928864499    -1.3011662082     1.4199763759
   20      C       2.2212124860    -2.6987037079     0.9852609565
   21      C       3.3627207729    -3.2063052527     0.0454940675
   22      C       4.4347049060    -2.0707394724     0.2486879861
   23      O       4.2189981209    -1.5920547578     1.6224625550
   24      H       1.8621818521    -0.5859874577    -0.4543314981
   25      H       3.8351719437    -1.0449741089    -1.6663079868
   26      H       2.2840012660    -0.8948094811     2.3162496089
   27      H       2.1785988091    -3.3384034213     1.8834163289
   28      H       1.2186914390    -2.6635570193     0.5279230259
   29      H       3.7468088476    -4.1724728835     0.4121411108
   30      H       3.0730713345    -3.3061281407    -1.0136268705
   31      H       5.4694627117    -2.4125341036     0.0483925628
[...]
     15  O        -4.7570908318    2.1337585561   -0.4269471814
     16  O         4.8472222887    1.5165015225   -0.4435646648
     17  O         2.8408308438    1.7292778994    1.6237579751
     18  C         5.9952916182    2.4451518065   -0.3575848149
     19  C         2.7410183429   -1.2362894086    1.3827859406
     20  C         2.1244868804   -2.6166112932    0.9316575975
     21  C         3.2898579665   -3.1770375107    0.0324838479
     22  C         4.3973428207   -2.0662127221    0.2258886068
     23  O         4.1688867094   -1.5646653667    1.6022858473
     24  H         1.8754003936   -0.4918918109   -0.5292441238
     25  H         3.8074652468   -1.0525048768   -1.6989676131
     26  H         2.3043169279   -0.7816436478    2.2934055655
     27  H         1.9437375426   -3.2622027434    1.8061193054
     28  H         1.1782987910   -2.4954974395    0.3799049409
     29  H         3.6524411913   -4.1505538501    0.3987061058
     30  H         2.9955676207   -3.2858724582   -1.0238735452
     31  H         5.4444049303   -2.4057653180    0.1018552586
     32  O        -2.5726894973    1.0715505421    1.0361673273
     33  C        -5.0840658662    3.2965886167    0.4280486055
     34  C        -4.9794127215   -1.6744261723    0.0271062457
     35  C        -4.9546548730   -2.8076321938   -1.0704151408
     36  C        -3.4181393762   -2.8636635648   -1.4099307060
     37  C        -2.8413520684   -1.7894302631   -0.4048556825
     38  O        -3.7209373462   -1.9005737494    0.7787243120
     39  H        -5.2957100937   -0.2204668995   -1.6466395698
     40  H        -2.9338594686   -0.2356086425   -2.0336182340
     41  H        -4.5174468174    3.2618758077    1.3812368756
     42  H        -5.8463776089   -1.6812420775    0.7161139111
     43  H        -5.3082186296   -3.7617492643   -0.6481317221
     44  H        -5.5753037180   -2.5555291839   -1.9449307656
     45  H        -2.9923953094   -3.8567218688   -1.1950669224
     46  H        -3.2039606094   -2.6065313666   -2.4595056622
     47  H        -1.7815451199   -1.9358370243   -0.1183235278
     48  H        -6.1673514212    3.3424192445    0.6611351496
     49  H        -4.7883147365    4.1934657207   -0.1466344348
     50  H         5.5589714557    3.4491045754   -0.2037821283
     51  H         6.5922666714    2.4339640830   -1.2921697242
     52  H         6.6590804501    2.1900192643    0.4935739850
     53  H         0.7790256417    1.9151072939   -2.0090932607
     54  H         0.6954021840    3.3322100328   -0.9156732950
     55  H         0.3220276185    0.5051697329    0.3085336832
     56  H        -0.3997916016    2.0660191036    0.8164011568
   Point Group: c1    Number of degrees of freedom:   162


   Energy is  -1510.246821432

              Constraints and their Current Values
                                        Value     Constraint
   Dihedral:        1   2   3   4     -126.316     -126.316
   Dihedral:        3   4   5   6     -145.928     -145.928
   Dihedral:        4   5   6   7     -145.829     -145.829
   Dihedral:        5   6   7   8     -166.977     -166.977
   Dihedral:        6   7   8   9     -149.434     -149.434
   Dihedral:        7   8   9  10       -2.287       -2.287
   Dihedral:        8   9  10  11       85.530       85.530
   Dihedral:        9  10  11  12       74.756       74.756
   Dihedral:       11  12  13  14      155.184      155.184
 Hessian Updated using BFGS Update

153 Hessian modes will be used to form the next step
  Hessian Eigenvalues:
     0.003377    0.007774    0.021018    0.039936    0.045006    0.045132
     0.045209    0.045723    0.046099    0.046982    0.048561    0.049203
     0.050543    0.053830    0.059031    0.060370    0.063306    0.066473
     0.066957    0.067170    0.067304    0.069779    0.070803    0.071393
     0.072855    0.074154    0.075648    0.076176    0.077529    0.078348
     0.080201    0.082460    0.082651    0.084122    0.084439    0.084754
     0.085249    0.086015    0.086145    0.086459    0.087276    0.088214
     0.088987    0.089177    0.089506    0.089680    0.090432    0.092375
     0.093799    0.094430    0.096605    0.097014    0.111612    0.111662
     0.114661    0.114804    0.115901    0.115965    0.116421    0.117445
     0.118477    0.120058    0.121693    0.125011    0.128173    0.130328
     0.133245    0.133445    0.148971    0.156989    0.159986    0.160114
     0.160131    0.160771    0.161056    0.161801    0.171423    0.171786
     0.178753    0.194022    0.217051    0.230631    0.237131    0.238141
     0.243496    0.246246    0.248010    0.249443    0.249524    0.250230
     0.250483    0.252120    0.258466    0.261825    0.267123    0.267779
     0.270553    0.276095    0.280409    0.281174    0.291359    0.293254
     0.295660    0.298610    0.307706    0.309564    0.312154    0.314559
     0.318204    0.321512    0.322064    0.322468    0.322571    0.322870
     0.323192    0.323382    0.323652    0.323755    0.323939    0.324157
     0.324201    0.324374    0.324580    0.324805    0.324916    0.324952
     0.325014    0.325130    0.325233    0.325340    0.326086    0.326874
     0.327404    0.334184    0.342023    0.361341    0.369392    0.370070
     0.382191    0.394076    0.424649    0.457340    0.472820    0.494245
     0.506488    0.524110    0.528495    0.543236    0.591106    0.926170
     0.940935    0.944897    1.012829

 Minimum Search - Taking Simple RFO Step
 Searching for Lamda that Minimizes Along All modes
 Value Taken    Lamda =   0.00000000
 Step Taken.  Stepsize is  0.008826

                             Maximum     Tolerance    Cnvgd?
         Gradient           0.000064      0.000300     YES
         Displacement       0.005010      0.001200      NO
         Energy change     -0.000001      0.000001     YES

 Final energy is   -1510.24682143217     


 ******************************
 **  OPTIMIZATION CONVERGED  **
 ******************************

                       Coordinates (Angstroms)
     ATOM                X               Y               Z
      1  O        -5.8630947654    0.8761266634    1.2584316423
      2  C        -5.1864940551    0.9234007531    0.2102206688
      3  C        -4.7406112352   -0.2827977444   -0.6925363410
      4  C        -3.1814027260   -0.3364436953   -0.9624736229
      5  C        -2.3707368403    0.7289247420   -0.1491741938
      6  O        -1.2523446586    1.1701646428   -0.9441902687
      7  C        -0.0919140529    1.4639066310   -0.0649154532
      8  C         0.9445879373    2.2487602671   -0.9583847285
      9  O         2.3982357181    2.1101567554   -0.6782698837
     10  C         2.6819280097    1.2612984455    0.4785311244
     11  C         2.7470092827   -0.2813596410    0.1145280289
     12  C         4.0387953538   -0.7907474696   -0.6499016127
     13  C         5.2820236468    0.1729310285   -0.6373312332
     14  O         6.4788810747   -0.1608282038   -0.7716035421
     15  O        -4.7570908318    2.1337585561   -0.4269471814
     16  O         4.8472222887    1.5165015225   -0.4435646648
     17  O         2.8408308438    1.7292778994    1.6237579751
     18  C         5.9952916182    2.4451518065   -0.3575848149
     19  C         2.7410183429   -1.2362894086    1.3827859406
     20  C         2.1244868804   -2.6166112932    0.9316575975
     21  C         3.2898579665   -3.1770375107    0.0324838479
     22  C         4.3973428207   -2.0662127221    0.2258886068
     23  O         4.1688867094   -1.5646653667    1.6022858473
     24  H         1.8754003936   -0.4918918109   -0.5292441238
     25  H         3.8074652468   -1.0525048768   -1.6989676131
     26  H         2.3043169279   -0.7816436478    2.2934055655
     27  H         1.9437375426   -3.2622027434    1.8061193054
     28  H         1.1782987910   -2.4954974395    0.3799049409
     29  H         3.6524411913   -4.1505538501    0.3987061058
     30  H         2.9955676207   -3.2858724582   -1.0238735452
     31  H         5.4444049303   -2.4057653180    0.1018552586
     32  O        -2.5726894973    1.0715505421    1.0361673273
     33  C        -5.0840658662    3.2965886167    0.4280486055
     34  C        -4.9794127215   -1.6744261723    0.0271062457
     35  C        -4.9546548730   -2.8076321938   -1.0704151408
     36  C        -3.4181393762   -2.8636635648   -1.4099307060
     37  C        -2.8413520684   -1.7894302631   -0.4048556825
     38  O        -3.7209373462   -1.9005737494    0.7787243120
     39  H        -5.2957100937   -0.2204668995   -1.6466395698
     40  H        -2.9338594686   -0.2356086425   -2.0336182340
     41  H        -4.5174468174    3.2618758077    1.3812368756
     42  H        -5.8463776089   -1.6812420775    0.7161139111
     43  H        -5.3082186296   -3.7617492643   -0.6481317221
     44  H        -5.5753037180   -2.5555291839   -1.9449307656
     45  H        -2.9923953094   -3.8567218688   -1.1950669224
     46  H        -3.2039606094   -2.6065313666   -2.4595056622
     47  H        -1.7815451199   -1.9358370243   -0.1183235278
     48  H        -6.1673514212    3.3424192445    0.6611351496
     49  H        -4.7883147365    4.1934657207   -0.1466344348
     50  H         5.5589714557    3.4491045754   -0.2037821283
     51  H         6.5922666714    2.4339640830   -1.2921697242
     52  H         6.6590804501    2.1900192643    0.4935739850
     53  H         0.7790256417    1.9151072939   -2.0090932607
     54  H         0.6954021840    3.3322100328   -0.9156732950
     55  H         0.3220276185    0.5051697329    0.3085336832
     56  H        -0.3997916016    2.0660191036    0.8164011568

Z-matrix Print:
$molecule
0 1
O 
C  1 1.441369
O  2 1.250285 1 124.357952
C  1 1.485264 2 109.891482 3 28.644985 0
H  4 1.109048 1 108.662205 2 72.383011 0
H  4 1.110877 1 111.120097 2 -46.002619 0
C  2 1.566412 1 108.867979 3 -174.474019 0
H  7 1.103991 2 109.001877 1 -19.688310 0
C  4 1.577536 1 106.048193 2 -166.977043 0
H  9 1.112556 4 108.396969 1 87.051113 0
H  9 1.114775 4 106.698295 1 -28.015908 0
O  9 1.486865 4 119.293402 1 -149.434026 0
C  12 1.462611 9 113.124727 4 -2.286984 0
O  13 1.247317 12 122.217958 9 -93.918186 0
C  7 1.583311 2 113.458696 1 -145.927951 0
H  15 1.105592 7 110.439700 2 128.112603 0
C  15 1.571209 7 113.792826 2 6.379715 0
O  17 1.248507 15 127.380687 7 -126.315947 0
O  17 1.433644 15 107.924674 7 57.615663 0
C  19 1.479900 17 109.902702 15 -176.630415 0
H  20 1.105494 19 106.142586 17 -176.437715 0
H  20 1.109025 19 111.697854 17 -56.912243 0
H  20 1.109428 19 111.035625 17 64.524193 0
C  15 1.584784 7 101.306403 2 -113.688342 0
H  24 1.107432 15 113.947029 7 152.820771 0
O  24 1.483183 15 103.659605 7 32.832455 0
C  26 1.478812 24 95.027232 15 -56.109239 0
H  27 1.107577 26 110.618838 24 -179.426936 0
C  24 1.577759 15 108.207284 7 -76.361479 0
H  29 1.101607 24 112.272481 15 -47.403801 0
H  29 1.101667 24 110.509666 15 -169.028217 0
C  29 1.574576 24 101.003160 15 72.954002 0
H  32 1.101630 29 111.539833 24 119.366854 0
H  32 1.101634 29 112.758498 24 -117.954033 0
C  13 1.586357 12 113.008018 9 85.530053 0
H  35 1.103843 13 106.672509 12 -45.696352 0
C  35 1.585099 13 117.167962 12 74.755960 0
H  37 1.105699 35 111.292793 13 -109.267224 0
C  37 1.573039 35 116.318610 13 15.727445 0
O  39 1.249757 37 126.328737 35 155.183954 0
O  39 1.425405 37 109.721920 35 -24.682477 0
C  41 1.479137 39 111.280085 37 177.126309 0
H  42 1.105419 41 105.778979 39 -179.715762 0
H  42 1.109033 41 111.252859 39 61.091532 0
H  42 1.109135 41 111.389726 39 -60.486450 0
C  35 1.587578 13 113.670158 12 -167.577138 0
H  46 1.107537 35 114.292685 13 22.862670 0
O  46 1.481492 35 104.362009 13 -97.871237 0
C  48 1.482637 46 94.930443 35 -54.531272 0
H  49 1.107709 48 110.689046 46 -179.587753 0
C  46 1.577630 35 107.416208 13 153.233891 0
H  51 1.101881 46 110.474684 35 -170.778105 0
H  51 1.101985 46 112.492338 35 -49.086888 0
C  51 1.575018 46 100.685449 35 71.317996 0
H  54 1.101508 51 111.606162 46 121.788891 0
H  54 1.101972 51 112.631916 46 -115.715299 0
$end

 
 --------------------------------------------------------------
 
                    Orbital Energies (a.u.)
 --------------------------------------------------------------
 
 Alpha MOs
 -- Occupied --
-18.948 -18.931 -18.930 -18.896 -18.893 -18.892 -18.889 -18.886
-18.880 -18.874 -10.110 -10.106 -10.106 -10.098 -10.077 -10.070
-10.069 -10.068 -10.062 -10.061 -10.061 -10.061 -10.044 -10.042
-10.039 -10.037 -10.026 -10.024 -10.023 -10.023  -1.020  -1.016
 -1.007  -0.999  -0.975  -0.973  -0.944  -0.943  -0.934  -0.929
 -0.767  -0.766  -0.729  -0.726  -0.714  -0.707  -0.701  -0.667
 -0.660  -0.619  -0.603  -0.586  -0.550  -0.547  -0.542  -0.540
 -0.516  -0.512  -0.486  -0.478  -0.466  -0.463  -0.456  -0.447
 -0.438  -0.435  -0.430  -0.417  -0.413  -0.413  -0.410  -0.400
 -0.395  -0.382  -0.377  -0.376  -0.367  -0.360  -0.358  -0.354
 -0.349  -0.344  -0.337  -0.334  -0.332  -0.330  -0.324  -0.317
 -0.315  -0.311  -0.308  -0.306  -0.300  -0.294  -0.287  -0.276
 -0.275  -0.256  -0.253  -0.251  -0.238  -0.238  -0.233  -0.183
 -0.180  -0.174  -0.164  -0.161  -0.153  -0.151  -0.150  -0.148
 -0.144
 -- Virtual --
  0.078   0.083   0.098   0.108   0.204   0.230   0.238   0.252
  0.260   0.268   0.279   0.281   0.298   0.309   0.319   0.324
  0.329   0.333   0.337   0.341   0.346   0.355   0.359   0.365
  0.373   0.375   0.382   0.389   0.397   0.403   0.405   0.408
  0.413   0.416   0.419   0.421   0.426   0.427   0.428   0.430
  0.434   0.434   0.436   0.436   0.442   0.445   0.450   0.460
  0.463   0.465   0.477   0.483   0.489   0.503   0.506   0.536
  0.540   0.548   0.553   0.624   0.636   0.641   0.647
 --------------------------------------------------------------
 
          Ground-State Mulliken Net Atomic Charges

     Atom                 Charge (a.u.)
  ----------------------------------------
      1 O                    -0.209278
      2 C                     0.215090
      3 C                    -0.079678
      4 C                    -0.078253
      5 C                     0.213909
      6 O                    -0.179087
      7 C                    -0.056490
      8 C                    -0.051920
      9 O                    -0.193769
     10 C                     0.229773
     11 C                    -0.085543
     12 C                    -0.076846
     13 C                     0.214545
     14 O                    -0.211250
     15 O                    -0.174944
     16 O                    -0.161966
     17 O                    -0.186167
     18 C                    -0.124070
     19 C                     0.021396
     20 C                    -0.142682
     21 C                    -0.144997
     22 C                     0.024111
     23 O                    -0.189408
     24 H                     0.075981
     25 H                     0.085865
     26 H                     0.088651
     27 H                     0.079948
     28 H                     0.069097
     29 H                     0.079586
     30 H                     0.072831
     31 H                     0.090219
     32 O                    -0.204551
     33 C                    -0.128791
     34 C                     0.024522
     35 C                    -0.143527
     36 C                    -0.143947
     37 C                     0.025449
     38 O                    -0.186764
     39 H                     0.084536
     40 H                     0.086510
     41 H                     0.092813
     42 H                     0.092252
     43 H                     0.079044
     44 H                     0.073955
     45 H                     0.078298
     46 H                     0.074014
     47 H                     0.077783
     48 H                     0.089335
     49 H                     0.088952
     50 H                     0.098424
     51 H                     0.091795
     52 H                     0.093592
     53 H                     0.082833
     54 H                     0.083953
     55 H                     0.078384
     56 H                     0.096478
  ----------------------------------------
  Sum of atomic charges =    -0.000000

 -----------------------------------------------------------------
                    Cartesian Multipole Moments
 -----------------------------------------------------------------
    Charge (ESU x 10^10)
                -0.0000
    Dipole Moment (Debye)
         X      -1.1197      Y      -0.9122      Z      -3.9417
       Tot       4.1980
    Quadrupole Moments (Debye-Ang)
        XX    -170.7607     XY       2.0636     YY    -150.4708
        XZ       5.9945     YZ       2.6214     ZZ    -166.6201
    Octopole Moments (Debye-Ang^2)
       XXX     -57.0388    XXY      50.4732    XYY      -5.3616
       YYY      44.3106    XXZ     -62.4451    XYZ     -11.8059
       YYZ       4.5103    XZZ       3.4116    YZZ       3.3651
       ZZZ       9.5516
    Hexadecapole Moments (Debye-Ang^3)
      XXXX  -15803.7205   XXXY     292.9840   XXYY   -2854.4977
      XYYY    -141.7149   YYYY   -3451.1718   XXXZ     133.5718
      XXYZ      25.0520   XYYZ     -76.4126   YYYZ     -26.4482
      XXZZ   -2824.9010   XYZZ      -2.0964   YYZZ    -770.2909
      XZZZ    -149.9089   YZZZ     -26.7146   ZZZZ    -865.9823
 -----------------------------------------------------------------
Archival summary:
1\1\vega02.cac.cornell.edu\OPT\ProcedureUnspecified\STO-3G\102026\jj585\SatJan1309:13:012018SatJan1309:13:012018\0\\#,OPT,ProcedureUnspecified,STO-3G,\\0,1\O\C,1,1.44137\O,2,1.25028,1,124.358\C,1,1.48526,2,109.891,3,28.645,0\H,4,1.10905,1,108.662,2,72.383,0\H,4,1.11088,1,111.12,2,-46.0026,0\C,2,1.56641,1,108.868,3,-174.474,0\H,7,1.10399,2,109.002,1,-19.6883,0\C,4,1.57754,1,106.048,2,-166.977,0\H,9,1.11256,4,108.397,1,87.0511,0\H,9,1.11478,4,106.698,1,-28.0159,0\O,9,1.48686,4,119.293,1,-149.434,0\C,12,1.46261,9,113.125,4,-2.28698,0\O,13,1.24732,12,122.218,9,-93.9182,0\C,7,1.58331,2,113.459,1,-145.928,0\H,15,1.10559,7,110.44,2,128.113,0\C,15,1.57121,7,113.793,2,6.37972,0\O,17,1.24851,15,127.381,7,-126.316,0\O,17,1.43364,15,107.925,7,57.6157,0\C,19,1.4799,17,109.903,15,-176.63,0\H,20,1.10549,19,106.143,17,-176.438,0\H,20,1.10903,19,111.698,17,-56.9122,0\H,20,1.10943,19,111.036,17,64.5242,0\C,15,1.58478,7,101.306,2,-113.688,0\H,24,1.10743,15,113.947,7,152.821,0\O,24,1.48318,15,103.66,7,32.8325,0\C,26,1.47881,24,95.0272,15,-56.1092,0\H,27,1.10758,26,110.619,24,-179.427,0\C,24,1.57776,15,108.207,7,-76.3615,0\H,29,1.10161,24,112.272,15,-47.4038,0\H,29,1.10167,24,110.51,15,-169.028,0\C,29,1.57458,24,101.003,15,72.954,0\H,32,1.10163,29,111.54,24,119.367,0\H,32,1.10163,29,112.758,24,-117.954,0\C,13,1.58636,12,113.008,9,85.5301,0\H,35,1.10384,13,106.673,12,-45.6964,0\C,35,1.5851,13,117.168,12,74.756,0\H,37,1.1057,35,111.293,13,-109.267,0\C,37,1.57304,35,116.319,13,15.7274,0\O,39,1.24976,37,126.329,35,155.184,0\O,39,1.4254,37,109.722,35,-24.6825,0\C,41,1.47914,39,111.28,37,177.126,0\H,42,1.10542,41,105.779,39,-179.716,0\H,42,1.10903,41,111.253,39,61.0915,0\H,42,1.10913,41,111.39,39,-60.4865,0\C,35,1.58758,13,113.67,12,-167.577,0\H,46,1.10754,35,114.293,13,22.8627,0\O,46,1.48149,35,104.362,13,-97.8712,0\C,48,1.48264,46,94.9304,35,-54.5313,0\H,49,1.10771,48,110.689,46,-179.588,0\C,46,1.57763,35,107.416,13,153.234,0\H,51,1.10188,46,110.475,35,-170.778,0\H,51,1.10199,46,112.492,35,-49.0869,0\C,51,1.57502,46,100.685,35,71.318,0\H,54,1.10151,51,111.606,46,121.789,0\H,54,1.10197,51,112.632,46,-115.715,0\\\@

 Total job time:  46.90s(wall), 2226.28s(cpu) 
 Sat Jan 13 09:13:01 2018

        *************************************************************
        *                                                           *
        *  Thank you very much for using Q-Chem.  Have a nice day.  *
        *                                                           *
        *************************************************************


0 sent ACK to 0 
now end server 0 ... 
