mFile = /opt/software/qchem/qchem-5.0.1//bin/mpi/machines
Process 0 of 1 is on vega02.cac.cornell.edu - thread support 0
initial socket setup ...start
initial socket setup ...done 
now start server 0 ... 
vega02.cac.cornell.edu 10.84.3
Q-Chem Developer Version! Running on 10.84.3.*
                  Welcome to Q-Chem
     A Quantum Leap Into The Future Of Chemistry


 Q-Chem 5.0, Q-Chem, Inc., Pleasanton, CA (2017)

 Yihan Shao,  Zhengting Gan,  E. Epifanovsky,  A. T. B. Gilbert,  M. Wormit,  
 J. Kussmann,  A. W. Lange,  A. Behn,  Jia Deng,  Xintian Feng,  D. Ghosh,  
 M. Goldey,  P. R. Horn,  L. D. Jacobson,  I. Kaliman,  T. Kus,  A. Landau,  
 Jie Liu,  E. I. Proynov,  R. M. Richard,  R. P. Steele,  E. J. Sundstrom,  
 H. L. Woodcock III,  P. M. Zimmerman,  D. Zuev,  B. Albrecht,  E. Alguire,  
 S. A. Baeppler,  Z. Benda,  Y. A. Bernard,  E. J. Berquist,  K. B. Bravaya,  
 D. Casanova,  Chun-Min Chang,  Yunqing Chen,  A. Chien,  K. D. Closser,  
 M. P. Coons,  S. Dasgupta,  M. Diedenhofen,  Hainam Do,  R. G. Edgar,  
 Po-Tung Fang,  S. Fatehi,  Qingguo Feng,  Qinghui Ge,  A. Ghysels,  
 J. Gomes,  J. Gonthier,  A. Gunina,  M. W. D. Hanson-Heine,  
 P. H. P. Harbach,  A. W. Hauser,  J. E. Herr,  E. G. Hohenstein,  
 Z. C. Holden,  Kerwin Hui,  T.-C. Jagau,  Hyunjun Ji,  B. Kaduk,  
 K. Khistyaev,  Jaehoon Kim,  P. Klunzinger,  K. Koh,  D. Kosenkov,  
 T. Kowalczyk,  C. M. Krauter,  A. Kunitsa,  Ka Un Lao,  A. Laurent,  
 K. V. Lawler,  Joonho Lee,  D. Lefrancois,  S. Lehtola,  D. S. Levine,  
 Yi-Pei Li,  You-Sheng Lin,  Fenglai Liu,  E. Livshits,  A. Luenser,  
 P. Manohar,  E. Mansoor,  S. F. Manzer,  Shan-Ping Mao,  Yuezhi Mao,  
 N. Mardirossian,  A. V. Marenich,  L. A. Martinez-Martinez,  S. A. Maurer,  
 N. J. Mayhall,  S. C. McKenzie,  J.-M. Mewes,  A. F. Morrison,  K. Nanda,  
 T. S. Nguyen-Beck,  R. Olivares-Amaya,  J. A. Parkhill,  T. M. Perrine,  
 F. Plasser,  S. Prager,  A. Prociuk,  D. R. Rehn,  F. Rob,  M. Schneider,  
 N. Sergueev,  S. M. Sharada,  S. Sharma,  D. W. Small,  T. Stauch,  
 T. Stein,  Yu-Chuan Su,  A. J. W. Thom,  T. Tsuchimochi,  L. Vogt,  
 O. Vydrov,  M. A. Watson,  J. Wenzel,  M. de Wergifosse,  T. A. Wesolowski,  
 A. White,  J. Witte,  A. Yamada,  Jun Yang,  K. Yao,  S. Yeganeh,  
 S. R. Yost,  Zhi-Qiang You,  A. Zech,  Igor Ying Zhang,  Xing Zhang,  
 Yan Zhao,  Ying Zhu,  B. R. Brooks,  G. K. L. Chan,  C. J. Cramer,  
 M. S. Gordon,  W. J. Hehre,  A. Klamt,  M. W. Schmidt,  C. D. Sherrill,  
 D. G. Truhlar,  A. Aspuru-Guzik,  R. Baer,  A. T. Bell,  N. A. Besley,  
 Jeng-Da Chai,  A. Dreuw,  B. D. Dunietz,  T. R. Furlani,  Chao-Ping Hsu,  
 Yousung Jung,  Jing Kong,  D. S. Lambrecht,  WanZhen Liang,  C. Ochsenfeld,  
 V. A. Rassolov,  L. V. Slipchenko,  J. E. Subotnik,  T. Van Voorhis,  
 J. M. Herbert,  A. I. Krylov,  P. M. W. Gill,  M. Head-Gordon

 Contributors to earlier versions of Q-Chem not listed above: 
 R. D. Adamson,  B. Austin,  J. Baker,  G. J. O. Beran,  K. Brandhorst,  
 S. T. Brown,  E. F. C. Byrd,  A. K. Chakraborty,  C.-L. Cheng,  
 Siu Hung Chien,  D. M. Chipman,  D. L. Crittenden,  H. Dachsel,  
 R. A. DiStasio Jr.,  R. J. Doerksen,  A. D. Dutoi,  L. Fusti-Molnar,  
 W. A. Goddard III,  A. Golubeva-Zadorozhnaya,  S. R. Gwaltney,  G. Hawkins,  
 A. Heyden,  S. Hirata,  G. Kedziora,  F. J. Keil,  C. Kelley,  Jihan Kim,  
 R. A. King,  R. Z. Khaliullin,  P. P. Korambath,  W. Kurlancheek,  
 A. M. Lee,  M. S. Lee,  S. V. Levchenko,  Ching Yeh Lin,  D. Liotard,  
 R. C. Lochan,  I. Lotan,  P. E. Maslen,  N. Nair,  D. P. O'Neill,  
 D. Neuhauser,  E. Neuscamman,  C. M. Oana,  R. Olson,  B. Peters,  
 R. Peverati,  P. A. Pieniazek,  Y. M. Rhee,  J. Ritchie,  M. A. Rohrdanz,  
 E. Rosta,  N. J. Russ,  H. F. Schaefer III,  N. E. Schultz,  N. Shenvi,  
 A. C. Simmonett,  A. Sodt,  D. Stuck,  K. S. Thanthiriwatte,  V. Vanovschi,  
 Tao Wang,  A. Warshel,  C. F. Williams,  Q. Wu,  X. Xu,  W. Zhang

 Please cite Q-Chem as follows:
 Y. Shao et al., Mol. Phys. 113, 184-215 (2015)
 DOI: 10.1080/00268976.2014.952696

 Q-Chem 5.0.1 for Intel X86 EM64T Linux

 Parts of Q-Chem use Armadillo 5.200.1 (Boston Tea Smuggler).
 http://arma.sourceforge.net/

 Q-Chem begins on Sat Jan 13 09:16:00 2018  

Host: vega02.cac.cornell.edu
0

     Scratch files written to /scratch/jj585/SOT1001/0032c.save//
 Parallel job on  1  processors

Checking the input file for inconsistencies... 	...done.

--------------------------------------------------------------
User input:
--------------------------------------------------------------
$molecule
0  1
O -3.94934 -3.66094 2.70899
C -3.26408 -4.56952 2.26188
C -3.36658 -6.02376 2.66595
C -2.10273 -6.88599 2.51398
C -0.82993 -6.15756 2.14324
O -0.9403 -5.64254 0.88308
C 0.30644 -5.18096 0.35219
C 0.07864 -4.45726 -0.97087
O 1.23252 -4.60326 -1.81356
C 1.07936 -5.43611 -2.87284
C 0.02743 -4.96168 -3.84701
C 0.12562 -5.57091 -5.25323
C 1.00494 -6.79853 -5.38158
O 1.0616 -7.53078 -6.3589
O -2.90855 -4.36925 0.96601
O 2.23351 -6.67794 -4.79908
O 1.19211 -6.63147 -2.63306
C 3.29408 -7.55313 -4.94576
C -1.51869 -5.34162 -3.65803
C -2.38523 -4.30448 -4.38303
C -2.14617 -4.68453 -5.82099
C -1.30242 -5.942 -5.61969
O -1.74834 -6.49652 -4.42332
H 0.10044 -3.85078 -3.88862
H 0.56447 -4.83982 -5.96877
H -2.01003 -5.43275 -2.68506
H -3.4505 -4.53713 -4.14745
H -2.19076 -3.24185 -4.1229
H -3.12329 -4.93059 -6.29348
H -1.60846 -3.92547 -6.42995
H -1.36127 -6.59984 -6.51468
O 0.17435 -6.08817 2.84406
C -3.00388 -3.17149 0.28186
C -3.61631 -6.18039 4.18237
C -4.26936 -7.53215 4.46648
C -3.10281 -8.4643 4.22321
C -1.99023 -7.4481 3.94465
O -2.33425 -6.33937 4.73723
H -4.237 -6.44188 2.11196
H -2.23487 -7.69887 1.76543
H -2.36739 -2.40242 0.76895
H -4.23758 -5.36723 4.61726
H -4.5196 -7.55569 5.55153
H -5.18441 -7.74955 3.8747
H -2.89418 -9.01886 5.16523
H -3.23232 -9.1795 3.38223
H -0.99884 -7.90904 4.1486
H -4.05944 -2.82633 0.25336
H -2.66176 -3.31842 -0.76227
H 4.14747 -7.19414 -4.33486
H 3.61416 -7.60038 -6.00856
H 3.00245 -8.56565 -4.59365
H -0.74416 -5.01736 -1.328
H -0.23484 -3.40002 -0.84931
H 0.92671 -6.08725 0.16463
H 0.86083 -4.49873 1.03557
$end

$opt
CONSTRAINT
tors           1           2           3           4    -153.487
tors           3           4           5           6     -66.316
tors           4           5           6           7    -167.860
tors           5           6           7           8    -172.573
tors           6           7           8           9    -150.358
tors           7           8           9          10    +107.592
tors           8           9          10          11     +62.761
tors           9          10          11          12    +160.537
tors          11          12          13          14    +169.028
ENDCONSTRAINT
$end

$rem
JOBTYPE                   OPT
METHOD                    B3LYP
DFT_D                     d3_op
BASIS                     STO-3G
GEOM_OPT_MAX_CYCLES       100
GEOM_OPT_TOL_GRADIENT     300
GEOM_OPT_TOL_DISPLACEMENT 1200
GEOM_OPT_TOL_ENERGY       100
SYMMETRY                  False
THRESH                    12
SCF_CONVERGENCE           8
MAX_SUB_FILE_NUM          128
MEM_STATIC                400
MEM_TOTAL                 4000
$end
--------------------------------------------------------------
 Adding empirical dispersion correction 
 ----------------------------------------------------------------
 Doing -D3(op) with
 s6 =   1.00000
 s8 =   0.78311
 a1 =   0.30000
 a2 =   4.25000
 n  =  10.00000
 -D3 energy without 3body term =     -0.0688965343 hartrees
 ----------------------------------------------------------------
             Standard Nuclear Orientation (Angstroms)
    I     Atom           X                Y                Z
 ----------------------------------------------------------------
    1      O       4.2893996182    -2.3852978730     1.0197895665
    2      C       3.6340378378    -1.4695387022     0.5434574198
    3      C       4.0672805696    -0.5898200187    -0.6084924774
    4      C       3.4729157872     0.8266609736    -0.6730244860
    5      C       2.6501476737     1.2676685611     0.5172037239
    6      O       1.5120034065     0.5170111881     0.5982685026
    7      C       0.5535502279     1.0452663722     1.5210766523
    8      C      -0.6027368865     0.0662157759     1.6959547028
    9      O      -1.8086655962     0.7830515398     2.0037922008
   10      C      -2.7259067770     0.8366848941     1.0063137268
   11      C      -3.2512910341    -0.5243930977     0.6163319048
   12      C      -4.5866134781    -0.5099232649    -0.1419304191
   13      C      -5.0126086567     0.8313105991    -0.7043787093
   14      O      -5.9321828371     1.0108122054    -1.4896922139
   15      O       2.2956332430    -1.6938679486     0.6077865791
   16      O      -4.9244850274     1.8687882822     0.1782915157
   17      O      -2.5281191936     1.6828903839     0.1438122014
   18      C      -5.4389914566     3.1393618983    -0.0039366486
   19      C      -2.5017565603    -1.4281435803    -0.4754501414
   20      C      -2.8713182981    -2.8997271919    -0.2517500135
   21      C      -4.2910885581    -2.9194794269    -0.7549188774
   22      C      -4.3970821187    -1.4915341726    -1.2872761534
   23      O      -3.1131179007    -1.1607671122    -1.7111479412
   24      H      -3.3319851085    -1.1221935460     1.5529661731
   25      H      -5.4233045423    -0.8071125078     0.5294160035
   26      H      -1.4151282741    -1.4649417475    -0.5949288248
   27      H      -2.2573119760    -3.5083447420    -0.9567358616
   28      H      -2.7154634707    -3.2886744480     0.7773748668
   29      H      -4.3676911453    -3.6606431346    -1.5815773439
   30      H      -5.0654208052    -3.1262343428     0.0156642688
   31      H      -5.1986372782    -1.4189020022    -2.0550376933
   32      O       2.9314749862     2.1984181978     1.2649349723
   33      C       1.6782257200    -2.6583879124     1.3825686380
   34      C       5.5712484692    -0.2454174113    -0.5317132664
   35      C       6.0940359334     0.1203708436    -1.9200000207
   36      C       5.4515183179     1.4762989918    -2.1137854398
   37      C       4.7694611838     1.6560858054    -0.7534299210
   38      O       5.6178127686     0.9861099986     0.1450393532
   39      H       3.8780028273    -1.1742185266    -1.5369387877
   40      H       2.8365918122     0.9758362689    -1.5738022092
   41      H       1.8865474787    -2.4744740046     2.4580325251
   42      H       6.1930150724    -1.0609042934    -0.1019198893
   43      H       7.1952831646     0.2611625643    -1.8308937990
   44      H       5.8832969082    -0.6249808861    -2.7167576332
   45      H       6.2582532873     2.2314540732    -2.2456355187
   46      H       4.7269522129     1.5440108049    -2.9539939319
   47      H       4.6007674295     2.7375487152    -0.5562097140
   48      H       2.0352348074    -3.6705186156     1.0957053597
   49      H       0.5835597350    -2.6187572000     1.2123400732
   50      H      -5.1897282508     3.7615878754     0.8798335759
   51      H      -6.5442707403     3.0991840539    -0.1086794512
   52      H      -4.9905281000     3.6047237544    -0.9075655659
   53      H      -0.6245490878    -0.3422479415     0.7207955843
   54      H      -0.3888373090    -0.7473786337     2.4192209532
   55      H       0.1633920399     1.9862204869     1.0697927806
   56      H       0.9757641955     1.2742474613     2.5256150019
 ----------------------------------------------------------------
 Molecular Point Group                 C1    NOp =  1
 Largest Abelian Subgroup              C1    NOp =  1
 Nuclear Repulsion Energy =  3175.1505975138 hartrees
 There are      113 alpha and      113 beta electrons
 Requested basis set is STO-3G
 There are 86 shells and 176 basis functions

 Total QAlloc Memory Limit   4000 MB
 Mega-Array Size       392 MB
 MEM_STATIC part       400 MB
 A cutoff of  1.0D-12 yielded   2177 shell pairs
 There are     10139 function pairs
 
 -------------------------------------------------------
 OpenMP Integral Computing Module                       
 Release: version 1.0, May 2013, Q-Chem Inc. Pittsburgh 
 -------------------------------------------------------
 Integral Job Info:
 Integral job number is                      11
 Integral operator is                         1
 short-range coefficients                     0
 long-range coefficients              100000000
 Omega coefficients                           0
 if combine SR and LR in K                    0
 Integral screening is                        0
 Integral computing path is                   2
 max size of driver memory is            800000
 size of driver memory is                 45569
 size of scratch memory is              1046100
 max col of scratch BK array                289
 max len of scratch array in speh3           22
 max len of scratch index in speh4            8
 max int batch size is                      520
 min int batch size is                       52
 fixed nKL is                                52
 max L of basis functions is                  1
 order of int derivative is                   0
 number of shells is                         86
 number of basis is                         176
 number of cartesian basis is               176
 number of contracted shell pairs          2177
 number of primitive shell pairs          11294
 maxK2 (contraction) of shell pair            9
 max number of K2 of shell pair               1
 max number of CS2 of shell pair            310
 max number of PS2 of shell pair           1260
 mem total for path MDJ                   53962
 -------------------------------------------------------
 Smallest overlap matrix eigenvalue = 1.93E-01

 Scale SEOQF with 1.000000e-02/1.000000e-01/1.000000e-01

 Standard Electronic Orientation quadrupole field applied
 Nucleus-field energy     =     0.0000000263 hartrees
 Guess from superposition of atomic densities
 Warning:  Energy on first SCF cycle will be non-variational
 A restricted hybrid HF-DFT SCF calculation will be
 performed using Pulay DIIS extrapolation
 Exchange:     0.2000 Hartree-Fock + 0.0800 Slater + 0.7200 B88
 Correlation:  0.1900 VWN1RPA + 0.8100 LYP
 Using SG-1 standard quadrature grid
 Dispersion:   Grimme D3
 SCF converges when DIIS error is below 1.0E-08
 using 48 threads for integral computing
 -------------------------------------------------------
 OpenMP Integral computing Module                
 Release: version 1.0, May 2013, Q-Chem Inc. Pittsburgh 
 -------------------------------------------------------
 -------------------------------------------------------
 OpenMP BLAS3 based DFT computing Module                
 Release: version 1.0, May 2013, Q-Chem Inc. Pittsburgh 
 -------------------------------------------------------
 ---------------------------------------
  Cycle       Energy         DIIS Error
 ---------------------------------------
    1   -1509.5074958959      8.31E-02
    2   -1509.4737267000      1.06E-02
    3   -1507.3630746269      2.57E-02
    4   -1509.9669281409      3.95E-03
    5   -1510.0256157873      1.55E-03
    6   -1510.0330610498      8.46E-04
    7   -1510.0361306582      1.49E-04
    8   -1510.0362209181      3.86E-05
    9   -1510.0362261848      1.79E-05
   10   -1510.0362274852      5.17E-06
   11   -1510.0362276034      1.11E-06
   12   -1510.0362276092      2.29E-07
   13   -1510.0362276095      9.21E-08
   14   -1510.0362276095      5.04E-08
   15   -1510.0362276095      1.87E-08
   16   -1510.0362276095      4.65E-09 Convergence criterion met
 ---------------------------------------
 SCF time:  CPU 119.72 s  wall 2.58 s
 SCF   energy in the final basis set = -1510.03622761
 Total energy in the final basis set = -1510.03622761
 
 --------------------------------------------------------------
 
                    Orbital Energies (a.u.)
 --------------------------------------------------------------
 
 Alpha MOs
 -- Occupied --
-18.945 -18.925 -18.914 -18.914 -18.903 -18.900 -18.897 -18.868
-18.856 -18.852 -10.128 -10.111 -10.109 -10.108 -10.085 -10.085
-10.081 -10.077 -10.076 -10.075 -10.066 -10.064 -10.050 -10.046
-10.045 -10.037 -10.027 -10.024 -10.015 -10.014  -1.052  -1.050
 -1.042  -1.040  -1.037  -1.023  -0.957  -0.951  -0.941  -0.934
 -0.791  -0.785  -0.754  -0.747  -0.734  -0.728  -0.720  -0.684
 -0.676  -0.631  -0.617  -0.596  -0.564  -0.555  -0.549  -0.541
 -0.535  -0.521  -0.506  -0.491  -0.488  -0.477  -0.471  -0.466
 -0.463  -0.456  -0.442  -0.431  -0.426  -0.425  -0.423  -0.419
 -0.410  -0.403  -0.395  -0.391  -0.382  -0.375  -0.366  -0.364
 -0.357  -0.353  -0.346  -0.342  -0.334  -0.331  -0.329  -0.322
 -0.317  -0.311  -0.310  -0.304  -0.302  -0.296  -0.293  -0.282
 -0.275  -0.253  -0.249  -0.235  -0.231  -0.218  -0.218  -0.186
 -0.171  -0.169  -0.165  -0.162  -0.155  -0.151  -0.145  -0.134
 -0.131
 -- Virtual --
  0.044   0.097   0.100   0.114   0.231   0.241   0.256   0.291
  0.295   0.310   0.315   0.324   0.333   0.338   0.341   0.346
  0.354   0.357   0.373   0.379   0.387   0.389   0.393   0.395
  0.398   0.401   0.405   0.409   0.412   0.413   0.418   0.422
  0.429   0.431   0.434   0.441   0.444   0.448   0.449   0.460
  0.461   0.464   0.470   0.479   0.481   0.488   0.490   0.495
  0.499   0.503   0.521   0.525   0.539   0.545   0.551   0.565
  0.569   0.582   0.587   0.653   0.672   0.684   0.696
 --------------------------------------------------------------
 
          Ground-State Mulliken Net Atomic Charges

     Atom                 Charge (a.u.)
  ----------------------------------------
      1 O                    -0.234784
      2 C                     0.231639
      3 C                    -0.078252
      4 C                    -0.082551
      5 C                     0.230534
      6 O                    -0.182582
      7 C                    -0.036209
      8 C                    -0.046959
      9 O                    -0.232487
     10 C                     0.256791
     11 C                    -0.089910
     12 C                    -0.077167
     13 C                     0.237723
     14 O                    -0.235401
     15 O                    -0.208449
     16 O                    -0.215367
     17 O                    -0.179143
     18 C                    -0.096763
     19 C                     0.033800
     20 C                    -0.141580
     21 C                    -0.144232
     22 C                     0.039992
     23 O                    -0.207249
     24 H                     0.080955
     25 H                     0.091059
     26 H                     0.086719
     27 H                     0.076515
     28 H                     0.072665
     29 H                     0.076995
     30 H                     0.073730
     31 H                     0.095068
     32 O                    -0.223659
     33 C                    -0.097796
     34 C                     0.038943
     35 C                    -0.142654
     36 C                    -0.144401
     37 C                     0.040405
     38 O                    -0.210514
     39 H                     0.092188
     40 H                     0.085140
     41 H                     0.085187
     42 H                     0.091664
     43 H                     0.075981
     44 H                     0.071429
     45 H                     0.075839
     46 H                     0.070976
     47 H                     0.089780
     48 H                     0.086723
     49 H                     0.086638
     50 H                     0.092567
     51 H                     0.084302
     52 H                     0.088835
     53 H                     0.099032
     54 H                     0.085182
     55 H                     0.093225
     56 H                     0.089885
  ----------------------------------------
  Sum of atomic charges =    -0.000000

 -----------------------------------------------------------------
                    Cartesian Multipole Moments
 -----------------------------------------------------------------
    Charge (ESU x 10^10)
                 0.0000
    Dipole Moment (Debye)
         X      -1.5957      Y      -2.6886      Z      -0.4595
       Tot       3.1601
    Quadrupole Moments (Debye-Ang)
        XX    -171.0904     XY       5.1242     YY    -157.5505
        XZ     -20.6593     YZ      -3.1261     ZZ    -163.1448
    Octopole Moments (Debye-Ang^2)
       XXX     -43.0355    XXY      -2.5699    XYY     -55.6848
       YYY      24.0136    XXZ     -12.3146    XYZ     -11.8473
       YYZ      -8.9353    XZZ      18.6086    YZZ      -4.8943
       ZZZ      18.5955
    Hexadecapole Moments (Debye-Ang^3)
      XXXX  -15625.6266   XXXY     -25.7855   XXYY   -2954.0969
      XYYY    -148.3400   YYYY   -2766.5929   XXXZ    -527.9756
      XXYZ      49.2688   XYYZ     -28.7503   YYYZ      11.2488
      XXZZ   -2871.9914   XYZZ     -15.2840   YYZZ    -698.0817
      XZZZ      82.7447   YZZZ      -1.1964   ZZZZ   -1377.6055
 -----------------------------------------------------------------
 Calculating analytic gradient of the SCF energy
 Gradient of SCF Energy
            1           2           3           4           5           6
    1  -0.0802133   0.0068683   0.0115953   0.0208692  -0.0156310   0.0260607
    2   0.0370139   0.0475810   0.0034291  -0.0015215  -0.0070107   0.0398433
    3  -0.0435710   0.0046336   0.0221457   0.0432163   0.0016264   0.0195634
            7           8           9          10          11          12
    1  -0.0035170  -0.0013829  -0.0195749  -0.0433389   0.0286761   0.0314574
    2  -0.0440144   0.0088855  -0.0123545   0.0433805   0.0515084  -0.0023501
    3  -0.0373936  -0.0018082  -0.1084274   0.0535320  -0.0182013  -0.0416626
           13          14          15          16          17          18
    1   0.0443146   0.0444156   0.0733533  -0.0814547   0.0125551   0.0253704
    2  -0.0320241   0.0200884  -0.0860389   0.0251021  -0.0739449  -0.0336060
    3  -0.0136880   0.0955880   0.0657944  -0.1063096   0.0510377   0.0298549
           19          20          21          22          23          24
    1  -0.0623591  -0.0253812   0.0376771   0.0799842  -0.0425810   0.0019607
    2   0.0059606   0.0415351   0.0391648   0.0123553  -0.0289185  -0.0017658
    3  -0.0298363  -0.0208911  -0.0003085   0.0201677   0.0700954   0.0074905
           25          26          27          28          29          30
    1  -0.0035658  -0.0123511  -0.0000245   0.0015102   0.0082766  -0.0064585
    2  -0.0007005  -0.0245086  -0.0053876  -0.0051844  -0.0065903   0.0013958
    3   0.0024308  -0.0025503  -0.0119190   0.0063562  -0.0077161   0.0062187
           31          32          33          34          35          36
    1  -0.0083860  -0.0089506  -0.0040120  -0.0256786  -0.0333626  -0.0001557
    2  -0.0091520  -0.0379978   0.0396772   0.0668005   0.0259048  -0.0295466
    3   0.0032137  -0.0324783  -0.0344687   0.0035427   0.0314870   0.0394659
           37          38          39          40          41          42
    1   0.0296298  -0.0399896   0.0043684  -0.0041072   0.0026771   0.0050803
    2  -0.0646479  -0.0242154  -0.0040337   0.0040958   0.0081218  -0.0063899
    3   0.0191062  -0.0728020  -0.0048161  -0.0029202  -0.0048076  -0.0116084
           43          44          45          46          47          48
    1   0.0080032  -0.0009758   0.0129424  -0.0077126  -0.0029216   0.0001828
    2   0.0072794  -0.0046801   0.0002949   0.0004821   0.0059345   0.0062473
    3   0.0047253  -0.0066713   0.0018826  -0.0040518  -0.0132397  -0.0066489
           49          50          51          52          53          54
    1  -0.0009485  -0.0021630   0.0038075   0.0052817   0.0106431   0.0013413
    2  -0.0039007   0.0033662  -0.0065478  -0.0070420   0.0297573  -0.0036321
    3   0.0020266  -0.0010310   0.0042452   0.0019411   0.0354295  -0.0041893
           55          56
    1   0.0050003  -0.0067047
    2  -0.0019572  -0.0055417
    3  -0.0077425   0.0049414
 Max gradient component =       1.084E-01
 RMS gradient           =       3.154E-02
 Gradient time:  CPU 31.04 s  wall 0.66 s
 Geometry Optimization Parameters
   NAtoms,    NIC,     NZ,  NCons,   NDum,   NFix, NCnnct, MaxDiis
       56     458       0       9       0       0       0       0


** CONSTRAINED OPTIMIZATION IN DELOCALIZED INTERNAL COORDINATES **
   Searching for a Minimum

   Optimization Cycle:   1

                       Coordinates (Angstroms)
     ATOM                X               Y               Z
      1  O         4.2893996182   -2.3852978730    1.0197895665
      2  C         3.6340378378   -1.4695387022    0.5434574198
      3  C         4.0672805696   -0.5898200187   -0.6084924774
      4  C         3.4729157872    0.8266609736   -0.6730244860
      5  C         2.6501476737    1.2676685611    0.5172037239
      6  O         1.5120034065    0.5170111881    0.5982685026
      7  C         0.5535502279    1.0452663722    1.5210766523
      8  C        -0.6027368865    0.0662157759    1.6959547028
      9  O        -1.8086655962    0.7830515398    2.0037922008
     10  C        -2.7259067770    0.8366848941    1.0063137268
     11  C        -3.2512910341   -0.5243930977    0.6163319048
     12  C        -4.5866134781   -0.5099232649   -0.1419304191
     13  C        -5.0126086567    0.8313105991   -0.7043787093
     14  O        -5.9321828371    1.0108122054   -1.4896922139
     15  O         2.2956332430   -1.6938679486    0.6077865791
     16  O        -4.9244850274    1.8687882822    0.1782915157
     17  O        -2.5281191936    1.6828903839    0.1438122014
     18  C        -5.4389914566    3.1393618983   -0.0039366486
     19  C        -2.5017565603   -1.4281435803   -0.4754501414
     20  C        -2.8713182981   -2.8997271919   -0.2517500135
     21  C        -4.2910885581   -2.9194794269   -0.7549188774
     22  C        -4.3970821187   -1.4915341726   -1.2872761534
     23  O        -3.1131179007   -1.1607671122   -1.7111479412
     24  H        -3.3319851085   -1.1221935460    1.5529661731
     25  H        -5.4233045423   -0.8071125078    0.5294160035
     26  H        -1.4151282741   -1.4649417475   -0.5949288248
     27  H        -2.2573119760   -3.5083447420   -0.9567358616
     28  H        -2.7154634707   -3.2886744480    0.7773748668
     29  H        -4.3676911453   -3.6606431346   -1.5815773439
     30  H        -5.0654208052   -3.1262343428    0.0156642688
     31  H        -5.1986372782   -1.4189020022   -2.0550376933
     32  O         2.9314749862    2.1984181978    1.2649349723
     33  C         1.6782257200   -2.6583879124    1.3825686380
     34  C         5.5712484692   -0.2454174113   -0.5317132664
     35  C         6.0940359334    0.1203708436   -1.9200000207
     36  C         5.4515183179    1.4762989918   -2.1137854398
     37  C         4.7694611838    1.6560858054   -0.7534299210
     38  O         5.6178127686    0.9861099986    0.1450393532
     39  H         3.8780028273   -1.1742185266   -1.5369387877
     40  H         2.8365918122    0.9758362689   -1.5738022092
     41  H         1.8865474787   -2.4744740046    2.4580325251
     42  H         6.1930150724   -1.0609042934   -0.1019198893
     43  H         7.1952831646    0.2611625643   -1.8308937990
     44  H         5.8832969082   -0.6249808861   -2.7167576332
     45  H         6.2582532873    2.2314540732   -2.2456355187
     46  H         4.7269522129    1.5440108049   -2.9539939319
     47  H         4.6007674295    2.7375487152   -0.5562097140
     48  H         2.0352348074   -3.6705186156    1.0957053597
     49  H         0.5835597350   -2.6187572000    1.2123400732
     50  H        -5.1897282508    3.7615878754    0.8798335759
     51  H        -6.5442707403    3.0991840539   -0.1086794512
     52  H        -4.9905281000    3.6047237544   -0.9075655659
     53  H        -0.6245490878   -0.3422479415    0.7207955843
     54  H        -0.3888373090   -0.7473786337    2.4192209532
     55  H         0.1633920399    1.9862204869    1.0697927806
     56  H         0.9757641955    1.2742474613    2.5256150019
   Point Group: c1    Number of degrees of freedom:   162


   Energy is  -1510.036227610

              Constraints and their Current Values
                                        Value     Constraint
   Dihedral:        1   2   3   4     -153.487     -153.487
   Dihedral:        3   4   5   6      -66.316      -66.316
   Dihedral:        4   5   6   7     -167.859     -167.860
   Dihedral:        5   6   7   8     -172.573     -172.573
   Dihedral:        6   7   8   9     -150.358     -150.358
   Dihedral:        7   8   9  10      107.592      107.592
   Dihedral:        8   9  10  11       62.761       62.761
   Dihedral:        9  10  11  12      160.537      160.537
   Dihedral:       11  12  13  14      169.028      169.028

 Attempting to Generate Delocalized Internal Coordinates

   Using Lagrange Multiplier Algorithm


171 Hessian modes will be used to form the next step
  Hessian Eigenvalues:
    -0.977753   -0.977753   -0.977753   -0.977753   -0.977753   -0.977753
    -0.977753   -0.977753   -0.977753    0.045000    0.045000    0.045000
     0.045000    0.045040    0.045572    0.045593    0.048874    0.048877
     0.049325    0.050433    0.051406    0.054547    0.059382    0.060038
     0.061784    0.062856    0.066321    0.067076    0.067440    0.068340
     0.069866    0.070943    0.071324    0.071372    0.073820    0.074482
     0.076045    0.076751    0.076776    0.082514    0.082549    0.083233
     0.084002    0.084083    0.084341    0.086152    0.086596    0.086700
     0.086867    0.087644    0.088332    0.088593    0.089037    0.089102
     0.089154    0.089781    0.090477    0.093915    0.095187    0.096625
     0.098228    0.111584    0.111816    0.114497    0.114500    0.115586
     0.115639    0.115817    0.115963    0.117130    0.119067    0.119348
     0.121517    0.123027    0.129147    0.130286    0.131196    0.139777
     0.145046    0.160000    0.160000    0.160000    0.160000    0.160000
     0.160000    0.171980    0.172003    0.172376    0.174039    0.211756
     0.220267    0.220808    0.221036    0.230962    0.233710    0.240494
     0.249636    0.250000    0.250000    0.250000    0.250000    0.250000
     0.250000    0.250000    0.250000    0.258190    0.259623    0.265173
     0.267343    0.280053    0.282746    0.283150    0.285968    0.295959
     0.296917    0.298747    0.308045    0.310698    0.310867    0.313322
     0.320207    0.321671    0.321725    0.322030    0.322364    0.322567
     0.322699    0.322942    0.322945    0.322987    0.323571    0.323717
     0.323991    0.324084    0.324370    0.324725    0.324779    0.324988
     0.324989    0.325023    0.325170    0.326620    0.326838    0.327560
     0.343776    0.369783    0.376413    0.385236    0.388590    0.397126
     0.401010    0.407711    0.485845    0.486173    0.517908    0.519491
     0.532319    0.537312    0.925188    0.934711    0.941950    0.942755
     1.022753    1.022753    1.022753    1.022753    1.022753    1.022753
     1.022753    1.022753    1.022753

 Minimum Search - Taking P-RFO Step
 Searching for Lamda that Maximizes Along the Constraint modes Only
 Value Taken    Lamda =   0.00712782
 Searching for Lamda that Minimizes Along All other modes
 Value Taken    Lamda =  -0.21647493
 Calculated Step too Large.  Step scaled by  0.479097
 Step Taken.  Stepsize is  0.300000

                             Maximum     Tolerance    Cnvgd?
         Gradient            0.123800       0.000300      NO
         Displacement        0.090820       0.001200      NO
         Energy change     *********       0.000001      NO


 New Cartesian Coordinates Obtained by Inverse Iteration

 Displacement from previous Coordinates is:  1.372532
 Adding empirical dispersion correction 
 ----------------------------------------------------------------
 Doing -D3(op) with
 s6 =   1.00000
 s8 =   0.78311
 a1 =   0.30000
 a2 =   4.25000
 n  =  10.00000
 -D3 energy without 3body term =     -0.0676035367 hartrees
 ----------------------------------------------------------------
             Standard Nuclear Orientation (Angstroms)
    I     Atom           X                Y                Z
 ----------------------------------------------------------------
    1      O       4.4123867159    -2.4571206122     1.0069856818
    2      C       3.7135188137    -1.5362441326     0.5532503934
    3      C       4.1301794192    -0.6240543498    -0.6054114346
    4      C       3.5202351635     0.8113090755    -0.6808249723
    5      C       2.6816095849     1.2868325741     0.5138569404
    6      O       1.5230580288     0.5386131245     0.6199219172
    7      C       0.5645750124     1.1087923602     1.5413542614
    8      C      -0.6034074048     0.1181861597     1.7353490069
    9      O      -1.8192306843     0.8419490772     2.0261169897
   10      C      -2.7616325741     0.8794228665     1.0066145699
   11      C      -3.3103363283    -0.5021660856     0.6177850493
   12      C      -4.6664609490    -0.4960733322    -0.1559168175
   13      C      -5.1403482660     0.8527017031    -0.7173280037
   14      O      -6.0868503258     0.9867837342    -1.5112038870
   15      O       2.3511267115    -1.7490794370     0.6081396529
   16      O      -5.0382056965     1.8765310062     0.2125968733
   17      O      -2.5845238733     1.7485025704     0.1356201719
   18      C      -5.6153065325     3.1399425989     0.0119833920
   19      C      -2.5279026830    -1.3818957617    -0.4822343842
   20      C      -2.8843626456    -2.8763021737    -0.2603988943
   21      C      -4.3205774644    -2.9209551531    -0.7815331119
   22      C      -4.4519904708    -1.4776594631    -1.3193928404
   23      O      -3.1449499418    -1.1122331722    -1.7409358639
   24      H      -3.3845288626    -1.1077109149     1.5459679648
   25      H      -5.4961451644    -0.8071196769     0.5144680713
   26      H      -1.4339884259    -1.3790331310    -0.5862373381
   27      H      -2.2520102855    -3.4708403616    -0.9532857362
   28      H      -2.7332043001    -3.2601845806     0.7673259515
   29      H      -4.3848859036    -3.6592081035    -1.6058176706
   30      H      -5.0924557222    -3.1417723771    -0.0182070187
   31      H      -5.2478094436    -1.4106882129    -2.0914351059
   32      O       2.9667253904     2.2415251714     1.2484006297
   33      C       1.7881643904    -2.7631743085     1.3989765964
   34      C       5.6480157614    -0.2709776867    -0.5247957317
   35      C       6.1716513253     0.0960897039    -1.9319877536
   36      C       5.5153023196     1.4654238525    -2.1346198150
   37      C       4.8258481499     1.6557686421    -0.7597727970
   38      O       5.6894021744     0.9834600502     0.1622226115
   39      H       3.9378909510    -1.2066959626    -1.5312980495
   40      H       2.8873535671     0.9471319233    -1.5830830240
   41      H       2.0175524585    -2.6028960873     2.4752915410
   42      H       6.2685131884    -1.0816342846    -0.0877775064
   43      H       7.2689929200     0.2365528815    -1.8484190417
   44      H       5.9615029115    -0.6518579867    -2.7211334724
   45      H       6.3112834961     2.2242995056    -2.2732682473
   46      H       4.7926344962     1.5235042744    -2.9721451854
   47      H       4.6509801398     2.7346126294    -0.5637930886
   48      H       2.1623108947    -3.7647400959     1.0905684627
   49      H       0.6888100607    -2.7488199355     1.2591359610
   50      H      -5.3749290424     3.7767033793     0.8874809830
   51      H      -6.7219330364     3.0660226121    -0.0788938625
   52      H      -5.2045766767     3.6219939159    -0.9021535295
   53      H      -0.6376482695    -0.3318187960     0.7584874338
   54      H      -0.3892078447    -0.6755460134     2.4801415514
   55      H       0.1692762671     2.0386914623     1.0716960129
   56      H       0.9970947515     1.3693136189     2.5333413859
 ----------------------------------------------------------------
 Molecular Point Group                 C1    NOp =  1
 Largest Abelian Subgroup              C1    NOp =  1
 Nuclear Repulsion Energy =  3129.4194511282 hartrees
 There are      113 alpha and      113 beta electrons
 Applying Cartesian multipole field
    Component          Value
    ---------          -----
     (2,0,0)        1.00000E-12
     (0,2,0)        2.00000E-11
     (0,0,2)       -3.00000E-11
 Nucleus-field energy     =     0.0000000270 hartrees
 Requested basis set is STO-3G
 There are 86 shells and 176 basis functions
 A cutoff of  1.0D-12 yielded   2154 shell pairs
 There are     10038 function pairs
 Smallest overlap matrix eigenvalue = 2.01E-01
 Guess MOs from SCF MO coefficient file
 Reading MOs from coefficient file
 Reading MOs from coefficient file
 A restricted hybrid HF-DFT SCF calculation will be
 performed using Pulay DIIS extrapolation
 Exchange:     0.2000 Hartree-Fock + 0.0800 Slater + 0.7200 B88
 Correlation:  0.1900 VWN1RPA + 0.8100 LYP
 Using SG-1 standard quadrature grid
 Dispersion:   Grimme D3
 SCF converges when DIIS error is below 1.0E-08
 Geometry optimization detected.  Setting ReadMinima to 0
 Setting SaveMinima to 0
 using 48 threads for integral computing
 -------------------------------------------------------
 OpenMP Integral computing Module                
 Release: version 1.0, May 2013, Q-Chem Inc. Pittsburgh 
 -------------------------------------------------------
 -------------------------------------------------------
 OpenMP BLAS3 based DFT computing Module                
 Release: version 1.0, May 2013, Q-Chem Inc. Pittsburgh 
 -------------------------------------------------------
 ---------------------------------------
  Cycle       Energy         DIIS Error
 ---------------------------------------
    1   -1509.9504425445      3.22E-03
    2   -1510.1145445086      8.64E-04
    3   -1510.1085250877      1.48E-03
    4   -1510.1175511233      3.00E-04
    5   -1510.1179617793      5.66E-05
    6   -1510.1179740084      2.70E-05
    7   -1510.1179766883      1.22E-05
    8   -1510.1179773274      2.17E-06
    9   -1510.1179773501      7.29E-07
   10   -1510.1179773516      4.79E-07
   11   -1510.1179773526      1.25E-07
   12   -1510.1179773527      2.35E-08
   13   -1510.1179773527      1.20E-08
   14   -1510.1179773528      5.49E-09 Convergence criterion met
 ---------------------------------------
 SCF time:  CPU 98.55 s  wall 2.06 s
 SCF   energy in the final basis set = -1510.11797735
 Total energy in the final basis set = -1510.11797735
 
 --------------------------------------------------------------
 
                    Orbital Energies (a.u.)
 --------------------------------------------------------------
 
 Alpha MOs
 -- Occupied --
-18.941 -18.930 -18.921 -18.911 -18.900 -18.900 -18.895 -18.867
-18.860 -18.857 -10.121 -10.106 -10.104 -10.104 -10.083 -10.081
-10.078 -10.074 -10.074 -10.072 -10.063 -10.061 -10.049 -10.047
-10.045 -10.037 -10.026 -10.024 -10.015 -10.014  -1.038  -1.035
 -1.029  -1.025  -1.020  -1.004  -0.949  -0.943  -0.937  -0.931
 -0.782  -0.776  -0.745  -0.738  -0.726  -0.721  -0.713  -0.678
 -0.672  -0.625  -0.612  -0.592  -0.559  -0.551  -0.547  -0.537
 -0.532  -0.517  -0.499  -0.487  -0.481  -0.469  -0.464  -0.460
 -0.457  -0.450  -0.437  -0.425  -0.422  -0.420  -0.418  -0.414
 -0.405  -0.396  -0.389  -0.385  -0.377  -0.370  -0.362  -0.360
 -0.353  -0.349  -0.344  -0.339  -0.334  -0.331  -0.328  -0.320
 -0.315  -0.310  -0.307  -0.302  -0.299  -0.292  -0.290  -0.279
 -0.273  -0.252  -0.248  -0.234  -0.231  -0.225  -0.223  -0.183
 -0.170  -0.167  -0.165  -0.162  -0.154  -0.149  -0.146  -0.139
 -0.138
 -- Virtual --
  0.042   0.091   0.092   0.109   0.226   0.238   0.250   0.284
  0.287   0.297   0.304   0.311   0.322   0.328   0.334   0.340
  0.349   0.355   0.365   0.365   0.377   0.379   0.385   0.386
  0.392   0.395   0.398   0.403   0.403   0.405   0.411   0.414
  0.418   0.425   0.429   0.430   0.437   0.439   0.443   0.446
  0.451   0.454   0.462   0.470   0.473   0.479   0.481   0.483
  0.490   0.493   0.500   0.506   0.508   0.527   0.531   0.553
  0.556   0.567   0.574   0.626   0.644   0.649   0.672
 --------------------------------------------------------------
 
          Ground-State Mulliken Net Atomic Charges

     Atom                 Charge (a.u.)
  ----------------------------------------
      1 O                    -0.226558
      2 C                     0.219843
      3 C                    -0.076719
      4 C                    -0.080424
      5 C                     0.222306
      6 O                    -0.179659
      7 C                    -0.039103
      8 C                    -0.044021
      9 O                    -0.226718
     10 C                     0.243426
     11 C                    -0.086737
     12 C                    -0.075108
     13 C                     0.225386
     14 O                    -0.226380
     15 O                    -0.196516
     16 O                    -0.202206
     17 O                    -0.172680
     18 C                    -0.103967
     19 C                     0.030984
     20 C                    -0.142655
     21 C                    -0.144876
     22 C                     0.034786
     23 O                    -0.199439
     24 H                     0.081773
     25 H                     0.089718
     26 H                     0.085539
     27 H                     0.076513
     28 H                     0.072659
     29 H                     0.077479
     30 H                     0.074296
     31 H                     0.094875
     32 O                    -0.219697
     33 C                    -0.104772
     34 C                     0.033939
     35 C                    -0.143550
     36 C                    -0.145092
     37 C                     0.035460
     38 O                    -0.202225
     39 H                     0.090950
     40 H                     0.084754
     41 H                     0.085837
     42 H                     0.091458
     43 H                     0.076093
     44 H                     0.071878
     45 H                     0.076130
     46 H                     0.071473
     47 H                     0.089937
     48 H                     0.086962
     49 H                     0.087166
     50 H                     0.093013
     51 H                     0.084798
     52 H                     0.089024
     53 H                     0.093381
     54 H                     0.084344
     55 H                     0.092493
     56 H                     0.090428
  ----------------------------------------
  Sum of atomic charges =     0.000000

 -----------------------------------------------------------------
                    Cartesian Multipole Moments
 -----------------------------------------------------------------
    Charge (ESU x 10^10)
                 0.0000
    Dipole Moment (Debye)
         X      -1.7036      Y      -2.7260      Z      -0.4379
       Tot       3.2442
    Quadrupole Moments (Debye-Ang)
        XX    -170.5075     XY       4.3704     YY    -157.1256
        XZ     -20.4405     YZ      -3.4880     ZZ    -162.8756
    Octopole Moments (Debye-Ang^2)
       XXX     -52.7495    XXY       0.5173    XYY     -57.4287
       YYY      21.3243    XXZ     -13.1115    XYZ     -11.8238
       YYZ      -8.2227    XZZ      20.6769    YZZ      -5.5744
       ZZZ      19.3153
    Hexadecapole Moments (Debye-Ang^3)
      XXXX  -16159.9624   XXXY       1.7601   XXYY   -3034.7547
      XYYY     -98.8029   YYYY   -2814.8829   XXXZ    -558.6927
      XXYZ      44.7891   XYYZ     -29.4899   YYYZ       1.1724
      XXZZ   -2962.6719   XYZZ       3.3462   YYZZ    -708.7426
      XZZZ      75.4649   YZZZ      -8.6306   ZZZZ   -1402.6575
 -----------------------------------------------------------------
 Calculating analytic gradient of the SCF energy
 Gradient of SCF Energy
            1           2           3           4           5           6
    1  -0.0451340  -0.0014940   0.0078650   0.0135202  -0.0137320   0.0171275
    2   0.0087411   0.0551595  -0.0051615   0.0025255  -0.0085814   0.0316514
    3  -0.0267730   0.0049125   0.0101550   0.0265575  -0.0038908   0.0145563
            7           8           9          10          11          12
    1  -0.0012553  -0.0015405  -0.0026051  -0.0533397   0.0238073   0.0178416
    2  -0.0322347   0.0071131  -0.0129710   0.0305834   0.0330387  -0.0045161
    3  -0.0270557   0.0132568  -0.0805935   0.0585916  -0.0069982  -0.0319430
           13          14          15          16          17          18
    1   0.0558062   0.0105035   0.0512248  -0.0634413   0.0177280   0.0231320
    2  -0.0253024   0.0133292  -0.0697413   0.0234043  -0.0429944  -0.0271773
    3  -0.0093390   0.0555696   0.0461517  -0.0705363   0.0209786   0.0249304
           19          20          21          22          23          24
    1  -0.0416344  -0.0151258   0.0204501   0.0525195  -0.0268757   0.0024002
    2   0.0097962   0.0268479   0.0236696   0.0109750  -0.0188879  -0.0017079
    3  -0.0211231  -0.0110443   0.0000744   0.0101083   0.0448771   0.0046810
           25          26          27          28          29          30
    1  -0.0028601  -0.0067459  -0.0004205   0.0016773   0.0067028  -0.0047043
    2   0.0013460  -0.0216341  -0.0028769  -0.0045996  -0.0042229   0.0010348
    3   0.0013441  -0.0020028  -0.0085008   0.0033697  -0.0048475   0.0033623
           31          32          33          34          35          36
    1  -0.0076810  -0.0044238  -0.0050514  -0.0168398  -0.0220926  -0.0007190
    2  -0.0086029  -0.0215110   0.0334494   0.0446073   0.0148108  -0.0173032
    3   0.0039349  -0.0174836  -0.0279046   0.0075761   0.0186793   0.0236865
           37          38          39          40          41          42
    1   0.0203497  -0.0255299   0.0037628  -0.0033376   0.0015076   0.0040956
    2  -0.0417137  -0.0160082  -0.0034714   0.0037986   0.0053591  -0.0057473
    3   0.0171228  -0.0467222  -0.0024810  -0.0011152  -0.0018869  -0.0112406
           43          44          45          46          47          48
    1   0.0049091   0.0005430   0.0093432  -0.0051263  -0.0030359  -0.0003644
    2   0.0055592  -0.0028571  -0.0008473   0.0009075   0.0044594   0.0027295
    3   0.0040480  -0.0045977   0.0016775  -0.0023008  -0.0127393  -0.0046132
           49          50          51          52          53          54
    1  -0.0009578  -0.0019517   0.0013698   0.0039826   0.0067103   0.0009143
    2  -0.0038947   0.0033946  -0.0036986  -0.0036513   0.0215293  -0.0034698
    3   0.0017734  -0.0005727   0.0029898   0.0004894   0.0193446  -0.0046965
           55          56
    1   0.0038044  -0.0055782
    2  -0.0013094  -0.0031248
    3  -0.0060240   0.0042271
 Max gradient component =       8.059E-02
 RMS gradient           =       2.240E-02
 Gradient time:  CPU 29.42 s  wall 0.62 s
 Geometry Optimization Parameters
   NAtoms,    NIC,     NZ,  NCons,   NDum,   NFix, NCnnct, MaxDiis
       56     458       0       9       0       0       0       0

 Cartesian Hessian Update
 Hessian Updated using BFGS Update


** CONSTRAINED OPTIMIZATION IN DELOCALIZED INTERNAL COORDINATES **
   Searching for a Minimum

   Optimization Cycle:   2

                       Coordinates (Angstroms)
     ATOM                X               Y               Z
      1  O         4.4123867159   -2.4571206122    1.0069856818
      2  C         3.7135188137   -1.5362441326    0.5532503934
      3  C         4.1301794192   -0.6240543498   -0.6054114346
      4  C         3.5202351635    0.8113090755   -0.6808249723
      5  C         2.6816095849    1.2868325741    0.5138569404
      6  O         1.5230580288    0.5386131245    0.6199219172
      7  C         0.5645750124    1.1087923602    1.5413542614
      8  C        -0.6034074048    0.1181861597    1.7353490069
      9  O        -1.8192306843    0.8419490772    2.0261169897
     10  C        -2.7616325741    0.8794228665    1.0066145699
     11  C        -3.3103363283   -0.5021660856    0.6177850493
     12  C        -4.6664609490   -0.4960733322   -0.1559168175
     13  C        -5.1403482660    0.8527017031   -0.7173280037
     14  O        -6.0868503258    0.9867837342   -1.5112038870
     15  O         2.3511267115   -1.7490794370    0.6081396529
     16  O        -5.0382056965    1.8765310062    0.2125968733
     17  O        -2.5845238733    1.7485025704    0.1356201719
     18  C        -5.6153065325    3.1399425989    0.0119833920
     19  C        -2.5279026830   -1.3818957617   -0.4822343842
     20  C        -2.8843626456   -2.8763021737   -0.2603988943
     21  C        -4.3205774644   -2.9209551531   -0.7815331119
     22  C        -4.4519904708   -1.4776594631   -1.3193928404
     23  O        -3.1449499418   -1.1122331722   -1.7409358639
     24  H        -3.3845288626   -1.1077109149    1.5459679648
     25  H        -5.4961451644   -0.8071196769    0.5144680713
     26  H        -1.4339884259   -1.3790331310   -0.5862373381
     27  H        -2.2520102855   -3.4708403616   -0.9532857362
     28  H        -2.7332043001   -3.2601845806    0.7673259515
     29  H        -4.3848859036   -3.6592081035   -1.6058176706
     30  H        -5.0924557222   -3.1417723771   -0.0182070187
     31  H        -5.2478094436   -1.4106882129   -2.0914351059
     32  O         2.9667253904    2.2415251714    1.2484006297
     33  C         1.7881643904   -2.7631743085    1.3989765964
     34  C         5.6480157614   -0.2709776867   -0.5247957317
     35  C         6.1716513253    0.0960897039   -1.9319877536
     36  C         5.5153023196    1.4654238525   -2.1346198150
     37  C         4.8258481499    1.6557686421   -0.7597727970
     38  O         5.6894021744    0.9834600502    0.1622226115
     39  H         3.9378909510   -1.2066959626   -1.5312980495
     40  H         2.8873535671    0.9471319233   -1.5830830240
     41  H         2.0175524585   -2.6028960873    2.4752915410
     42  H         6.2685131884   -1.0816342846   -0.0877775064
     43  H         7.2689929200    0.2365528815   -1.8484190417
     44  H         5.9615029115   -0.6518579867   -2.7211334724
     45  H         6.3112834961    2.2242995056   -2.2732682473
     46  H         4.7926344962    1.5235042744   -2.9721451854
     47  H         4.6509801398    2.7346126294   -0.5637930886
     48  H         2.1623108947   -3.7647400959    1.0905684627
     49  H         0.6888100607   -2.7488199355    1.2591359610
     50  H        -5.3749290424    3.7767033793    0.8874809830
     51  H        -6.7219330364    3.0660226121   -0.0788938625
     52  H        -5.2045766767    3.6219939159   -0.9021535295
     53  H        -0.6376482695   -0.3318187960    0.7584874338
     54  H        -0.3892078447   -0.6755460134    2.4801415514
     55  H         0.1692762671    2.0386914623    1.0716960129
     56  H         0.9970947515    1.3693136189    2.5333413859
   Point Group: c1    Number of degrees of freedom:   162


   Energy is  -1510.117977353

              Constraints and their Current Values
                                        Value     Constraint
   Dihedral:        1   2   3   4     -153.594     -153.487
   Dihedral:        3   4   5   6      -66.258      -66.316
   Dihedral:        4   5   6   7     -167.847     -167.860
   Dihedral:        5   6   7   8     -172.552     -172.573
   Dihedral:        6   7   8   9     -150.312     -150.358
   Dihedral:        7   8   9  10      107.550      107.592
   Dihedral:        8   9  10  11       62.711       62.761
   Dihedral:        9  10  11  12      160.718      160.537
   Dihedral:       11  12  13  14      169.174      169.028
 Hessian Updated using BFGS Update

   Using Lagrange Multiplier Algorithm


159 Hessian modes will be used to form the next step
  Hessian Eigenvalues:
    -0.977753   -0.977753   -0.977753   -0.977753   -0.977753   -0.977753
    -0.977753   -0.977753   -0.973126    0.044995    0.045002    0.045039
     0.045570    0.045602    0.048748    0.048883    0.048908    0.050331
     0.051419    0.054516    0.059380    0.060060    0.061784    0.063040
     0.066315    0.067068    0.067387    0.068383    0.069842    0.070944
     0.071195    0.071340    0.073847    0.074500    0.076056    0.076692
     0.076824    0.082502    0.082550    0.083341    0.084008    0.084153
     0.084432    0.086301    0.086603    0.086674    0.086840    0.087617
     0.088255    0.088534    0.089030    0.089098    0.089149    0.089767
     0.090529    0.093958    0.095180    0.096631    0.098201    0.111604
     0.111889    0.114498    0.114508    0.115572    0.115699    0.115814
     0.115963    0.117242    0.118924    0.119360    0.121630    0.123071
     0.129314    0.130298    0.131197    0.141420    0.147066    0.159717
     0.161122    0.171814    0.172032    0.172347    0.174063    0.211751
     0.218522    0.220490    0.220808    0.231027    0.233255    0.237316
     0.240528    0.249638    0.253624    0.258950    0.265171    0.265893
     0.267981    0.280333    0.282716    0.285699    0.286139    0.296392
     0.297517    0.300663    0.308291    0.310706    0.312186    0.320001
     0.321461    0.321669    0.321851    0.322334    0.322374    0.322629
     0.322751    0.322942    0.322970    0.323551    0.323668    0.323822
     0.323995    0.324226    0.324482    0.324736    0.324783    0.324988
     0.325010    0.325141    0.326590    0.326812    0.327552    0.330714
     0.344063    0.369782    0.376768    0.387888    0.391718    0.400752
     0.407067    0.430930    0.471968    0.486025    0.516852    0.523341
     0.532439    0.547452    0.924525    0.935938    0.942216    0.977267
     1.022753    1.022753    1.022753    1.022753    1.022753    1.022753
     1.022753    1.022753    1.069675

 Minimum Search - Taking P-RFO Step
 Searching for Lamda that Maximizes Along the Constraint modes Only
 Value Taken    Lamda =   0.00046046
 Searching for Lamda that Minimizes Along All other modes
 Value Taken    Lamda =  -0.11178986
 Calculated Step too Large.  Step scaled by  0.515875
 Step Taken.  Stepsize is  0.300000

                             Maximum     Tolerance    Cnvgd?
         Gradient            0.077315       0.000300      NO
         Displacement        0.085754       0.001200      NO
         Energy change     -0.081750       0.000001      NO


 New Cartesian Coordinates Obtained by Inverse Iteration

 Displacement from previous Coordinates is:  1.414069
 Adding empirical dispersion correction 
 ----------------------------------------------------------------
 Doing -D3(op) with
 s6 =   1.00000
 s8 =   0.78311
 a1 =   0.30000
 a2 =   4.25000
 n  =  10.00000
 -D3 energy without 3body term =     -0.0678536496 hartrees
 ----------------------------------------------------------------
             Standard Nuclear Orientation (Angstroms)
    I     Atom           X                Y                Z
 ----------------------------------------------------------------
    1      O       4.3620704980    -2.4740152188     1.0545080228
    2      C       3.6787166105    -1.5393247337     0.5817753163
    3      C       4.1119400061    -0.6451573643    -0.6038038577
    4      C       3.5240393504     0.8048295002    -0.6901553839
    5      C       2.7069149484     1.2975943846     0.5301010144
    6      O       1.5316426420     0.5466229016     0.6456560292
    7      C       0.5845336410     1.1312960993     1.5896613338
    8      C      -0.5847137768     0.1193199965     1.7737929723
    9      O      -1.8116137970     0.8343563208     2.0805481129
   10      C      -2.7621392437     0.8693550511     1.0343150020
   11      C      -3.3094579035    -0.5219447391     0.6109647020
   12      C      -4.6695904191    -0.5107133779    -0.1801751116
   13      C      -5.1890318381     0.8618082583    -0.6892372772
   14      O      -6.1392389251     1.0014874558    -1.4905922207
   15      O       2.2868410752    -1.6517232792     0.6540720034
   16      O      -5.0737582206     1.8465583165     0.3022071862
   17      O      -2.6284939811     1.7900393958     0.1954121808
   18      C      -5.7178332275     3.0988673824     0.0671776388
   19      C      -2.4763265293    -1.3299468944    -0.5096325036
   20      C      -2.8018428222    -2.8521226058    -0.3407614397
   21      C      -4.2432463935    -2.9169597084    -0.8925770613
   22      C      -4.4116827173    -1.4482678127    -1.3889156693
   23      O      -3.0878200171    -1.0240579573    -1.7844682027
   24      H      -3.3764352428    -1.1629640359     1.5119962758
   25      H      -5.4937349448    -0.8658412807     0.4726505601
   26      H      -1.3787858546    -1.2617997230    -0.5847146440
   27      H      -2.1385685991    -3.4063964096    -1.0319211051
   28      H      -2.6627275377    -3.2593164352     0.6765649556
   29      H      -4.2831157138    -3.6271038819    -1.7381067104
   30      H      -5.0153082674    -3.1819881725    -0.1483019659
   31      H      -5.1930945066    -1.3635015607    -2.1717102599
   32      O       3.0084528316     2.2549203782     1.2672610049
   33      C       1.7549872148    -2.6559609890     1.5192534377
   34      C       5.6495562641    -0.3290256844    -0.5506088450
   35      C       6.1506956922     0.0120367868    -1.9870150813
   36      C       5.5108688338     1.4072413125    -2.1948175296
   37      C       4.8516561775     1.6346809784    -0.7958077246
   38      O       5.7322395791     0.9485791193     0.1317656880
   39      H       3.8846621153    -1.2293463253    -1.5186192934
   40      H       2.8810102917     0.9397648287    -1.5830149072
   41      H       2.0440652394    -2.4798090003     2.5781100638
   42      H       6.2533651625    -1.1440761891    -0.1018952702
   43      H       7.2498099896     0.1242737901    -1.9366898982
   44      H       5.9021023534    -0.7402071505    -2.7564976747
   45      H       6.3104425558     2.1506607979    -2.3652298011
   46      H       4.7717864996     1.4654854975    -3.0138325689
   47      H       4.7005922964     2.7143929253    -0.5939478762
   48      H       2.0939881285    -3.6728802237     1.2214602245
   49      H       0.6512314909    -2.6163921981     1.4358980533
   50      H      -5.5065632159     3.7497031277     0.9382835534
   51      H      -6.8196322323     2.9798766077    -0.0320773476
   52      H      -5.3274529299     3.5910222471    -0.8498210853
   53      H      -0.6319928968    -0.3420783228     0.7879365151
   54      H      -0.3599368220    -0.6749085256     2.5161395625
   55      H       0.1775039847     2.0630525767     1.1346171387
   56      H       1.0350093500     1.3921620473     2.5725956414
 ----------------------------------------------------------------
 Molecular Point Group                 C1    NOp =  1
 Largest Abelian Subgroup              C1    NOp =  1
 Nuclear Repulsion Energy =  3117.7173082662 hartrees
 There are      113 alpha and      113 beta electrons
 Applying Cartesian multipole field
    Component          Value
    ---------          -----
     (2,0,0)        1.00000E-12
     (0,2,0)        2.00000E-11
     (0,0,2)       -3.00000E-11
 Nucleus-field energy     =     0.0000000240 hartrees
 Requested basis set is STO-3G
 There are 86 shells and 176 basis functions
 A cutoff of  1.0D-12 yielded   2158 shell pairs
 There are     10063 function pairs
 Smallest overlap matrix eigenvalue = 2.06E-01
 Guess MOs from SCF MO coefficient file
 Reading MOs from coefficient file
 Reading MOs from coefficient file
 A restricted hybrid HF-DFT SCF calculation will be
 performed using Pulay DIIS extrapolation
 Exchange:     0.2000 Hartree-Fock + 0.0800 Slater + 0.7200 B88
 Correlation:  0.1900 VWN1RPA + 0.8100 LYP
 Using SG-1 standard quadrature grid
 Dispersion:   Grimme D3
 SCF converges when DIIS error is below 1.0E-08
 Geometry optimization detected.  Setting ReadMinima to 0
 Setting SaveMinima to 0
 using 48 threads for integral computing
 -------------------------------------------------------
 OpenMP Integral computing Module                
 Release: version 1.0, May 2013, Q-Chem Inc. Pittsburgh 
 -------------------------------------------------------
 -------------------------------------------------------
 OpenMP BLAS3 based DFT computing Module                
 Release: version 1.0, May 2013, Q-Chem Inc. Pittsburgh 
 -------------------------------------------------------
 ---------------------------------------
  Cycle       Energy         DIIS Error
 ---------------------------------------
    1   -1510.0221789997      3.07E-03
    2   -1510.1617861996      7.97E-04
    3   -1510.1554907353      1.46E-03
    4   -1510.1644145738      2.78E-04
    5   -1510.1647568493      5.96E-05
    6   -1510.1647698711      3.13E-05
    7   -1510.1647734075      1.46E-05
    8   -1510.1647743551      2.72E-06
    9   -1510.1647743945      1.01E-06
   10   -1510.1647743981      6.49E-07
   11   -1510.1647744000      1.99E-07
   12   -1510.1647744002      4.17E-08
   13   -1510.1647744003      1.65E-08
   14   -1510.1647744004      5.14E-09 Convergence criterion met
 ---------------------------------------
 SCF time:  CPU 97.05 s  wall 2.03 s
 SCF   energy in the final basis set = -1510.16477440
 Total energy in the final basis set = -1510.16477440
 
 --------------------------------------------------------------
 
                    Orbital Energies (a.u.)
 --------------------------------------------------------------
 
 Alpha MOs
 -- Occupied --
-18.938 -18.935 -18.927 -18.908 -18.900 -18.898 -18.893 -18.868
-18.864 -18.862 -10.116 -10.102 -10.101 -10.101 -10.080 -10.076
-10.075 -10.072 -10.071 -10.068 -10.061 -10.059 -10.049 -10.047
-10.044 -10.037 -10.027 -10.025 -10.016 -10.015  -1.030  -1.027
 -1.020  -1.015  -1.005  -0.990  -0.944  -0.938  -0.934  -0.930
 -0.778  -0.771  -0.739  -0.733  -0.720  -0.716  -0.707  -0.674
 -0.668  -0.620  -0.609  -0.590  -0.557  -0.550  -0.546  -0.536
 -0.530  -0.515  -0.494  -0.482  -0.476  -0.464  -0.460  -0.456
 -0.451  -0.446  -0.434  -0.421  -0.419  -0.417  -0.415  -0.410
 -0.401  -0.392  -0.384  -0.380  -0.374  -0.366  -0.359  -0.358
 -0.351  -0.345  -0.341  -0.337  -0.334  -0.331  -0.327  -0.319
 -0.314  -0.310  -0.305  -0.300  -0.297  -0.292  -0.290  -0.278
 -0.271  -0.256  -0.248  -0.237  -0.235  -0.229  -0.225  -0.185
 -0.172  -0.165  -0.163  -0.161  -0.155  -0.148  -0.146  -0.143
 -0.140
 -- Virtual --
  0.045   0.089   0.089   0.106   0.222   0.236   0.247   0.278
  0.279   0.287   0.296   0.302   0.313   0.323   0.325   0.334
  0.344   0.352   0.356   0.358   0.365   0.368   0.375   0.378
  0.386   0.389   0.393   0.395   0.399   0.401   0.404   0.415
  0.416   0.419   0.422   0.423   0.426   0.437   0.440   0.442
  0.446   0.447   0.453   0.456   0.463   0.467   0.473   0.476
  0.478   0.483   0.488   0.494   0.502   0.520   0.522   0.544
  0.550   0.559   0.572   0.614   0.631   0.635   0.660
 --------------------------------------------------------------
 
          Ground-State Mulliken Net Atomic Charges

     Atom                 Charge (a.u.)
  ----------------------------------------
      1 O                    -0.221037
      2 C                     0.211667
      3 C                    -0.076947
      4 C                    -0.079666
      5 C                     0.215155
      6 O                    -0.173122
      7 C                    -0.042785
      8 C                    -0.043404
      9 O                    -0.220274
     10 C                     0.234649
     11 C                    -0.085668
     12 C                    -0.074349
     13 C                     0.217864
     14 O                    -0.221602
     15 O                    -0.181404
     16 O                    -0.188876
     17 O                    -0.169459
     18 C                    -0.112069
     19 C                     0.028473
     20 C                    -0.143565
     21 C                    -0.145358
     22 C                     0.030517
     23 O                    -0.193150
     24 H                     0.082614
     25 H                     0.088608
     26 H                     0.084644
     27 H                     0.076964
     28 H                     0.072775
     29 H                     0.078248
     30 H                     0.074895
     31 H                     0.094273
     32 O                    -0.216059
     33 C                    -0.113602
     34 C                     0.030053
     35 C                    -0.144153
     36 C                    -0.145548
     37 C                     0.031497
     38 O                    -0.195901
     39 H                     0.089474
     40 H                     0.084751
     41 H                     0.086554
     42 H                     0.090725
     43 H                     0.076466
     44 H                     0.072432
     45 H                     0.076561
     46 H                     0.072027
     47 H                     0.089536
     48 H                     0.087751
     49 H                     0.086017
     50 H                     0.092488
     51 H                     0.086119
     52 H                     0.089713
     53 H                     0.089566
     54 H                     0.082595
     55 H                     0.091687
     56 H                     0.090643
  ----------------------------------------
  Sum of atomic charges =     0.000000

 -----------------------------------------------------------------
                    Cartesian Multipole Moments
 -----------------------------------------------------------------
    Charge (ESU x 10^10)
                 0.0000
    Dipole Moment (Debye)
         X      -1.7466      Y      -2.8228      Z      -0.5447
       Tot       3.3638
    Quadrupole Moments (Debye-Ang)
        XX    -169.9153     XY       4.1469     YY    -157.3723
        XZ     -19.7123     YZ      -3.4638     ZZ    -162.6387
    Octopole Moments (Debye-Ang^2)
       XXX     -60.9469    XXY      -1.7232    XYY     -56.8521
       YYY      20.5264    XXZ     -16.2054    XYZ     -11.8698
       YYZ      -8.7837    XZZ      21.5423    YZZ      -6.2351
       ZZZ      16.9614
    Hexadecapole Moments (Debye-Ang^3)
      XXXX  -16148.0062   XXXY       5.1388   XXYY   -3016.7208
      XYYY     -58.4900   YYYY   -2759.5967   XXXZ    -543.3297
      XXYZ      38.7676   XYYZ     -28.1882   YYYZ     -18.0409
      XXZZ   -2968.8078   XYZZ      18.0146   YYZZ    -710.0396
      XZZZ      87.0119   YZZZ     -27.1414   ZZZZ   -1484.3106
 -----------------------------------------------------------------
 Calculating analytic gradient of the SCF energy
 Gradient of SCF Energy
            1           2           3           4           5           6
    1  -0.0250063  -0.0020819   0.0038298   0.0071532  -0.0089487   0.0122939
    2  -0.0033319   0.0502087  -0.0041157  -0.0005418  -0.0100036   0.0113003
    3  -0.0177788   0.0088339   0.0035421   0.0151634  -0.0046684   0.0094967
            7           8           9          10          11          12
    1   0.0008670  -0.0015640   0.0063695  -0.0557082   0.0166805   0.0118965
    2  -0.0209891   0.0049047  -0.0098105   0.0190857   0.0197078  -0.0052053
    3  -0.0182502   0.0180269  -0.0602912   0.0559904   0.0008055  -0.0229988
           13          14          15          16          17          18
    1   0.0526493  -0.0039222   0.0281947  -0.0431163   0.0177366   0.0173191
    2  -0.0134576   0.0081235  -0.0401073   0.0135527  -0.0235559  -0.0190105
    3  -0.0121755   0.0373490   0.0277554  -0.0439719   0.0036765   0.0161920
           19          20          21          22          23          24
    1  -0.0264637  -0.0090947   0.0095568   0.0327231  -0.0152267   0.0025043
    2   0.0123307   0.0162416   0.0127635   0.0078552  -0.0118491  -0.0021879
    3  -0.0133025  -0.0032053   0.0010316   0.0042533   0.0251590   0.0019543
           25          26          27          28          29          30
    1  -0.0022548  -0.0023115  -0.0006314   0.0017198   0.0053519  -0.0031598
    2   0.0029497  -0.0174108  -0.0006534  -0.0040848  -0.0022150   0.0009234
    3   0.0012599  -0.0015807  -0.0057652   0.0010502  -0.0025884   0.0012330
           31          32          33          34          35          36
    1  -0.0064912  -0.0013895  -0.0027602  -0.0091541  -0.0134891  -0.0016505
    2  -0.0073411  -0.0093140   0.0238136   0.0286619   0.0064957  -0.0084745
    3   0.0039568  -0.0084163  -0.0194935   0.0085177   0.0094816   0.0120964
           37          38          39          40          41          42
    1   0.0138541  -0.0155430   0.0026886  -0.0023837   0.0007650   0.0024831
    2  -0.0253177  -0.0095720  -0.0022835   0.0031501   0.0027732  -0.0050253
    3   0.0136365  -0.0268120  -0.0014382  -0.0004578  -0.0005225  -0.0097017
           43          44          45          46          47          48
    1   0.0025620   0.0016478   0.0061258  -0.0030624  -0.0031231  -0.0006106
    2   0.0039844  -0.0015276  -0.0016322   0.0013303   0.0029738   0.0007208
    3   0.0033976  -0.0028500   0.0014612  -0.0007980  -0.0108471  -0.0027903
           49          50          51          52          53          54
    1  -0.0012831  -0.0015215   0.0000801   0.0023474   0.0030692   0.0012754
    2  -0.0023291   0.0024883  -0.0015517  -0.0012245   0.0137185  -0.0040798
    3   0.0014494  -0.0004365   0.0019112  -0.0000616   0.0083645  -0.0045867
           55          56
    1   0.0026873  -0.0044795
    2  -0.0008916  -0.0009632
    3  -0.0043619   0.0031049
 Max gradient component =       6.029E-02
 RMS gradient           =       1.557E-02
 Gradient time:  CPU 29.21 s  wall 0.62 s
 Geometry Optimization Parameters
   NAtoms,    NIC,     NZ,  NCons,   NDum,   NFix, NCnnct, MaxDiis
       56     458       0       9       0       0       0       0

 Cartesian Hessian Update
 Hessian Updated using BFGS Update


** CONSTRAINED OPTIMIZATION IN DELOCALIZED INTERNAL COORDINATES **
   Searching for a Minimum

   Optimization Cycle:   3

                       Coordinates (Angstroms)
     ATOM                X               Y               Z
      1  O         4.3620704980   -2.4740152188    1.0545080228
      2  C         3.6787166105   -1.5393247337    0.5817753163
      3  C         4.1119400061   -0.6451573643   -0.6038038577
      4  C         3.5240393504    0.8048295002   -0.6901553839
      5  C         2.7069149484    1.2975943846    0.5301010144
      6  O         1.5316426420    0.5466229016    0.6456560292
      7  C         0.5845336410    1.1312960993    1.5896613338
      8  C        -0.5847137768    0.1193199965    1.7737929723
      9  O        -1.8116137970    0.8343563208    2.0805481129
     10  C        -2.7621392437    0.8693550511    1.0343150020
     11  C        -3.3094579035   -0.5219447391    0.6109647020
     12  C        -4.6695904191   -0.5107133779   -0.1801751116
     13  C        -5.1890318381    0.8618082583   -0.6892372772
     14  O        -6.1392389251    1.0014874558   -1.4905922207
     15  O         2.2868410752   -1.6517232792    0.6540720034
     16  O        -5.0737582206    1.8465583165    0.3022071862
     17  O        -2.6284939811    1.7900393958    0.1954121808
     18  C        -5.7178332275    3.0988673824    0.0671776388
     19  C        -2.4763265293   -1.3299468944   -0.5096325036
     20  C        -2.8018428222   -2.8521226058   -0.3407614397
     21  C        -4.2432463935   -2.9169597084   -0.8925770613
     22  C        -4.4116827173   -1.4482678127   -1.3889156693
     23  O        -3.0878200171   -1.0240579573   -1.7844682027
     24  H        -3.3764352428   -1.1629640359    1.5119962758
     25  H        -5.4937349448   -0.8658412807    0.4726505601
     26  H        -1.3787858546   -1.2617997230   -0.5847146440
     27  H        -2.1385685991   -3.4063964096   -1.0319211051
     28  H        -2.6627275377   -3.2593164352    0.6765649556
     29  H        -4.2831157138   -3.6271038819   -1.7381067104
     30  H        -5.0153082674   -3.1819881725   -0.1483019659
     31  H        -5.1930945066   -1.3635015607   -2.1717102599
     32  O         3.0084528316    2.2549203782    1.2672610049
     33  C         1.7549872148   -2.6559609890    1.5192534377
     34  C         5.6495562641   -0.3290256844   -0.5506088450
     35  C         6.1506956922    0.0120367868   -1.9870150813
     36  C         5.5108688338    1.4072413125   -2.1948175296
     37  C         4.8516561775    1.6346809784   -0.7958077246
     38  O         5.7322395791    0.9485791193    0.1317656880
     39  H         3.8846621153   -1.2293463253   -1.5186192934
     40  H         2.8810102917    0.9397648287   -1.5830149072
     41  H         2.0440652394   -2.4798090003    2.5781100638
     42  H         6.2533651625   -1.1440761891   -0.1018952702
     43  H         7.2498099896    0.1242737901   -1.9366898982
     44  H         5.9021023534   -0.7402071505   -2.7564976747
     45  H         6.3104425558    2.1506607979   -2.3652298011
     46  H         4.7717864996    1.4654854975   -3.0138325689
     47  H         4.7005922964    2.7143929253   -0.5939478762
     48  H         2.0939881285   -3.6728802237    1.2214602245
     49  H         0.6512314909   -2.6163921981    1.4358980533
     50  H        -5.5065632159    3.7497031277    0.9382835534
     51  H        -6.8196322323    2.9798766077   -0.0320773476
     52  H        -5.3274529299    3.5910222471   -0.8498210853
     53  H        -0.6319928968   -0.3420783228    0.7879365151
     54  H        -0.3599368220   -0.6749085256    2.5161395625
     55  H         0.1775039847    2.0630525767    1.1346171387
     56  H         1.0350093500    1.3921620473    2.5725956414
   Point Group: c1    Number of degrees of freedom:   162


   Energy is  -1510.164774400

              Constraints and their Current Values
                                        Value     Constraint
   Dihedral:        1   2   3   4     -153.496     -153.487
   Dihedral:        3   4   5   6      -66.352      -66.316
   Dihedral:        4   5   6   7     -167.846     -167.860
   Dihedral:        5   6   7   8     -172.578     -172.573
   Dihedral:        6   7   8   9     -150.332     -150.358
   Dihedral:        7   8   9  10      107.586      107.592
   Dihedral:        8   9  10  11       62.753       62.761
   Dihedral:        9  10  11  12      160.593      160.537
   Dihedral:       11  12  13  14      169.066      169.028
 Hessian Updated using BFGS Update

   Using Lagrange Multiplier Algorithm


162 Hessian modes will be used to form the next step
  Hessian Eigenvalues:
    -0.977754   -0.977753   -0.977753   -0.977753   -0.977753   -0.977753
    -0.977753   -0.977193   -0.970970    0.044953    0.045000    0.045014
     0.045044    0.045445    0.045576    0.048423    0.048882    0.049237
     0.050752    0.052594    0.054325    0.058618    0.059635    0.061799
     0.062435    0.066292    0.067035    0.067564    0.068393    0.069385
     0.070283    0.070944    0.071353    0.074115    0.074523    0.076108
     0.076736    0.078151    0.082485    0.082547    0.083347    0.083958
     0.084157    0.084589    0.085880    0.086601    0.086690    0.087055
     0.087728    0.088265    0.088964    0.089087    0.089111    0.089574
     0.090291    0.090759    0.093709    0.095044    0.096625    0.098051
     0.111608    0.111852    0.114498    0.114517    0.115185    0.115777
     0.115816    0.115963    0.117281    0.119026    0.120107    0.121721
     0.123063    0.128208    0.130305    0.131230    0.142885    0.145483
     0.159797    0.160022    0.161397    0.171865    0.172035    0.173049
     0.175121    0.211642    0.218532    0.220727    0.221074    0.223485
     0.232247    0.236361    0.240657    0.249639    0.253386    0.257809
     0.263506    0.265173    0.267316    0.278473    0.282168    0.284813
     0.285576    0.296356    0.297253    0.299264    0.305704    0.309898
     0.310948    0.316184    0.319583    0.321117    0.321687    0.321833
     0.322345    0.322433    0.322612    0.322726    0.322936    0.322967
     0.323512    0.323659    0.323858    0.324010    0.324269    0.324599
     0.324758    0.324988    0.325008    0.325125    0.325790    0.326704
     0.327138    0.327551    0.333772    0.344261    0.369689    0.376784
     0.382491    0.391256    0.400199    0.406891    0.423544    0.467836
     0.486031    0.519974    0.520723    0.533891    0.535538    0.925471
     0.936947    0.942583    0.994125    1.022753    1.022753    1.022753
     1.022753    1.022753    1.022753    1.022753    1.028472    1.061894

 Minimum Search - Taking P-RFO Step
 Searching for Lamda that Maximizes Along the Constraint modes Only
 Value Taken    Lamda =   0.00100975
 Searching for Lamda that Minimizes Along All other modes
 Value Taken    Lamda =  -0.08025748
 Calculated Step too Large.  Step scaled by  0.477903
 Step Taken.  Stepsize is  0.300000

                             Maximum     Tolerance    Cnvgd?
         Gradient            0.050372       0.000300      NO
         Displacement        0.138221       0.001200      NO
         Energy change     -0.046797       0.000001      NO


 New Cartesian Coordinates Obtained by Inverse Iteration

 Displacement from previous Coordinates is:  2.395874
 Adding empirical dispersion correction 
 ----------------------------------------------------------------
 Doing -D3(op) with
 s6 =   1.00000
 s8 =   0.78311
 a1 =   0.30000
 a2 =   4.25000
 n  =  10.00000
 -D3 energy without 3body term =     -0.0657311241 hartrees
 ----------------------------------------------------------------
             Standard Nuclear Orientation (Angstroms)
    I     Atom           X                Y                Z
 ----------------------------------------------------------------
    1      O       4.5348553672    -2.5978780590     0.9505525544
    2      C       3.7898427848    -1.6778842418     0.5377169343
    3      C       4.1707125082    -0.6918576963    -0.6148349800
    4      C       3.5405095845     0.7644671607    -0.6914100254
    5      C       2.6881303635     1.2914363294     0.5122543626
    6      O       1.4972586547     0.5489800399     0.6546194171
    7      C       0.5641983816     1.2053573597     1.5836931403
    8      C      -0.6233917788     0.2093921468     1.8108892334
    9      O      -1.8484123252     0.9547537371     2.0917753017
   10      C      -2.8077738729     0.9522129461     1.0234045698
   11      C      -3.3841679910    -0.4543022634     0.6376943984
   12      C      -4.7487585509    -0.4634914684    -0.1690518460
   13      C      -5.3129108879     0.9016544992    -0.6948650275
   14      O      -6.2656499583     1.0021909108    -1.5044930962
   15      O       2.3931567387    -1.8674751530     0.6225349809
   16      O      -5.1879335615     1.9063450094     0.2958797401
   17      O      -2.7041418513     1.8758539919     0.1779037228
   18      C      -5.9001155496     3.1265214061    -0.0316751318
   19      C      -2.5194571042    -1.2567061661    -0.4663776058
   20      C      -2.8266838361    -2.7896908281    -0.2807079060
   21      C      -4.2705743693    -2.8826589510    -0.8522093086
   22      C      -4.4622175852    -1.4152185893    -1.3730028330
   23      O      -3.1250703649    -0.9676641005    -1.7649418197
   24      H      -3.4499072447    -1.0829787429     1.5448549930
   25      H      -5.5683119735    -0.8244256147     0.4847545358
   26      H      -1.4229755910    -1.1401954597    -0.5201063339
   27      H      -2.1428378814    -3.3445163235    -0.9469819246
   28      H      -2.6998151195    -3.1738176326     0.7451415222
   29      H      -4.2980318025    -3.6034557032    -1.6862579380
   30      H      -5.0421183307    -3.1486399363    -0.1105704163
   31      H      -5.2312616650    -1.3414615007    -2.1676380736
[...]
     15  O         3.3840225444   -0.8167913075    2.0402205072
     16  O        -5.5473371766    1.3096637223    0.9146623922
     17  O        -3.1689260914    1.8844179911    0.0853075925
     18  C        -6.5041125421    2.4022210987    1.1991111421
     19  C        -2.5741089100   -1.2438223285   -0.9273348444
     20  C        -3.1816327690   -2.6178143868   -1.4315952710
     21  C        -4.2650281097   -2.1256186807   -2.4618334651
     22  C        -4.2418001511   -0.5789427371   -2.1631616941
     23  O        -2.7906344835   -0.3050344612   -2.0516773417
     24  H        -3.6671947872   -1.2454962088    1.0849971876
     25  H        -5.4692814509   -1.2559354845   -0.4744174791
     26  H        -1.4964353588   -1.2973988717   -0.6909197558
     27  H        -2.4033138819   -3.2289693932   -1.9148480274
     28  H        -3.6189362262   -3.1984543725   -0.6033485923
     29  H        -3.9495196728   -2.3205795833   -3.4995175925
     30  H        -5.2556714032   -2.5785434261   -2.2979200882
     31  H        -4.7154487133    0.0747050123   -2.9210323322
     32  O         2.9497150492    2.0710036818    1.1949098298
     33  C         3.5740764808   -1.2104620143    3.4545026617
     34  C         5.6274305535   -0.9270661641   -0.8376292033
     35  C         5.6357205999   -0.6214317906   -2.3882866493
     36  C         5.2719389634    0.9107844343   -2.4089014054
     37  C         4.9509978713    1.1492795527   -0.8837499271
     38  O         6.0077146728    0.3612105539   -0.2065154356
     39  H         3.5590287734   -1.8492040572   -0.8741465711
     40  H         2.9668370823    0.3509848004   -1.4722741046
     41  H         4.6161668475   -1.0320508892    3.7891567034
     42  H         6.3044293414   -1.7381723279   -0.5048557703
     43  H         6.6336943324   -0.8097847794   -2.8142325706
     44  H         4.9003554972   -1.2379733576   -2.9301670278
     45  H         6.1340342127    1.5229994276   -2.7189144364
     46  H         4.4172172757    1.1419791924   -3.0643627509
     47  H         4.9630387952    2.2008002565   -0.5359203779
     48  H         3.3284180114   -2.2800709754    3.6152673357
     49  H         2.8818296385   -0.5774040316    4.0395758127
     50  H        -6.3659396330    2.6568102885    2.2659821732
     51  H        -7.5521021465    2.0845146116    1.0219472261
     52  H        -6.2958662046    3.2958829930    0.5761604981
     53  H        -0.7406490520   -0.6681111240    0.7732646310
     54  H        -0.6021658026   -0.5593088656    2.5547915433
     55  H         0.1541582216    1.9326338632    0.9195250031
     56  H         0.9194052795    1.3135608242    2.4245430086
   Point Group: c1    Number of degrees of freedom:   162


   Energy is  -1510.243747652

              Constraints and their Current Values
                                        Value     Constraint
   Dihedral:        1   2   3   4     -153.487     -153.487
   Dihedral:        3   4   5   6      -66.316      -66.316
   Dihedral:        4   5   6   7     -167.860     -167.860
   Dihedral:        5   6   7   8     -172.573     -172.573
   Dihedral:        6   7   8   9     -150.358     -150.358
   Dihedral:        7   8   9  10      107.592      107.592
   Dihedral:        8   9  10  11       62.761       62.761
   Dihedral:        9  10  11  12      160.537      160.537
   Dihedral:       11  12  13  14      169.028      169.028
 Hessian Updated using BFGS Update

153 Hessian modes will be used to form the next step
  Hessian Eigenvalues:
     0.003507    0.006153    0.008262    0.017575    0.026337    0.044004
     0.045010    0.045242    0.045672    0.046146    0.049108    0.051353
     0.055164    0.057209    0.059389    0.060836    0.062836    0.065843
     0.067170    0.067340    0.068018    0.070099    0.070355    0.071599
     0.074023    0.074910    0.076092    0.076231    0.077390    0.078773
     0.082563    0.082736    0.083979    0.084627    0.085013    0.085912
     0.086736    0.087080    0.087523    0.087826    0.088298    0.088599
     0.089093    0.089178    0.089881    0.090541    0.091985    0.092654
     0.094266    0.095831    0.096681    0.099027    0.111624    0.112137
     0.114570    0.114767    0.115540    0.115835    0.115967    0.118029
     0.119594    0.121163    0.121937    0.123007    0.123543    0.130721
     0.132864    0.140275    0.158116    0.159755    0.160052    0.160108
     0.160345    0.160518    0.160978    0.162420    0.173556    0.175180
     0.196042    0.202475    0.219079    0.222501    0.226247    0.228062
     0.230308    0.236069    0.241666    0.249627    0.250902    0.252472
     0.256338    0.259352    0.266039    0.266983    0.267344    0.277601
     0.278944    0.282219    0.284489    0.291117    0.294616    0.296436
     0.297812    0.301504    0.304477    0.309914    0.313228    0.320152
     0.321511    0.321728    0.321906    0.322332    0.322621    0.322702
     0.322849    0.322975    0.323000    0.323631    0.323745    0.323899
     0.324122    0.324320    0.324618    0.324791    0.324997    0.325018
     0.325131    0.325654    0.326760    0.326905    0.327972    0.331344
     0.343630    0.367569    0.370910    0.371824    0.379434    0.397780
     0.406926    0.418361    0.449910    0.475369    0.487038    0.511549
     0.521437    0.527780    0.535915    0.594290    0.675170    0.926375
     0.939255    0.944388    1.048191

 Minimum Search - Taking Simple RFO Step
 Searching for Lamda that Minimizes Along All modes
 Value Taken    Lamda =   0.00000000
 Step Taken.  Stepsize is  0.004057

                             Maximum     Tolerance    Cnvgd?
         Gradient           0.000116      0.000300     YES
         Displacement       0.001050      0.001200     YES
         Energy change     -0.000001      0.000001     YES

 Final energy is   -1510.24374765238     


 ******************************
 **  OPTIMIZATION CONVERGED  **
 ******************************

                       Coordinates (Angstroms)
     ATOM                X               Y               Z
      1  O         5.0587646662   -2.4238282936    1.6181052836
      2  C         4.2630824235   -1.5572091595    1.1937392751
      3  C         4.1390477307   -1.0954153858   -0.3105614384
      4  C         3.6016345763    0.3726084363   -0.5668451814
      5  C         2.7154642683    1.0274356812    0.5503318696
      6  O         1.4893111222    0.2822540874    0.6242388020
      7  C         0.4933447299    1.0115844535    1.4445429786
      8  C        -0.7314245016    0.0359316990    1.6252690844
      9  O        -1.9692831502    0.8238168850    1.7658046004
     10  C        -2.8683070257    0.8004717792    0.6283464246
     11  C        -3.5051285137   -0.5951672094    0.2077621196
     12  C        -4.7981105856   -0.4004017836   -0.6860587411
     13  C        -5.7132725764    0.8511116933   -0.4323615448
     14  O        -6.6426623950    1.2299547157   -1.1789001928
     15  O         3.3840225444   -0.8167913075    2.0402205072
     16  O        -5.5473371766    1.3096637223    0.9146623922
     17  O        -3.1689260914    1.8844179911    0.0853075925
     18  C        -6.5041125421    2.4022210987    1.1991111421
     19  C        -2.5741089100   -1.2438223285   -0.9273348444
     20  C        -3.1816327690   -2.6178143868   -1.4315952710
     21  C        -4.2650281097   -2.1256186807   -2.4618334651
     22  C        -4.2418001511   -0.5789427371   -2.1631616941
     23  O        -2.7906344835   -0.3050344612   -2.0516773417
     24  H        -3.6671947872   -1.2454962088    1.0849971876
     25  H        -5.4692814509   -1.2559354845   -0.4744174791
     26  H        -1.4964353588   -1.2973988717   -0.6909197558
     27  H        -2.4033138819   -3.2289693932   -1.9148480274
     28  H        -3.6189362262   -3.1984543725   -0.6033485923
     29  H        -3.9495196728   -2.3205795833   -3.4995175925
     30  H        -5.2556714032   -2.5785434261   -2.2979200882
     31  H        -4.7154487133    0.0747050123   -2.9210323322
     32  O         2.9497150492    2.0710036818    1.1949098298
     33  C         3.5740764808   -1.2104620143    3.4545026617
     34  C         5.6274305535   -0.9270661641   -0.8376292033
     35  C         5.6357205999   -0.6214317906   -2.3882866493
     36  C         5.2719389634    0.9107844343   -2.4089014054
     37  C         4.9509978713    1.1492795527   -0.8837499271
     38  O         6.0077146728    0.3612105539   -0.2065154356
     39  H         3.5590287734   -1.8492040572   -0.8741465711
     40  H         2.9668370823    0.3509848004   -1.4722741046
     41  H         4.6161668475   -1.0320508892    3.7891567034
     42  H         6.3044293414   -1.7381723279   -0.5048557703
     43  H         6.6336943324   -0.8097847794   -2.8142325706
     44  H         4.9003554972   -1.2379733576   -2.9301670278
     45  H         6.1340342127    1.5229994276   -2.7189144364
     46  H         4.4172172757    1.1419791924   -3.0643627509
     47  H         4.9630387952    2.2008002565   -0.5359203779
     48  H         3.3284180114   -2.2800709754    3.6152673357
     49  H         2.8818296385   -0.5774040316    4.0395758127
     50  H        -6.3659396330    2.6568102885    2.2659821732
     51  H        -7.5521021465    2.0845146116    1.0219472261
     52  H        -6.2958662046    3.2958829930    0.5761604981
     53  H        -0.7406490520   -0.6681111240    0.7732646310
     54  H        -0.6021658026   -0.5593088656    2.5547915433
     55  H         0.1541582216    1.9326338632    0.9195250031
     56  H         0.9194052795    1.3135608242    2.4245430086

Z-matrix Print:
$molecule
0 1
O 
C  1 1.436736
O  2 1.248755 1 124.539905
C  1 1.482151 2 110.287514 3 6.646788 0
H  4 1.110458 1 111.372268 2 -51.020188 0
H  4 1.113114 1 110.541532 2 68.980776 0
C  2 1.569134 1 107.586949 3 -174.506766 0
H  7 1.106000 2 105.478185 1 54.115059 0
C  4 1.576268 1 106.320289 2 -172.572943 0
H  9 1.105293 4 108.202011 1 -25.592905 0
H  9 1.111320 4 109.697315 1 91.679527 0
O  9 1.474045 4 109.426527 1 -150.358055 0
C  12 1.450034 9 115.929536 4 107.592053 0
O  13 1.249081 12 118.442714 9 -121.760470 0
C  7 1.584168 2 117.589054 1 -66.315980 0
H  15 1.105553 7 111.800893 2 102.577285 0
C  15 1.578467 7 116.868429 2 -24.160677 0
O  17 1.250690 15 125.174730 7 -153.486965 0
O  17 1.427409 15 111.408131 7 24.011772 0
C  19 1.480301 17 110.460271 15 -176.683609 0
H  20 1.105567 19 105.838994 17 178.545338 0
H  20 1.108953 19 111.480152 17 59.361890 0
H  20 1.109169 19 111.499697 17 -62.243437 0
C  15 1.587900 7 99.557271 2 -137.516300 0
H  24 1.107682 15 113.298941 7 163.596257 0
O  24 1.484108 15 101.014506 7 45.337279 0
C  26 1.482009 24 94.850720 15 -60.848094 0
H  27 1.107622 26 110.705749 24 176.697553 0
C  27 1.576696 26 102.501036 24 -58.464731 0
H  29 1.101649 27 112.697083 26 161.306707 0
H  29 1.101873 27 110.326399 26 -76.801067 0
C  29 1.574944 27 100.457981 26 40.751830 0
H  32 1.101298 29 111.754820 27 -124.488272 0
H  32 1.102052 29 112.563594 27 112.996484 0
C  13 1.590673 12 118.018161 9 62.760982 0
H  35 1.103963 13 111.439977 12 32.303358 0
C  35 1.583872 13 111.601027 12 160.536968 0
H  37 1.107791 35 106.966504 13 -148.991231 0
C  37 1.571041 35 118.839904 13 -32.617078 0
O  39 1.250843 37 125.289716 35 169.028015 0
O  39 1.432577 37 109.837509 35 -24.547876 0
C  41 1.479869 39 110.008598 37 -174.400541 0
H  42 1.105496 41 105.944750 39 176.316742 0
H  42 1.109083 41 111.439860 39 -64.717082 0
H  42 1.109327 41 111.631878 39 56.868787 0
C  37 1.588456 35 103.005505 13 97.703195 0
H  46 1.107234 37 114.854764 35 -143.805077 0
O  46 1.480992 37 104.618383 35 -21.626963 0
C  48 1.480659 46 94.771862 37 51.168085 0
H  49 1.104601 48 109.630080 46 175.087273 0
C  46 1.575421 37 106.348370 35 86.010586 0
H  51 1.101536 46 112.875016 37 54.249960 0
H  51 1.101973 46 110.364580 37 176.438832 0
C  51 1.573974 46 99.948593 37 -66.221695 0
H  54 1.101283 51 111.887038 46 -127.247724 0
H  54 1.101984 51 112.555255 46 110.219637 0
$end

 
 --------------------------------------------------------------
 
                    Orbital Energies (a.u.)
 --------------------------------------------------------------
 
 Alpha MOs
 -- Occupied --
-18.944 -18.932 -18.924 -18.911 -18.894 -18.894 -18.884 -18.876
-18.870 -18.870 -10.106 -10.103 -10.099 -10.099 -10.077 -10.070
-10.068 -10.067 -10.064 -10.061 -10.058 -10.056 -10.044 -10.041
-10.040 -10.035 -10.027 -10.024 -10.020 -10.019  -1.018  -1.011
 -1.005  -1.001  -0.977  -0.969  -0.940  -0.939  -0.932  -0.930
 -0.767  -0.763  -0.727  -0.724  -0.710  -0.708  -0.697  -0.666
 -0.660  -0.612  -0.602  -0.586  -0.549  -0.545  -0.543  -0.537
 -0.521  -0.509  -0.490  -0.478  -0.464  -0.460  -0.453  -0.446
 -0.442  -0.435  -0.427  -0.417  -0.412  -0.411  -0.407  -0.400
 -0.394  -0.387  -0.374  -0.372  -0.369  -0.361  -0.356  -0.349
 -0.345  -0.339  -0.337  -0.329  -0.328  -0.323  -0.322  -0.316
 -0.311  -0.311  -0.307  -0.299  -0.296  -0.294  -0.292  -0.279
 -0.271  -0.252  -0.251  -0.244  -0.241  -0.233  -0.232  -0.184
 -0.174  -0.170  -0.166  -0.158  -0.153  -0.151  -0.148  -0.147
 -0.143
 -- Virtual --
  0.080   0.096   0.103   0.109   0.210   0.232   0.238   0.253
  0.255   0.271   0.272   0.285   0.299   0.307   0.316   0.325
  0.330   0.330   0.333   0.341   0.345   0.351   0.365   0.367
  0.376   0.378   0.380   0.381   0.391   0.398   0.400   0.405
  0.411   0.418   0.419   0.419   0.426   0.427   0.431   0.435
  0.437   0.439   0.442   0.444   0.445   0.447   0.448   0.458
  0.467   0.480   0.484   0.491   0.506   0.510   0.521   0.532
  0.541   0.555   0.574   0.619   0.630   0.641   0.651
 --------------------------------------------------------------
 
          Ground-State Mulliken Net Atomic Charges

     Atom                 Charge (a.u.)
  ----------------------------------------
      1 O                    -0.214324
      2 C                     0.212478
      3 C                    -0.075826
      4 C                    -0.081697
      5 C                     0.219731
      6 O                    -0.179052
      7 C                    -0.048293
      8 C                    -0.045271
      9 O                    -0.191927
     10 C                     0.223678
     11 C                    -0.080650
     12 C                    -0.078739
     13 C                     0.213568
     14 O                    -0.216933
     15 O                    -0.166224
     16 O                    -0.169924
     17 O                    -0.179965
     18 C                    -0.127085
     19 C                     0.022558
     20 C                    -0.145993
     21 C                    -0.140976
     22 C                     0.025398
     23 O                    -0.189919
     24 H                     0.085218
     25 H                     0.083314
     26 H                     0.077170
     27 H                     0.078373
     28 H                     0.073685
     29 H                     0.078918
     30 H                     0.075405
     31 H                     0.091861
     32 O                    -0.215418
     33 C                    -0.126024
     34 C                     0.023582
     35 C                    -0.145661
     36 C                    -0.142018
     37 C                     0.022762
     38 O                    -0.192180
     39 H                     0.084997
     40 H                     0.083135
     41 H                     0.094213
     42 H                     0.089229
     43 H                     0.078593
     44 H                     0.072879
     45 H                     0.078283
     46 H                     0.073403
     47 H                     0.090296
     48 H                     0.089515
     49 H                     0.091761
     50 H                     0.090832
     51 H                     0.088453
     52 H                     0.091699
     53 H                     0.085693
     54 H                     0.083596
     55 H                     0.089431
     56 H                     0.090391
  ----------------------------------------
  Sum of atomic charges =    -0.000000

 -----------------------------------------------------------------
                    Cartesian Multipole Moments
 -----------------------------------------------------------------
    Charge (ESU x 10^10)
                 0.0000
    Dipole Moment (Debye)
         X      -1.3646      Y      -3.4333      Z      -0.0381
       Tot       3.6947
    Quadrupole Moments (Debye-Ang)
        XX    -172.1833     XY       7.4344     YY    -162.3070
        XZ     -13.8613     YZ       1.2357     ZZ    -154.0072
    Octopole Moments (Debye-Ang^2)
       XXX    -100.7723    XXY     -10.4055    XYY     -40.0370
       YYY      24.2128    XXZ       7.0159    XYZ     -20.7121
       YYZ      -3.8241    XZZ      26.6982    YZZ      -4.0333
       ZZZ      42.6285
    Hexadecapole Moments (Debye-Ang^3)
      XXXX  -18248.8966   XXXY     608.1973   XXYY   -3232.2617
      XYYY     503.2433   YYYY   -1934.1133   XXXZ    -996.5640
      XXYZ     118.8475   XYYZ    -194.8194   YYYZ    -154.6598
      XXZZ   -3266.1935   XYZZ     160.4903   YYZZ    -737.9007
      XZZZ    -227.5021   YZZZ    -184.4633   ZZZZ   -2428.8663
 -----------------------------------------------------------------
Archival summary:
1\1\vega02.cac.cornell.edu\OPT\ProcedureUnspecified\STO-3G\102026\jj585\SatJan1309:17:262018SatJan1309:17:262018\0\\#,OPT,ProcedureUnspecified,STO-3G,\\0,1\O\C,1,1.43674\O,2,1.24875,1,124.54\C,1,1.48215,2,110.288,3,6.64679,0\H,4,1.11046,1,111.372,2,-51.0202,0\H,4,1.11311,1,110.542,2,68.9808,0\C,2,1.56913,1,107.587,3,-174.507,0\H,7,1.106,2,105.478,1,54.1151,0\C,4,1.57627,1,106.32,2,-172.573,0\H,9,1.10529,4,108.202,1,-25.5929,0\H,9,1.11132,4,109.697,1,91.6795,0\O,9,1.47404,4,109.427,1,-150.358,0\C,12,1.45003,9,115.93,4,107.592,0\O,13,1.24908,12,118.443,9,-121.76,0\C,7,1.58417,2,117.589,1,-66.316,0\H,15,1.10555,7,111.801,2,102.577,0\C,15,1.57847,7,116.868,2,-24.1607,0\O,17,1.25069,15,125.175,7,-153.487,0\O,17,1.42741,15,111.408,7,24.0118,0\C,19,1.4803,17,110.46,15,-176.684,0\H,20,1.10557,19,105.839,17,178.545,0\H,20,1.10895,19,111.48,17,59.3619,0\H,20,1.10917,19,111.5,17,-62.2434,0\C,15,1.5879,7,99.5573,2,-137.516,0\H,24,1.10768,15,113.299,7,163.596,0\O,24,1.48411,15,101.015,7,45.3373,0\C,26,1.48201,24,94.8507,15,-60.8481,0\H,27,1.10762,26,110.706,24,176.698,0\C,27,1.5767,26,102.501,24,-58.4647,0\H,29,1.10165,27,112.697,26,161.307,0\H,29,1.10187,27,110.326,26,-76.8011,0\C,29,1.57494,27,100.458,26,40.7518,0\H,32,1.1013,29,111.755,27,-124.488,0\H,32,1.10205,29,112.564,27,112.996,0\C,13,1.59067,12,118.018,9,62.761,0\H,35,1.10396,13,111.44,12,32.3034,0\C,35,1.58387,13,111.601,12,160.537,0\H,37,1.10779,35,106.967,13,-148.991,0\C,37,1.57104,35,118.84,13,-32.6171,0\O,39,1.25084,37,125.29,35,169.028,0\O,39,1.43258,37,109.838,35,-24.5479,0\C,41,1.47987,39,110.009,37,-174.401,0\H,42,1.1055,41,105.945,39,176.317,0\H,42,1.10908,41,111.44,39,-64.7171,0\H,42,1.10933,41,111.632,39,56.8688,0\C,37,1.58846,35,103.006,13,97.7032,0\H,46,1.10723,37,114.855,35,-143.805,0\O,46,1.48099,37,104.618,35,-21.627,0\C,48,1.48066,46,94.7719,37,51.1681,0\H,49,1.1046,48,109.63,46,175.087,0\C,46,1.57542,37,106.348,35,86.0106,0\H,51,1.10154,46,112.875,37,54.25,0\H,51,1.10197,46,110.365,37,176.439,0\C,51,1.57397,46,99.9486,37,-66.2217,0\H,54,1.10128,51,111.887,46,-127.248,0\H,54,1.10198,51,112.555,46,110.22,0\\\@

 Total job time:  86.14s(wall), 4100.27s(cpu) 
 Sat Jan 13 09:17:26 2018

        *************************************************************
        *                                                           *
        *  Thank you very much for using Q-Chem.  Have a nice day.  *
        *                                                           *
        *************************************************************


0 sent ACK to 0 
now end server 0 ... 
