mFile = /opt/software/qchem/qchem-5.0.1//bin/mpi/machines
Process 0 of 1 is on vega02.cac.cornell.edu - thread support 0
initial socket setup ...start
initial socket setup ...done 
now start server 0 ... 
vega02.cac.cornell.edu 10.84.3
Q-Chem Developer Version! Running on 10.84.3.*
                  Welcome to Q-Chem
     A Quantum Leap Into The Future Of Chemistry


 Q-Chem 5.0, Q-Chem, Inc., Pleasanton, CA (2017)

 Yihan Shao,  Zhengting Gan,  E. Epifanovsky,  A. T. B. Gilbert,  M. Wormit,  
 J. Kussmann,  A. W. Lange,  A. Behn,  Jia Deng,  Xintian Feng,  D. Ghosh,  
 M. Goldey,  P. R. Horn,  L. D. Jacobson,  I. Kaliman,  T. Kus,  A. Landau,  
 Jie Liu,  E. I. Proynov,  R. M. Richard,  R. P. Steele,  E. J. Sundstrom,  
 H. L. Woodcock III,  P. M. Zimmerman,  D. Zuev,  B. Albrecht,  E. Alguire,  
 S. A. Baeppler,  Z. Benda,  Y. A. Bernard,  E. J. Berquist,  K. B. Bravaya,  
 D. Casanova,  Chun-Min Chang,  Yunqing Chen,  A. Chien,  K. D. Closser,  
 M. P. Coons,  S. Dasgupta,  M. Diedenhofen,  Hainam Do,  R. G. Edgar,  
 Po-Tung Fang,  S. Fatehi,  Qingguo Feng,  Qinghui Ge,  A. Ghysels,  
 J. Gomes,  J. Gonthier,  A. Gunina,  M. W. D. Hanson-Heine,  
 P. H. P. Harbach,  A. W. Hauser,  J. E. Herr,  E. G. Hohenstein,  
 Z. C. Holden,  Kerwin Hui,  T.-C. Jagau,  Hyunjun Ji,  B. Kaduk,  
 K. Khistyaev,  Jaehoon Kim,  P. Klunzinger,  K. Koh,  D. Kosenkov,  
 T. Kowalczyk,  C. M. Krauter,  A. Kunitsa,  Ka Un Lao,  A. Laurent,  
 K. V. Lawler,  Joonho Lee,  D. Lefrancois,  S. Lehtola,  D. S. Levine,  
 Yi-Pei Li,  You-Sheng Lin,  Fenglai Liu,  E. Livshits,  A. Luenser,  
 P. Manohar,  E. Mansoor,  S. F. Manzer,  Shan-Ping Mao,  Yuezhi Mao,  
 N. Mardirossian,  A. V. Marenich,  L. A. Martinez-Martinez,  S. A. Maurer,  
 N. J. Mayhall,  S. C. McKenzie,  J.-M. Mewes,  A. F. Morrison,  K. Nanda,  
 T. S. Nguyen-Beck,  R. Olivares-Amaya,  J. A. Parkhill,  T. M. Perrine,  
 F. Plasser,  S. Prager,  A. Prociuk,  D. R. Rehn,  F. Rob,  M. Schneider,  
 N. Sergueev,  S. M. Sharada,  S. Sharma,  D. W. Small,  T. Stauch,  
 T. Stein,  Yu-Chuan Su,  A. J. W. Thom,  T. Tsuchimochi,  L. Vogt,  
 O. Vydrov,  M. A. Watson,  J. Wenzel,  M. de Wergifosse,  T. A. Wesolowski,  
 A. White,  J. Witte,  A. Yamada,  Jun Yang,  K. Yao,  S. Yeganeh,  
 S. R. Yost,  Zhi-Qiang You,  A. Zech,  Igor Ying Zhang,  Xing Zhang,  
 Yan Zhao,  Ying Zhu,  B. R. Brooks,  G. K. L. Chan,  C. J. Cramer,  
 M. S. Gordon,  W. J. Hehre,  A. Klamt,  M. W. Schmidt,  C. D. Sherrill,  
 D. G. Truhlar,  A. Aspuru-Guzik,  R. Baer,  A. T. Bell,  N. A. Besley,  
 Jeng-Da Chai,  A. Dreuw,  B. D. Dunietz,  T. R. Furlani,  Chao-Ping Hsu,  
 Yousung Jung,  Jing Kong,  D. S. Lambrecht,  WanZhen Liang,  C. Ochsenfeld,  
 V. A. Rassolov,  L. V. Slipchenko,  J. E. Subotnik,  T. Van Voorhis,  
 J. M. Herbert,  A. I. Krylov,  P. M. W. Gill,  M. Head-Gordon

 Contributors to earlier versions of Q-Chem not listed above: 
 R. D. Adamson,  B. Austin,  J. Baker,  G. J. O. Beran,  K. Brandhorst,  
 S. T. Brown,  E. F. C. Byrd,  A. K. Chakraborty,  C.-L. Cheng,  
 Siu Hung Chien,  D. M. Chipman,  D. L. Crittenden,  H. Dachsel,  
 R. A. DiStasio Jr.,  R. J. Doerksen,  A. D. Dutoi,  L. Fusti-Molnar,  
 W. A. Goddard III,  A. Golubeva-Zadorozhnaya,  S. R. Gwaltney,  G. Hawkins,  
 A. Heyden,  S. Hirata,  G. Kedziora,  F. J. Keil,  C. Kelley,  Jihan Kim,  
 R. A. King,  R. Z. Khaliullin,  P. P. Korambath,  W. Kurlancheek,  
 A. M. Lee,  M. S. Lee,  S. V. Levchenko,  Ching Yeh Lin,  D. Liotard,  
 R. C. Lochan,  I. Lotan,  P. E. Maslen,  N. Nair,  D. P. O'Neill,  
 D. Neuhauser,  E. Neuscamman,  C. M. Oana,  R. Olson,  B. Peters,  
 R. Peverati,  P. A. Pieniazek,  Y. M. Rhee,  J. Ritchie,  M. A. Rohrdanz,  
 E. Rosta,  N. J. Russ,  H. F. Schaefer III,  N. E. Schultz,  N. Shenvi,  
 A. C. Simmonett,  A. Sodt,  D. Stuck,  K. S. Thanthiriwatte,  V. Vanovschi,  
 Tao Wang,  A. Warshel,  C. F. Williams,  Q. Wu,  X. Xu,  W. Zhang

 Please cite Q-Chem as follows:
 Y. Shao et al., Mol. Phys. 113, 184-215 (2015)
 DOI: 10.1080/00268976.2014.952696

 Q-Chem 5.0.1 for Intel X86 EM64T Linux

 Parts of Q-Chem use Armadillo 5.200.1 (Boston Tea Smuggler).
 http://arma.sourceforge.net/

 Q-Chem begins on Sat Jan 13 11:08:52 2018  

Host: vega02.cac.cornell.edu
0

     Scratch files written to /scratch/jj585/SOT1001/0065r.save//
 Parallel job on  1  processors

Checking the input file for inconsistencies... 	...done.

--------------------------------------------------------------
User input:
--------------------------------------------------------------
$molecule
0  1
O -4.1196487136 1.7517782779 1.2558538077
C -3.9776274226 1.5308367806 0.0338395092
C -4.3548036402 0.2348922592 -0.7620726459
C -3.2848326816 -0.9298769865 -0.6015433203
C -2.1873543683 -0.6174964783 0.4773498644
O -1.4393623282 0.5209344152 0.0436665896
C -0.3684309369 0.8170521589 1.0266050054
C 0.4319389106 2.07437827 0.5312601214
O 1.8454564643 1.8695414794 0.9332176932
C 2.5089167831 1.0714326929 -0.0617085669
C 4.0015284379 0.9119162671 0.3633475291
C 4.4484797195 -0.5983581944 0.5602119723
C 3.3527926489 -1.721886644 0.4272785712
O 3.5641906305 -2.8754376248 -0.0058810757
O -3.4479214462 2.4823541898 -0.8984391757
O 2.0926593474 -1.3144663147 0.9850153609
O 1.9662375126 0.667507791 -1.1124843799
C 1.1333766082 -2.4486674513 0.9031503005
C 4.962352702 1.3404881097 -0.8313267271
C 6.4303480791 1.492196927 -0.2668803369
C 6.8565120322 -0.0153016496 -0.1163907912
C 5.5400124223 -0.7495927262 -0.5816103501
O 5.0262398455 0.1200625051 -1.6654349362
H 4.1745476703 1.5068394132 1.2767338426
H 4.9087694468 -0.7253586107 1.5587052016
H 4.5932211145 2.1975201637 -1.4272308345
H 7.0684906956 2.0242119353 -0.9901041459
H 6.449510981 2.0382844802 0.6897947455
H 7.6923048891 -0.2664496556 -0.7887468091
H 7.1417102885 -0.2783671609 0.9147530645
H 5.6633948252 -1.7908351466 -0.9388740251
O -1.9200517319 -1.2799477281 1.5046489825
C -3.0278535192 3.7079585692 -0.1826137425
C -5.658945913 -0.4858722287 -0.2087972354
C -6.1929403074 -1.44699342 -1.3419414919
C -5.1222712481 -2.6009625669 -1.2861275445
C -4.2059358662 -2.1130438296 -0.0963155961
O -5.1456680139 -1.4211084976 0.8172769785
H -4.4656577598 0.5126823602 -1.8249732646
H -2.7847656056 -1.1493466852 -1.5625075069
H -2.2857785328 3.4807935073 0.6090679679
H -6.4105062505 0.1968376856 0.2327357954
H -7.1982801526 -1.8184663822 -1.0867671177
H -6.2367327972 -0.9521648855 -2.3251903312
H -5.5841262335 -3.5714662609 -1.0454877077
H -4.5579186331 -2.7015479359 -2.2271576191
H -3.656085225 -2.9055732033 0.4473448142
H -3.8908094041 4.2262313612 0.2839478763
H -2.5692814234 4.3657786605 -0.9435845706
H 0.1863754013 -2.0996615706 1.3619115082
H 1.5133353592 -3.334887067 1.449466858
H 0.9471172906 -2.7371276964 -0.1509832717
H 0.3412544184 2.1569079301 -0.5731786652
H 0.0912477239 3.0079991449 1.0187719097
H 0.3505451228 -0.026671777 1.0948322832
H -0.802247257 0.9859608493 2.0351196072
$end

$rem
JOBTYPE                   OPT
METHOD                    B3LYP
DFT_D                     d3_op
BASIS                     STO-3G
GEOM_OPT_MAX_CYCLES       100
GEOM_OPT_TOL_GRADIENT     300
GEOM_OPT_TOL_DISPLACEMENT 1200
GEOM_OPT_TOL_ENERGY       100
SYMMETRY                  False
THRESH                    12
SCF_CONVERGENCE           8
MAX_SUB_FILE_NUM          128
MEM_STATIC                400
MEM_TOTAL                 4000
$end
--------------------------------------------------------------
 Adding empirical dispersion correction 
 ----------------------------------------------------------------
 Doing -D3(op) with
 s6 =   1.00000
 s8 =   0.78311
 a1 =   0.30000
 a2 =   4.25000
 n  =  10.00000
 -D3 energy without 3body term =     -0.0693502017 hartrees
 ----------------------------------------------------------------
             Standard Nuclear Orientation (Angstroms)
    I     Atom           X                Y                Z
 ----------------------------------------------------------------
    1      O      -4.0352466255     1.8560163741     1.2988914812
    2      C      -3.9085491268     1.6406519701     0.0741996606
    3      C      -4.3319560093     0.3638076394    -0.7292960937
    4      C      -3.2983624877    -0.8354849225    -0.5855021596
    5      C      -2.1842802301    -0.5667635336     0.4881180118
    6      O      -1.4035431676     0.5509366321     0.0582411072
    7      C      -0.3171568990     0.8050248062     1.0359689667
    8      C       0.5192807903     2.0404024481     0.5450092226
    9      O       1.9282810572     1.7876999381     0.9354187054
   10      C       2.5593924691     0.9771366516    -0.0704247403
   11      C       4.0490370159     0.7670409297     0.3428870533
   12      C       4.4492375219    -0.7581657015     0.5246404398
   13      C       3.3176347289    -1.8453618132     0.3904862137
   14      O       3.4894531674    -3.0014557866    -0.0532720544
   15      O      -3.3552710193     2.5825015117    -0.8541968735
   16      O       2.0748349863    -1.4028491260     0.9602483661
   17      O       1.9971078409     0.5991454495    -1.1205411977
   18      C       1.0795716043    -2.5054418025     0.8761194747
   19      C       5.0148689018     1.1747265156    -0.8550548904
   20      C       6.4907106906     1.2753334965    -0.2997216845
   21      C       6.8699096365    -0.2460637181    -0.1641729786
   22      C       5.5276978794    -0.9345412122    -0.6259631746
   23      O       5.0344285054    -0.0402766004    -1.6992359006
   24      H       4.2469788542     1.3487375881     1.2597249825
   25      H       4.9120032367    -0.9077853855     1.5188468123
   26      H       4.6690586916     2.0478274321    -1.4415477412
   27      H       7.1404900986     1.7927728236    -1.0231592490
   28      H       6.5336220713     1.8127337597     0.6610933946
   29      H       7.6927684860    -0.5180345172    -0.8443368071
   30      H       7.1535856589    -0.5264045985     0.8628304610
   31      H       5.6156172205    -1.9762210745    -0.9923230832
   32      O      -1.9311688781    -1.2456798908     1.5082371515
   33      C      -2.8917639690     3.7883389140    -0.1316412823
   34      C      -5.6545124884    -0.3198346773    -0.1726276671
   35      C      -6.2263247722    -1.2543289328    -1.3095845977
   36      C      -5.1923983088    -2.4419965569    -1.2704194831
   37      C      -4.2530540865    -1.9930051814    -0.0832266278
   38      O      -5.1642050061    -1.2791594551     0.8423816512
   39      H      -4.4411272975     0.6536102837    -1.7891591785
   40      H      -2.8119980950    -1.0628270420    -1.5516550643
   41      H      -2.1519302530     3.5313806898     0.6529973129
   42      H      -6.3810694927     0.3826835825     0.2795561445
   43      H      -7.2411826012    -1.5958881454    -1.0503256180
   44      H      -6.2610561397    -0.7503729978    -2.2885501172
   45      H      -5.6831317964    -3.3993361395    -1.0342488958
   46      H      -4.6378812946    -2.5527130770    -2.2161475756
   47      H      -3.7249289154    -2.8069275757     0.4502706237
   48      H      -3.7346984440     4.3298267898     0.3450469194
   49      H      -2.4177301993     4.4375024358    -0.8905687808
   50      H       0.1472208954    -2.1304091433     1.3442550282
   51      H       1.4349438709    -3.4076533364     1.4127203887
   52      H       0.8771551397    -2.7792742235    -0.1789363601
   53      H       0.4238022961     2.1347491750    -0.5580784473
   54      H       0.2116365695     2.9803298814     1.0422793907
   55      H       0.3751734381    -0.0615420101     1.0924691719
   56      H      -0.7385860505     0.9793505379     2.0488048156
 ----------------------------------------------------------------
 Molecular Point Group                 C1    NOp =  1
 Largest Abelian Subgroup              C1    NOp =  1
 Nuclear Repulsion Energy =  3139.2227016051 hartrees
 There are      113 alpha and      113 beta electrons
 Requested basis set is STO-3G
 There are 86 shells and 176 basis functions

 Total QAlloc Memory Limit   4000 MB
 Mega-Array Size       392 MB
 MEM_STATIC part       400 MB
 A cutoff of  1.0D-12 yielded   2157 shell pairs
 There are     10155 function pairs
 
 -------------------------------------------------------
 OpenMP Integral Computing Module                       
 Release: version 1.0, May 2013, Q-Chem Inc. Pittsburgh 
 -------------------------------------------------------
 Integral Job Info:
 Integral job number is                      11
 Integral operator is                         1
 short-range coefficients                     0
 long-range coefficients              100000000
 Omega coefficients                           0
 if combine SR and LR in K                    0
 Integral screening is                        0
 Integral computing path is                   2
 max size of driver memory is            800000
 size of driver memory is                 45569
 size of scratch memory is              1046100
 max col of scratch BK array                289
 max len of scratch array in speh3           22
 max len of scratch index in speh4            8
 max int batch size is                      520
 min int batch size is                       52
 fixed nKL is                                52
 max L of basis functions is                  1
 order of int derivative is                   0
 number of shells is                         86
 number of basis is                         176
 number of cartesian basis is               176
 number of contracted shell pairs          2157
 number of primitive shell pairs          11046
 maxK2 (contraction) of shell pair            9
 max number of K2 of shell pair               1
 max number of CS2 of shell pair            323
 max number of PS2 of shell pair           1256
 mem total for path MDJ                   49782
 -------------------------------------------------------
 Smallest overlap matrix eigenvalue = 2.13E-01

 Scale SEOQF with 1.000000e-02/1.000000e-01/1.000000e-01

 Standard Electronic Orientation quadrupole field applied
 Nucleus-field energy     =     0.0000000412 hartrees
 Guess from superposition of atomic densities
 Warning:  Energy on first SCF cycle will be non-variational
 A restricted hybrid HF-DFT SCF calculation will be
 performed using Pulay DIIS extrapolation
 Exchange:     0.2000 Hartree-Fock + 0.0800 Slater + 0.7200 B88
 Correlation:  0.1900 VWN1RPA + 0.8100 LYP
 Using SG-1 standard quadrature grid
 Dispersion:   Grimme D3
 SCF converges when DIIS error is below 1.0E-08
 using 48 threads for integral computing
 -------------------------------------------------------
 OpenMP Integral computing Module                
 Release: version 1.0, May 2013, Q-Chem Inc. Pittsburgh 
 -------------------------------------------------------
 -------------------------------------------------------
 OpenMP BLAS3 based DFT computing Module                
 Release: version 1.0, May 2013, Q-Chem Inc. Pittsburgh 
 -------------------------------------------------------
 ---------------------------------------
  Cycle       Energy         DIIS Error
 ---------------------------------------
    1   -1507.6356728386      7.46E-02
    2   -1509.7369736727      1.05E-02
    3   -1507.3561971802      2.73E-02
    4   -1510.1908236474      4.52E-03
    5   -1510.2747035860      1.45E-03
    6   -1510.2836176540      3.61E-04
    7   -1510.2841041982      1.55E-04
    8   -1510.2842015020      3.89E-05
    9   -1510.2842071843      1.53E-05
   10   -1510.2842081110      5.15E-06
   11   -1510.2842082257      1.41E-06
   12   -1510.2842082349      2.68E-07
   13   -1510.2842082351      9.52E-08
   14   -1510.2842082351      2.73E-08
   15   -1510.2842082351      8.32E-09 Convergence criterion met
 ---------------------------------------
 SCF time:  CPU 112.01 s  wall 2.41 s
 SCF   energy in the final basis set = -1510.28420824
 Total energy in the final basis set = -1510.28420824
 
 --------------------------------------------------------------
 
                    Orbital Energies (a.u.)
 --------------------------------------------------------------
 
 Alpha MOs
 -- Occupied --
-18.939 -18.937 -18.933 -18.932 -18.889 -18.886 -18.879 -18.878
-18.872 -18.871 -10.103 -10.103 -10.099 -10.097 -10.073 -10.067
-10.064 -10.062 -10.059 -10.059 -10.059 -10.057 -10.041 -10.039
-10.039 -10.036 -10.022 -10.021 -10.020 -10.019  -1.018  -1.015
 -1.009  -1.007  -0.971  -0.969  -0.941  -0.938  -0.934  -0.933
 -0.765  -0.763  -0.728  -0.723  -0.712  -0.705  -0.697  -0.663
 -0.661  -0.618  -0.598  -0.583  -0.547  -0.546  -0.539  -0.538
 -0.514  -0.509  -0.485  -0.473  -0.463  -0.456  -0.453  -0.447
 -0.444  -0.432  -0.430  -0.416  -0.413  -0.410  -0.408  -0.400
 -0.395  -0.382  -0.373  -0.369  -0.363  -0.358  -0.354  -0.348
 -0.345  -0.339  -0.337  -0.332  -0.331  -0.329  -0.328  -0.313
 -0.309  -0.307  -0.306  -0.297  -0.293  -0.287  -0.282  -0.275
 -0.273  -0.257  -0.254  -0.253  -0.249  -0.235  -0.233  -0.183
 -0.180  -0.175  -0.174  -0.159  -0.159  -0.151  -0.148  -0.145
 -0.143
 -- Virtual --
  0.093   0.094   0.104   0.105   0.213   0.230   0.243   0.254
  0.260   0.279   0.279   0.286   0.301   0.310   0.325   0.326
  0.331   0.332   0.341   0.346   0.356   0.360   0.370   0.372
  0.378   0.382   0.383   0.388   0.399   0.406   0.408   0.410
  0.415   0.418   0.419   0.422   0.423   0.424   0.427   0.432
  0.432   0.434   0.435   0.437   0.440   0.448   0.455   0.466
  0.467   0.488   0.488   0.489   0.500   0.505   0.508   0.541
  0.541   0.550   0.552   0.631   0.637   0.653   0.656
 --------------------------------------------------------------
 
          Ground-State Mulliken Net Atomic Charges

     Atom                 Charge (a.u.)
  ----------------------------------------
      1 O                    -0.215435
      2 C                     0.208487
      3 C                    -0.079751
      4 C                    -0.077527
      5 C                     0.212723
      6 O                    -0.171722
      7 C                    -0.055180
      8 C                    -0.051638
      9 O                    -0.172439
     10 C                     0.211273
     11 C                    -0.080334
     12 C                    -0.078028
     13 C                     0.211925
     14 O                    -0.210639
     15 O                    -0.167594
     16 O                    -0.173069
     17 O                    -0.213619
     18 C                    -0.134647
     19 C                     0.026474
     20 C                    -0.144255
     21 C                    -0.143671
     22 C                     0.024318
     23 O                    -0.186478
     24 H                     0.086892
     25 H                     0.085211
     26 H                     0.083320
     27 H                     0.078453
     28 H                     0.073714
     29 H                     0.078898
     30 H                     0.073565
     31 H                     0.092000
     32 O                    -0.212946
     33 C                    -0.127760
     34 C                     0.025227
     35 C                    -0.143234
     36 C                    -0.144651
     37 C                     0.024466
     38 O                    -0.186697
     39 H                     0.086241
     40 H                     0.087885
     41 H                     0.085814
     42 H                     0.085057
     43 H                     0.078099
     44 H                     0.073522
     45 H                     0.078443
     46 H                     0.073439
     47 H                     0.088942
     48 H                     0.087735
     49 H                     0.089527
     50 H                     0.100891
     51 H                     0.089936
     52 H                     0.090163
     53 H                     0.101923
     54 H                     0.086710
     55 H                     0.101166
     56 H                     0.088869
  ----------------------------------------
  Sum of atomic charges =     0.000000

 -----------------------------------------------------------------
                    Cartesian Multipole Moments
 -----------------------------------------------------------------
    Charge (ESU x 10^10)
                 0.0000
    Dipole Moment (Debye)
         X       0.8725      Y       1.7814      Z      -0.4463
       Tot       2.0332
    Quadrupole Moments (Debye-Ang)
        XX    -147.6976     XY       5.1533     YY    -153.6709
        XZ      19.6846     YZ       0.7556     ZZ    -167.8401
    Octopole Moments (Debye-Ang^2)
       XXX      58.6543    XXY      23.1182    XYY     -27.0849
       YYY      43.1837    XXZ     -22.7910    XYZ     -19.3467
       YYZ       0.6783    XZZ       3.1692    YZZ      -2.1410
       ZZZ       7.8369
    Hexadecapole Moments (Debye-Ang^3)
      XXXX  -15332.9597   XXXY      -5.0455   XXYY   -3169.2829
      XYYY     -54.3657   YYYY   -2809.6640   XXXZ     288.8105
      XXYZ       2.1149   XYYZ     -18.2520   YYYZ     -39.7688
      XXZZ   -2946.8033   XYZZ     -23.1887   YYZZ    -626.8562
      XZZZ      -5.0539   YZZZ     -11.9269   ZZZZ    -850.2292
 -----------------------------------------------------------------
 Calculating analytic gradient of the SCF energy
 Gradient of SCF Energy
            1           2           3           4           5           6
    1  -0.0013878   0.0022236  -0.0019177   0.0033013  -0.0053572   0.0018001
    2   0.0005881  -0.0007852  -0.0004566  -0.0008497   0.0050628  -0.0016722
    3  -0.0002266   0.0000036   0.0016715  -0.0030770   0.0043630  -0.0013214
            7           8           9          10          11          12
    1   0.0034998  -0.0003031  -0.0021282  -0.0007528   0.0003103   0.0011558
    2  -0.0031271   0.0059395  -0.0055324  -0.0032811   0.0044547  -0.0006421
    3  -0.0014424  -0.0032797   0.0038834   0.0015483   0.0011292  -0.0028385
           13          14          15          16          17          18
    1  -0.0009214   0.0005943  -0.0000091  -0.0000600   0.0000626  -0.0000307
    2   0.0013812  -0.0008938  -0.0000189  -0.0000056  -0.0000255   0.0000243
    3  -0.0026321   0.0024908  -0.0000086  -0.0000829   0.0000175   0.0000659
           19          20          21          22          23          24
    1  -0.0000316   0.0000211   0.0001053  -0.0000114  -0.0000480   0.0000207
    2  -0.0000014  -0.0000281   0.0000130  -0.0000583   0.0000203   0.0000696
    3  -0.0001563   0.0000237  -0.0000193   0.0000746   0.0000419  -0.0000147
           25          26          27          28          29          30
    1   0.0000547  -0.0000228   0.0000109  -0.0000242  -0.0000313   0.0000119
    2   0.0000501  -0.0000224   0.0000155  -0.0000147  -0.0000024  -0.0000160
    3  -0.0000624  -0.0000119   0.0000078  -0.0000165   0.0000068  -0.0000105
           31          32          33          34          35          36
    1   0.0000193  -0.0001207   0.0000536   0.0000074  -0.0000864   0.0001712
    2   0.0000127  -0.0000598  -0.0000032   0.0000540  -0.0000295   0.0000093
    3   0.0000136   0.0000262   0.0000031   0.0000378   0.0000097   0.0001192
           37          38          39          40          41          42
    1  -0.0002765   0.0000566   0.0000032  -0.0000195  -0.0000371   0.0000045
    2  -0.0001291  -0.0000566  -0.0000498   0.0000163  -0.0000054   0.0000048
    3  -0.0002708   0.0000505  -0.0000132  -0.0000166  -0.0000456   0.0000394
           43          44          45          46          47          48
    1   0.0000020   0.0000283   0.0000188   0.0000007  -0.0000221  -0.0000149
    2   0.0000125   0.0000082   0.0000046  -0.0000245   0.0000160   0.0000204
    3  -0.0000125  -0.0000234   0.0000182   0.0000003  -0.0000128  -0.0000100
           49          50          51          52          53          54
    1  -0.0000055   0.0000275   0.0000054  -0.0000051  -0.0000227   0.0000189
    2   0.0000046   0.0000237  -0.0000173   0.0000176   0.0000311   0.0000072
    3  -0.0000220   0.0000131  -0.0000105   0.0000138  -0.0000119  -0.0000256
           55          56
    1   0.0000516   0.0000063
    2  -0.0000328  -0.0000204
    3  -0.0000045   0.0000072
 Max gradient component =       5.939E-03
 RMS gradient           =       1.335E-03
 Gradient time:  CPU 30.59 s  wall 0.65 s
 Geometry Optimization Parameters
   NAtoms,    NIC,     NZ,  NCons,   NDum,   NFix, NCnnct, MaxDiis
       56     458       0       0       0       0       0       0


** GEOMETRY OPTIMIZATION IN DELOCALIZED INTERNAL COORDINATES **
   Searching for a Minimum

   Optimization Cycle:   1

                       Coordinates (Angstroms)
     ATOM                X               Y               Z
      1  O        -4.0352466255    1.8560163741    1.2988914812
      2  C        -3.9085491268    1.6406519701    0.0741996606
      3  C        -4.3319560093    0.3638076394   -0.7292960937
      4  C        -3.2983624877   -0.8354849225   -0.5855021596
      5  C        -2.1842802301   -0.5667635336    0.4881180118
      6  O        -1.4035431676    0.5509366321    0.0582411072
      7  C        -0.3171568990    0.8050248062    1.0359689667
      8  C         0.5192807903    2.0404024481    0.5450092226
      9  O         1.9282810572    1.7876999381    0.9354187054
     10  C         2.5593924691    0.9771366516   -0.0704247403
     11  C         4.0490370159    0.7670409297    0.3428870533
     12  C         4.4492375219   -0.7581657015    0.5246404398
     13  C         3.3176347289   -1.8453618132    0.3904862137
     14  O         3.4894531674   -3.0014557866   -0.0532720544
     15  O        -3.3552710193    2.5825015117   -0.8541968735
     16  O         2.0748349863   -1.4028491260    0.9602483661
     17  O         1.9971078409    0.5991454495   -1.1205411977
     18  C         1.0795716043   -2.5054418025    0.8761194747
     19  C         5.0148689018    1.1747265156   -0.8550548904
     20  C         6.4907106906    1.2753334965   -0.2997216845
     21  C         6.8699096365   -0.2460637181   -0.1641729786
     22  C         5.5276978794   -0.9345412122   -0.6259631746
     23  O         5.0344285054   -0.0402766004   -1.6992359006
     24  H         4.2469788542    1.3487375881    1.2597249825
     25  H         4.9120032367   -0.9077853855    1.5188468123
     26  H         4.6690586916    2.0478274321   -1.4415477412
     27  H         7.1404900986    1.7927728236   -1.0231592490
     28  H         6.5336220713    1.8127337597    0.6610933946
     29  H         7.6927684860   -0.5180345172   -0.8443368071
     30  H         7.1535856589   -0.5264045985    0.8628304610
     31  H         5.6156172205   -1.9762210745   -0.9923230832
     32  O        -1.9311688781   -1.2456798908    1.5082371515
     33  C        -2.8917639690    3.7883389140   -0.1316412823
     34  C        -5.6545124884   -0.3198346773   -0.1726276671
     35  C        -6.2263247722   -1.2543289328   -1.3095845977
     36  C        -5.1923983088   -2.4419965569   -1.2704194831
     37  C        -4.2530540865   -1.9930051814   -0.0832266278
     38  O        -5.1642050061   -1.2791594551    0.8423816512
     39  H        -4.4411272975    0.6536102837   -1.7891591785
     40  H        -2.8119980950   -1.0628270420   -1.5516550643
     41  H        -2.1519302530    3.5313806898    0.6529973129
     42  H        -6.3810694927    0.3826835825    0.2795561445
     43  H        -7.2411826012   -1.5958881454   -1.0503256180
     44  H        -6.2610561397   -0.7503729978   -2.2885501172
     45  H        -5.6831317964   -3.3993361395   -1.0342488958
     46  H        -4.6378812946   -2.5527130770   -2.2161475756
     47  H        -3.7249289154   -2.8069275757    0.4502706237
     48  H        -3.7346984440    4.3298267898    0.3450469194
     49  H        -2.4177301993    4.4375024358   -0.8905687808
     50  H         0.1472208954   -2.1304091433    1.3442550282
     51  H         1.4349438709   -3.4076533364    1.4127203887
     52  H         0.8771551397   -2.7792742235   -0.1789363601
     53  H         0.4238022961    2.1347491750   -0.5580784473
     54  H         0.2116365695    2.9803298814    1.0422793907
     55  H         0.3751734381   -0.0615420101    1.0924691719
     56  H        -0.7385860505    0.9793505379    2.0488048156
   Point Group: c1    Number of degrees of freedom:   162


   Energy is  -1510.284208235


 Attempting to Generate Delocalized Internal Coordinates

162 Hessian modes will be used to form the next step
  Hessian Eigenvalues:
     0.002000    0.002000    0.002000    0.002000    0.002000    0.002686
     0.002698    0.004041    0.004154    0.004211    0.004454    0.004505
     0.004565    0.004601    0.005037    0.006814    0.006836    0.010656
     0.010750    0.011205    0.011737    0.021685    0.021716    0.026118
     0.026237    0.030782    0.030800    0.035333    0.035640    0.040515
     0.040932    0.041808    0.041973    0.044768    0.046721    0.046795
     0.047843    0.050031    0.050914    0.051531    0.052933    0.053217
     0.053753    0.054341    0.054591    0.055307    0.055664    0.055962
     0.058654    0.058978    0.058997    0.060584    0.060599    0.063768
     0.063884    0.064084    0.064131    0.069943    0.070115    0.072900
     0.073039    0.091789    0.092629    0.092768    0.093286    0.095596
     0.095835    0.096781    0.097248    0.101814    0.102554    0.108092
     0.108556    0.110040    0.110589    0.121012    0.121021    0.133830
     0.135458    0.157240    0.158038    0.160000    0.160000    0.160000
     0.160000    0.160000    0.160000    0.163288    0.163361    0.219626
     0.219967    0.220249    0.220272    0.225657    0.227194    0.237934
     0.238684    0.239854    0.239856    0.245754    0.248077    0.249226
     0.249426    0.249508    0.249950    0.250000    0.250000    0.250000
     0.250000    0.250000    0.250000    0.250000    0.250000    0.253477
     0.253727    0.256330    0.259703    0.259897    0.262620    0.268075
     0.292439    0.292851    0.306714    0.307473    0.324707    0.325178
     0.325357    0.326535    0.327436    0.327446    0.327465    0.327861
     0.328425    0.328928    0.328985    0.328996    0.329228    0.329422
     0.330830    0.331028    0.332241    0.332767    0.334746    0.334913
     0.334917    0.334920    0.334976    0.335044    0.335160    0.335271
     0.336996    0.341420    0.341729    0.345476    0.399000    0.399984
     0.404809    0.410548    0.827753    0.831635    0.832658    0.833425

 Minimum Search - Taking Simple RFO Step
 Searching for Lamda that Minimizes Along All modes
 Value Taken    Lamda =  -0.01266399
 Calculated Step too Large.  Step scaled by  0.375395
 Step Taken.  Stepsize is  0.300000

                             Maximum     Tolerance    Cnvgd?
         Gradient           0.007197      0.000300      NO
         Displacement       0.126355      0.001200      NO
         Energy change     *********      0.000001      NO


 New Cartesian Coordinates Obtained by Inverse Iteration

 Displacement from previous Coordinates is:  4.234979
 Adding empirical dispersion correction 
 ----------------------------------------------------------------
 Doing -D3(op) with
 s6 =   1.00000
 s8 =   0.78311
 a1 =   0.30000
 a2 =   4.25000
 n  =  10.00000
 -D3 energy without 3body term =     -0.0718299957 hartrees
 ----------------------------------------------------------------
             Standard Nuclear Orientation (Angstroms)
    I     Atom           X                Y                Z
 ----------------------------------------------------------------
    1      O      -3.8499721309     1.6659264011     1.4373229662
    2      C      -3.8379998936     1.5374879851     0.1940820219
    3      C      -4.2611473636     0.2873289227    -0.6505312472
    4      C      -3.1570982145    -0.8563166820    -0.6684698313
    5      C      -1.9684320890    -0.5849670298     0.3212690344
    6      O      -1.3211097787     0.6282058644    -0.0695853424
    7      C      -0.2402388932     0.9467646110     0.8953149039
    8      C       0.5372100108     2.2103851160     0.3800968978
    9      O       1.9604591597     2.0178887242     0.7525955636
   10      C       2.5936730818     1.1727691617    -0.2230479278
   11      C       4.0277736647     0.8325060296     0.2884933604
   12      C       4.2580681026    -0.7162789031     0.5492153102
   13      C       3.0320539906    -1.6898848553     0.3770916588
   14      O       3.1067164238    -2.8614839283    -0.0527458783
   15      O      -3.4239545889     2.5649503416    -0.7158602579
   16      O       1.8095377500    -1.1094877121     0.8603396799
   17      O       2.0442895007     0.7835733664    -1.2759065986
   18      C       0.7116404698    -2.1046986918     0.7278233931
   19      C       5.0996913563     1.0942165755    -0.8584529136
   20      C       6.5421841596     1.0693391591    -0.2141893850
   21      C       6.7549436937    -0.4756026385    -0.0028162469
   22      C       5.3793435055    -1.0445868013    -0.5250687512
   23      O       5.0452404371    -0.1496863184    -1.6575912473
   24      H       4.2285133107     1.4271251944     1.1963709295
   25      H       4.6439538098    -0.8732871180     1.5746335176
   26      H       4.8803392342     1.9731975985    -1.4949626383
   27      H       7.2835124680     1.4895559295    -0.9121561912
   28      H       6.5823445336     1.6381738233     0.7284929470
   29      H       7.5848594419    -0.8557117266    -0.6196417200
   30      H       6.9466214108    -0.7410958189     1.0491258323
   31      H       5.3821814743    -2.1036961058    -0.8496341448
   32      O      -1.5984011773    -1.2975712637     1.2808994041
   33      C      -2.9544175007     3.7475040007     0.0404858084
   34      C      -5.4912839605    -0.5040096211    -0.0280293687
   35      C      -6.1098550704    -1.4034541431    -1.1687443423
   36      C      -5.0147844777    -2.5290190955    -1.2907988738
   37      C      -4.0003429846    -2.0949553752    -0.1610608700
   38      O      -4.8637630276    -1.4898651741     0.8804592986
   39      H      -4.4790465994     0.6313979837    -1.6768621927
   40      H      -2.7459072227    -0.9976332970    -1.6846564159
   41      H      -2.1309229511     3.4841507697     0.7344599187
   42      H      -6.2119937722     0.1275215460     0.5265956789
   43      H      -7.0784401591    -1.8181055530    -0.8466684244
   44      H      -6.2570689580    -0.8469960855    -2.1080002254
   45      H      -5.4313321299    -3.5253947218    -1.0743849819
   46      H      -4.5400355349    -2.5524912049    -2.2848841464
   47      H      -3.3847283420    -2.9058389540     0.2742913447
   48      H      -3.7739370186     4.2099241101     0.6282825954
   49      H      -2.5883053254     4.4683620512    -0.7134433637
   50      H      -0.2039042393    -1.6256931876     1.1296050604
   51      H       0.9364870853    -3.0274784687     1.2988972264
   52      H       0.5481420585    -2.3779794981    -0.3341064762
   53      H       0.4235013554     2.2827225041    -0.7229189804
   54      H       0.1987843623     3.1451783847     0.8669526296
   55      H       0.4956238053     0.1165850068     0.9470838925
   56      H      -0.6568765826     1.1049988906     1.9127627369
 ----------------------------------------------------------------
 Molecular Point Group                 C1    NOp =  1
 Largest Abelian Subgroup              C1    NOp =  1
 Nuclear Repulsion Energy =  3185.3502788267 hartrees
 There are      113 alpha and      113 beta electrons
 Applying Cartesian multipole field
    Component          Value
    ---------          -----
     (2,0,0)        1.00000E-12
     (0,2,0)        2.00000E-11
     (0,0,2)       -3.00000E-11
 Nucleus-field energy     =     0.0000000415 hartrees
 Requested basis set is STO-3G
 There are 86 shells and 176 basis functions
 A cutoff of  1.0D-12 yielded   2214 shell pairs
 There are     10443 function pairs
 Smallest overlap matrix eigenvalue = 2.13E-01
 Guess MOs from SCF MO coefficient file
 Reading MOs from coefficient file
 Reading MOs from coefficient file
 A restricted hybrid HF-DFT SCF calculation will be
 performed using Pulay DIIS extrapolation
 Exchange:     0.2000 Hartree-Fock + 0.0800 Slater + 0.7200 B88
 Correlation:  0.1900 VWN1RPA + 0.8100 LYP
 Using SG-1 standard quadrature grid
 Dispersion:   Grimme D3
 SCF converges when DIIS error is below 1.0E-08
 Geometry optimization detected.  Setting ReadMinima to 0
 Setting SaveMinima to 0
 using 48 threads for integral computing
 -------------------------------------------------------
 OpenMP Integral computing Module                
 Release: version 1.0, May 2013, Q-Chem Inc. Pittsburgh 
 -------------------------------------------------------
 -------------------------------------------------------
 OpenMP BLAS3 based DFT computing Module                
 Release: version 1.0, May 2013, Q-Chem Inc. Pittsburgh 
 -------------------------------------------------------
 ---------------------------------------
  Cycle       Energy         DIIS Error
 ---------------------------------------
    1   -1510.1707652169      7.27E-03
    2   -1510.2625348256      9.64E-04
    3   -1510.2577379608      1.51E-03
    4   -1510.2667945635      4.67E-04
    5   -1510.2677327611      9.29E-05
    6   -1510.2677572361      6.04E-05
    7   -1510.2677721441      2.21E-05
    8   -1510.2677742818      5.38E-06
    9   -1510.2677744205      1.83E-06
   10   -1510.2677744318      1.11E-06
   11   -1510.2677744373      2.26E-07
   12   -1510.2677744375      8.86E-08
   13   -1510.2677744376      4.11E-08
   14   -1510.2677744376      1.96E-08
   15   -1510.2677744377      3.07E-09 Convergence criterion met
 ---------------------------------------
 SCF time:  CPU 108.16 s  wall 2.26 s
 SCF   energy in the final basis set = -1510.26777444
 Total energy in the final basis set = -1510.26777444
 
 --------------------------------------------------------------
 
                    Orbital Energies (a.u.)
 --------------------------------------------------------------
 
 Alpha MOs
 -- Occupied --
-18.953 -18.936 -18.931 -18.930 -18.911 -18.891 -18.886 -18.875
-18.872 -18.872 -10.122 -10.101 -10.097 -10.096 -10.072 -10.067
-10.063 -10.063 -10.061 -10.060 -10.056 -10.048 -10.042 -10.038
-10.037 -10.024 -10.022 -10.020 -10.018 -10.012  -1.036  -1.012
 -1.012  -1.003  -0.974  -0.969  -0.961  -0.937  -0.935  -0.930
 -0.770  -0.762  -0.731  -0.723  -0.712  -0.707  -0.697  -0.667
 -0.648  -0.617  -0.601  -0.584  -0.552  -0.544  -0.542  -0.536
 -0.519  -0.509  -0.487  -0.475  -0.472  -0.463  -0.453  -0.447
 -0.445  -0.438  -0.432  -0.425  -0.415  -0.411  -0.404  -0.395
 -0.394  -0.388  -0.376  -0.372  -0.362  -0.360  -0.355  -0.352
 -0.342  -0.337  -0.335  -0.334  -0.331  -0.329  -0.326  -0.313
 -0.310  -0.309  -0.305  -0.298  -0.293  -0.288  -0.283  -0.279
 -0.271  -0.262  -0.257  -0.251  -0.241  -0.237  -0.233  -0.190
 -0.179  -0.178  -0.172  -0.170  -0.154  -0.154  -0.148  -0.148
 -0.142
 -- Virtual --
  0.072   0.096   0.099   0.109   0.210   0.234   0.242   0.256
  0.261   0.275   0.281   0.282   0.298   0.312   0.323   0.327
  0.329   0.336   0.341   0.345   0.355   0.359   0.367   0.371
  0.376   0.379   0.383   0.385   0.399   0.401   0.405   0.410
  0.413   0.417   0.419   0.421   0.424   0.426   0.427   0.431
  0.434   0.437   0.443   0.449   0.455   0.463   0.463   0.468
  0.484   0.489   0.491   0.501   0.505   0.512   0.536   0.543
  0.548   0.552   0.583   0.627   0.648   0.654   0.656
 --------------------------------------------------------------
 
          Ground-State Mulliken Net Atomic Charges

     Atom                 Charge (a.u.)
  ----------------------------------------
      1 O                    -0.215619
      2 C                     0.208362
      3 C                    -0.079349
      4 C                    -0.076026
      5 C                     0.230461
      6 O                    -0.163587
      7 C                    -0.069641
      8 C                    -0.051979
      9 O                    -0.172747
     10 C                     0.211129
     11 C                    -0.080379
     12 C                    -0.078550
     13 C                     0.212827
     14 O                    -0.209642
     15 O                    -0.167223
     16 O                    -0.180952
     17 O                    -0.213191
     18 C                    -0.171600
     19 C                     0.026200
     20 C                    -0.144320
     21 C                    -0.143811
     22 C                     0.024269
     23 O                    -0.186905
     24 H                     0.086275
     25 H                     0.084510
     26 H                     0.082709
     27 H                     0.077867
     28 H                     0.073267
     29 H                     0.078366
     30 H                     0.073289
     31 H                     0.092071
     32 O                    -0.203043
     33 C                    -0.127764
     34 C                     0.025374
     35 C                    -0.143212
     36 C                    -0.144388
     37 C                     0.024390
     38 O                    -0.186192
     39 H                     0.087890
     40 H                     0.091541
     41 H                     0.086036
     42 H                     0.086098
     43 H                     0.079040
     44 H                     0.074159
     45 H                     0.079786
     46 H                     0.074293
     47 H                     0.090257
     48 H                     0.088274
     49 H                     0.090342
     50 H                     0.134007
     51 H                     0.073640
     52 H                     0.070160
     53 H                     0.101249
     54 H                     0.085657
     55 H                     0.120613
     56 H                     0.085711
  ----------------------------------------
  Sum of atomic charges =     0.000000

 -----------------------------------------------------------------
                    Cartesian Multipole Moments
 -----------------------------------------------------------------
    Charge (ESU x 10^10)
                 0.0000
    Dipole Moment (Debye)
         X      -0.3811      Y       2.2665      Z      -0.3925
       Tot       2.3316
    Quadrupole Moments (Debye-Ang)
        XX    -144.5235     XY       4.9035     YY    -155.8766
        XZ      18.4087     YZ       1.8968     ZZ    -167.6659
    Octopole Moments (Debye-Ang^2)
       XXX      26.2935    XXY      17.6932    XYY     -30.7006
       YYY      46.8038    XXZ     -11.2809    XYZ     -21.3410
       YYZ       0.4940    XZZ      -1.8677    YZZ      -1.9465
       ZZZ      13.3344
    Hexadecapole Moments (Debye-Ang^3)
      XXXX  -14541.7185   XXXY    -104.6844   XXYY   -3015.2743
      XYYY    -157.1611   YYYY   -2777.4824   XXXZ     263.2289
      XXYZ       0.6997   XYYZ     -17.6160   YYYZ     -62.2909
      XXZZ   -2803.6726   XYZZ     -48.8443   YYZZ    -611.7370
      XZZZ      30.8985   YZZZ     -55.8495   ZZZZ    -783.5742
 -----------------------------------------------------------------
 Calculating analytic gradient of the SCF energy
 Gradient of SCF Energy
            1           2           3           4           5           6
    1  -0.0006868   0.0003470  -0.0012820   0.0004925   0.0082313   0.0064698
    2   0.0005235  -0.0010686  -0.0010182   0.0017211  -0.0176446   0.0066644
    3  -0.0001222  -0.0002195   0.0006170  -0.0037963   0.0164875  -0.0032761
            7           8           9          10          11          12
    1  -0.0006640   0.0005216  -0.0014908   0.0015248  -0.0004701   0.0004444
    2  -0.0058745   0.0042269  -0.0052303   0.0032557   0.0005832  -0.0000206
    3  -0.0036439  -0.0022840   0.0029602  -0.0018891   0.0026671  -0.0021439
           13          14          15          16          17          18
    1  -0.0008950  -0.0001421   0.0006701  -0.0037754  -0.0009766  -0.0246807
    2  -0.0021121  -0.0012563   0.0002598   0.0093758  -0.0023568   0.0155685
    3  -0.0000576   0.0012008  -0.0000528   0.0011976   0.0013035   0.0026764
           19          20          21          22          23          24
    1  -0.0002439   0.0001430  -0.0006155   0.0002438  -0.0004016   0.0001045
    2   0.0005382  -0.0001341   0.0004874  -0.0002977   0.0000776  -0.0000844
    3  -0.0011001   0.0001954   0.0000392  -0.0000648   0.0001210   0.0000106
           25          26          27          28          29          30
    1  -0.0000180  -0.0001741  -0.0001068   0.0000535  -0.0000578   0.0003169
    2  -0.0007040  -0.0000930   0.0000098  -0.0000413  -0.0000432  -0.0000162
    3   0.0000131   0.0001513   0.0000341  -0.0000259  -0.0000505  -0.0000190
           31          32          33          34          35          36
    1   0.0000887   0.0349418   0.0000853   0.0005825  -0.0002903  -0.0000187
    2   0.0000168  -0.0054585  -0.0001394   0.0004180   0.0004455  -0.0006307
    3  -0.0000330  -0.0114880  -0.0001054   0.0004652  -0.0001517   0.0002563
           37          38          39          40          41          42
    1   0.0001850   0.0001078  -0.0002838  -0.0004393   0.0003017  -0.0000587
    2   0.0011121  -0.0007004   0.0002056   0.0001216  -0.0001001  -0.0000411
    3  -0.0003047  -0.0000825   0.0000433   0.0000799   0.0000422   0.0001189
           43          44          45          46          47          48
    1  -0.0000266   0.0000509  -0.0000661   0.0000330   0.0000133   0.0000070
    2  -0.0000636  -0.0001724  -0.0000361   0.0000320   0.0001243   0.0000367
    3  -0.0000152   0.0000900  -0.0001154  -0.0000073   0.0000550   0.0000301
           49          50          51          52          53          54
    1   0.0000011  -0.0114876  -0.0025596  -0.0022052   0.0000946  -0.0004988
    2  -0.0000182   0.0086618  -0.0006665  -0.0001310  -0.0005425  -0.0000900
    3   0.0000007  -0.0029838   0.0021157  -0.0004774   0.0000970   0.0001444
           55          56
    1  -0.0032458   0.0018058
    2  -0.0060684  -0.0016113
    3   0.0001971   0.0010998
 Max gradient component =       3.494E-02
 RMS gradient           =       4.607E-03
 Gradient time:  CPU 29.68 s  wall 0.63 s
 Geometry Optimization Parameters
   NAtoms,    NIC,     NZ,  NCons,   NDum,   NFix, NCnnct, MaxDiis
       56     458       0       0       0       0       0       0

 Cartesian Hessian Update
 Hessian Updated using BFGS Update


** GEOMETRY OPTIMIZATION IN DELOCALIZED INTERNAL COORDINATES **
   Searching for a Minimum

   Optimization Cycle:   2

                       Coordinates (Angstroms)
     ATOM                X               Y               Z
      1  O        -3.8499721309    1.6659264011    1.4373229662
      2  C        -3.8379998936    1.5374879851    0.1940820219
      3  C        -4.2611473636    0.2873289227   -0.6505312472
      4  C        -3.1570982145   -0.8563166820   -0.6684698313
      5  C        -1.9684320890   -0.5849670298    0.3212690344
      6  O        -1.3211097787    0.6282058644   -0.0695853424
      7  C        -0.2402388932    0.9467646110    0.8953149039
      8  C         0.5372100108    2.2103851160    0.3800968978
      9  O         1.9604591597    2.0178887242    0.7525955636
     10  C         2.5936730818    1.1727691617   -0.2230479278
     11  C         4.0277736647    0.8325060296    0.2884933604
     12  C         4.2580681026   -0.7162789031    0.5492153102
     13  C         3.0320539906   -1.6898848553    0.3770916588
     14  O         3.1067164238   -2.8614839283   -0.0527458783
     15  O        -3.4239545889    2.5649503416   -0.7158602579
     16  O         1.8095377500   -1.1094877121    0.8603396799
     17  O         2.0442895007    0.7835733664   -1.2759065986
     18  C         0.7116404698   -2.1046986918    0.7278233931
     19  C         5.0996913563    1.0942165755   -0.8584529136
     20  C         6.5421841596    1.0693391591   -0.2141893850
     21  C         6.7549436937   -0.4756026385   -0.0028162469
     22  C         5.3793435055   -1.0445868013   -0.5250687512
     23  O         5.0452404371   -0.1496863184   -1.6575912473
     24  H         4.2285133107    1.4271251944    1.1963709295
     25  H         4.6439538098   -0.8732871180    1.5746335176
     26  H         4.8803392342    1.9731975985   -1.4949626383
     27  H         7.2835124680    1.4895559295   -0.9121561912
     28  H         6.5823445336    1.6381738233    0.7284929470
     29  H         7.5848594419   -0.8557117266   -0.6196417200
     30  H         6.9466214108   -0.7410958189    1.0491258323
     31  H         5.3821814743   -2.1036961058   -0.8496341448
     32  O        -1.5984011773   -1.2975712637    1.2808994041
     33  C        -2.9544175007    3.7475040007    0.0404858084
     34  C        -5.4912839605   -0.5040096211   -0.0280293687
     35  C        -6.1098550704   -1.4034541431   -1.1687443423
     36  C        -5.0147844777   -2.5290190955   -1.2907988738
     37  C        -4.0003429846   -2.0949553752   -0.1610608700
     38  O        -4.8637630276   -1.4898651741    0.8804592986
     39  H        -4.4790465994    0.6313979837   -1.6768621927
     40  H        -2.7459072227   -0.9976332970   -1.6846564159
     41  H        -2.1309229511    3.4841507697    0.7344599187
     42  H        -6.2119937722    0.1275215460    0.5265956789
     43  H        -7.0784401591   -1.8181055530   -0.8466684244
     44  H        -6.2570689580   -0.8469960855   -2.1080002254
     45  H        -5.4313321299   -3.5253947218   -1.0743849819
     46  H        -4.5400355349   -2.5524912049   -2.2848841464
     47  H        -3.3847283420   -2.9058389540    0.2742913447
     48  H        -3.7739370186    4.2099241101    0.6282825954
     49  H        -2.5883053254    4.4683620512   -0.7134433637
     50  H        -0.2039042393   -1.6256931876    1.1296050604
     51  H         0.9364870853   -3.0274784687    1.2988972264
     52  H         0.5481420585   -2.3779794981   -0.3341064762
     53  H         0.4235013554    2.2827225041   -0.7229189804
     54  H         0.1987843623    3.1451783847    0.8669526296
     55  H         0.4956238053    0.1165850068    0.9470838925
     56  H        -0.6568765826    1.1049988906    1.9127627369
   Point Group: c1    Number of degrees of freedom:   162


   Energy is  -1510.267774438

 Hessian Updated using BFGS Update

149 Hessian modes will be used to form the next step
  Hessian Eigenvalues:
     0.001749    0.002059    0.002683    0.002698    0.003889    0.004048
     0.004176    0.004422    0.004474    0.004569    0.005037    0.006753
     0.006813    0.006838    0.010643    0.011205    0.011351    0.021572
     0.021685    0.025261    0.026237    0.030709    0.030800    0.034552
     0.035612    0.035821    0.040433    0.040928    0.041808    0.042310
     0.044444    0.046657    0.047690    0.048135    0.050911    0.051524
     0.051899    0.053211    0.053502    0.054297    0.054342    0.054842
     0.055306    0.055906    0.057985    0.058628    0.058996    0.060545
     0.060598    0.063768    0.063883    0.064081    0.064131    0.069885
     0.070115    0.072667    0.073037    0.074970    0.091785    0.092768
     0.092772    0.093361    0.095835    0.096781    0.097239    0.099404
     0.101886    0.102554    0.108131    0.108866    0.110025    0.110664
     0.121019    0.130750    0.134467    0.139329    0.157240    0.159997
     0.159999    0.162681    0.163347    0.169563    0.219552    0.219928
     0.220215    0.225656    0.226744    0.235333    0.237934    0.239316
     0.239849    0.239868    0.245760    0.248074    0.249226    0.249375
     0.249471    0.249821    0.249950    0.253475    0.253727    0.256314
     0.259702    0.259896    0.262620    0.267783    0.292437    0.292850
     0.306713    0.307348    0.324707    0.325178    0.325353    0.326535
     0.327385    0.327436    0.327465    0.327861    0.328425    0.328928
     0.328985    0.328996    0.329228    0.329422    0.330830    0.331028
     0.332240    0.332767    0.334746    0.334913    0.334917    0.334920
     0.334976    0.335043    0.335160    0.335271    0.336877    0.340170
     0.341646    0.345476    0.396967    0.399459    0.404809    0.410548
     0.827709    0.831634    0.832658    0.833424    4.692658

 Minimum Search - Taking Simple RFO Step
 Searching for Lamda that Minimizes Along All modes
 Value Taken    Lamda =  -0.07820357
 Step Taken.  Stepsize is  0.164523

                             Maximum     Tolerance    Cnvgd?
         Gradient           0.484793      0.000300      NO
         Displacement       0.102277      0.001200      NO
         Energy change      0.016434      0.000001      NO


 New Cartesian Coordinates Obtained by Inverse Iteration

 Displacement from previous Coordinates is:  4.446123
 Adding empirical dispersion correction 
 ----------------------------------------------------------------
 Doing -D3(op) with
 s6 =   1.00000
 s8 =   0.78311
 a1 =   0.30000
 a2 =   4.25000
 n  =  10.00000
 -D3 energy without 3body term =     -0.0693785948 hartrees
 ----------------------------------------------------------------
             Standard Nuclear Orientation (Angstroms)
    I     Atom           X                Y                Z
 ----------------------------------------------------------------
    1      O      -3.8461981242     1.7348371167     1.4026844995
    2      C      -3.8625256363     1.6005536751     0.1601235995
    3      C      -4.3803126395     0.3772598353    -0.6712011468
    4      C      -3.3618801641    -0.8432935747    -0.6864889776
    5      C      -2.1475565592    -0.6498259810     0.2900845769
    6      O      -1.4391759825     0.5299550104    -0.0971198584
    7      C      -0.3524349486     0.8276020653     0.8715187449
    8      C       0.4642195590     2.0509825950     0.3210258044
    9      O       1.8979441072     1.8919416907     0.6826691516
   10      C       2.5829343128     1.0388544511    -0.2541971339
   11      C       4.0344351020     0.8152958960     0.2851928564
   12      C       4.4293159037    -0.6972931524     0.5941539875
   13      C       3.3503936528    -1.8320604814     0.4388460555
   14      O       3.5966452810    -2.9860558868     0.0258929604
   15      O      -3.3866752034     2.5903318928    -0.7612483336
   16      O       2.0540703581    -1.4423268209     0.9107632581
   17      O       2.0740059216     0.5945294275    -1.3055852420
   18      C       1.1538218367    -2.6193155362     0.7903327038
   19      C       5.0859739244     1.1542615595    -0.8609657161
   20      C       6.5176979151     1.3007763772    -0.2098009965
   21      C       6.8913820083    -0.2038700270     0.0456355002
   22      C       5.5880958128    -0.9290683775    -0.4662619709
   23      O       5.1678231568    -0.1088472675    -1.6263679952
   24      H       4.1676720606     1.4523715739     1.1764985150
   25      H       4.8244534987    -0.7831275755     1.6245124934
   26      H       4.7833530315     1.9901183846    -1.5210130739
   27      H       7.2153711216     1.7779611958    -0.9160930491
   28      H       6.4902041083     1.8965723530     0.7165748425
   29      H       7.7615396061    -0.5104108186    -0.5565564039
   30      H       7.1023005041    -0.4184678338     1.1054854737
   31      H       5.7091064804    -1.9906105086    -0.7588079252
   32      O      -1.8310277459    -1.3741507693     1.2597975381
   33      C      -2.8242874317     3.7402331608    -0.0180218571
   34      C      -5.6580640951    -0.3198353426    -0.0312593662
   35      C      -6.3493893137    -1.1823621629    -1.1585634827
   36      C      -5.3387969016    -2.3843055190    -1.2795109253
   37      C      -4.2859945206    -2.0146036259    -0.1617047265
   38      O      -5.0948031032    -1.3403931001     0.8810984969
   39      H      -4.5832238536     0.7279891709    -1.6983478747
   40      H      -2.9706801831    -1.0206789755    -1.7049271053
   41      H      -2.0135945284     3.4223065168     0.6681770958
   42      H      -6.3269980099     0.3661054371     0.5235514508
   43      H      -7.3421854797    -1.5240957496    -0.8247705765
   44      H      -6.4649156404    -0.6246388513    -2.1014719362
   45      H      -5.8235335643    -3.3465429700    -1.0508827221
   46      H      -4.8757348225    -2.4498112676    -2.2772116236
   47      H      -3.7259273370    -2.8637887721     0.2757289147
   48      H      -3.6013818953     4.2636652909     0.5761388367
   49      H      -2.4163407526     4.4286214858    -0.7807607336
   50      H       0.1659836602    -2.3085097895     1.1835779989
   51      H       1.5390988373    -3.4776490798     1.3758357837
   52      H       1.0485389168    -2.9331928591    -0.2676769920
   53      H       0.3468127937     2.0933006683    -0.7831619540
   54      H       0.1364148598     3.0031910626     0.7806382428
   55      H       0.3564674681    -0.0233337841     0.9500366413
   56      H      -0.7700476933     1.0273186459     1.8812283036
 ----------------------------------------------------------------
 Molecular Point Group                 C1    NOp =  1
 Largest Abelian Subgroup              C1    NOp =  1
 Nuclear Repulsion Energy =  3134.6400790786 hartrees
 There are      113 alpha and      113 beta electrons
 Applying Cartesian multipole field
    Component          Value
    ---------          -----
     (2,0,0)        1.00000E-12
     (0,2,0)        2.00000E-11
     (0,0,2)       -3.00000E-11
 Nucleus-field energy     =     0.0000000433 hartrees
 Requested basis set is STO-3G
 There are 86 shells and 176 basis functions
 A cutoff of  1.0D-12 yielded   2158 shell pairs
 There are     10186 function pairs
 Smallest overlap matrix eigenvalue = 2.13E-01
 Guess MOs from SCF MO coefficient file
 Reading MOs from coefficient file
 Reading MOs from coefficient file
 A restricted hybrid HF-DFT SCF calculation will be
 performed using Pulay DIIS extrapolation
 Exchange:     0.2000 Hartree-Fock + 0.0800 Slater + 0.7200 B88
 Correlation:  0.1900 VWN1RPA + 0.8100 LYP
 Using SG-1 standard quadrature grid
 Dispersion:   Grimme D3
 SCF converges when DIIS error is below 1.0E-08
 Geometry optimization detected.  Setting ReadMinima to 0
 Setting SaveMinima to 0
 using 48 threads for integral computing
 -------------------------------------------------------
 OpenMP Integral computing Module                
 Release: version 1.0, May 2013, Q-Chem Inc. Pittsburgh 
 -------------------------------------------------------
 -------------------------------------------------------
 OpenMP BLAS3 based DFT computing Module                
 Release: version 1.0, May 2013, Q-Chem Inc. Pittsburgh 
 -------------------------------------------------------
 ---------------------------------------
  Cycle       Energy         DIIS Error
 ---------------------------------------
    1   -1510.1718411333      6.52E-03
    2   -1510.2822206470      7.07E-04
    3   -1510.2822208248      8.25E-04
    4   -1510.2847980474      3.55E-04
    5   -1510.2853245939      8.68E-05
    6   -1510.2853525843      4.02E-05
    7   -1510.2853590674      1.48E-05
    8   -1510.2853599718      4.64E-06
    9   -1510.2853600726      1.01E-06
   10   -1510.2853600752      8.06E-07
   11   -1510.2853600780      2.24E-07
   12   -1510.2853600784      4.98E-08
   13   -1510.2853600784      2.17E-08
   14   -1510.2853600784      8.34E-09 Convergence criterion met
 ---------------------------------------
 SCF time:  CPU 99.58 s  wall 2.08 s
 SCF   energy in the final basis set = -1510.28536008
 Total energy in the final basis set = -1510.28536008
 
 --------------------------------------------------------------
 
                    Orbital Energies (a.u.)
 --------------------------------------------------------------
 
 Alpha MOs
 -- Occupied --
-18.939 -18.939 -18.933 -18.931 -18.889 -18.887 -18.882 -18.876
-18.875 -18.870 -10.105 -10.101 -10.100 -10.097 -10.074 -10.069
-10.065 -10.061 -10.059 -10.058 -10.057 -10.056 -10.041 -10.040
-10.039 -10.037 -10.021 -10.020 -10.020 -10.019  -1.018  -1.014
 -1.008  -1.007  -0.971  -0.970  -0.942  -0.937  -0.935  -0.934
 -0.765  -0.763  -0.729  -0.723  -0.712  -0.706  -0.698  -0.664
 -0.658  -0.619  -0.598  -0.584  -0.547  -0.545  -0.538  -0.538
 -0.514  -0.510  -0.485  -0.473  -0.464  -0.456  -0.453  -0.448
 -0.444  -0.431  -0.430  -0.415  -0.412  -0.410  -0.407  -0.400
 -0.397  -0.382  -0.372  -0.369  -0.364  -0.358  -0.355  -0.349
 -0.345  -0.339  -0.336  -0.332  -0.331  -0.329  -0.328  -0.312
 -0.310  -0.306  -0.305  -0.299  -0.294  -0.287  -0.283  -0.275
 -0.272  -0.259  -0.254  -0.253  -0.248  -0.235  -0.234  -0.182
 -0.181  -0.176  -0.175  -0.160  -0.158  -0.151  -0.149  -0.144
 -0.144
 -- Virtual --
  0.091   0.093   0.105   0.106   0.208   0.232   0.243   0.256
  0.260   0.276   0.279   0.286   0.300   0.309   0.324   0.328
  0.328   0.332   0.341   0.346   0.355   0.359   0.366   0.371
  0.376   0.382   0.383   0.386   0.400   0.405   0.408   0.410
  0.417   0.419   0.420   0.421   0.422   0.425   0.428   0.432
  0.432   0.435   0.436   0.440   0.440   0.453   0.461   0.466
  0.467   0.485   0.488   0.489   0.499   0.505   0.507   0.541
  0.541   0.551   0.552   0.630   0.636   0.653   0.655
 --------------------------------------------------------------
 
          Ground-State Mulliken Net Atomic Charges

     Atom                 Charge (a.u.)
  ----------------------------------------
      1 O                    -0.217000
      2 C                     0.209192
      3 C                    -0.079719
      4 C                    -0.077535
      5 C                     0.214712
      6 O                    -0.171820
      7 C                    -0.056328
      8 C                    -0.051344
      9 O                    -0.173418
     10 C                     0.209712
     11 C                    -0.079650
     12 C                    -0.078303
     13 C                     0.211263
     14 O                    -0.212548
     15 O                    -0.167930
     16 O                    -0.172621
     17 O                    -0.209845
     18 C                    -0.135626
     19 C                     0.026258
     20 C                    -0.144476
     21 C                    -0.143971
     22 C                     0.024045
     23 O                    -0.186367
     24 H                     0.087157
     25 H                     0.085270
     26 H                     0.082880
     27 H                     0.078188
     28 H                     0.073480
     29 H                     0.078615
     30 H                     0.073287
     31 H                     0.092633
     32 O                    -0.211264
     33 C                    -0.127714
     34 C                     0.025216
     35 C                    -0.143279
     36 C                    -0.144557
     37 C                     0.024570
     38 O                    -0.186614
     39 H                     0.086361
     40 H                     0.087517
     41 H                     0.085020
     42 H                     0.084939
     43 H                     0.078172
     44 H                     0.073520
     45 H                     0.078542
     46 H                     0.073507
     47 H                     0.089321
     48 H                     0.087669
     49 H                     0.089407
     50 H                     0.102091
     51 H                     0.089030
     52 H                     0.089629
     53 H                     0.101198
     54 H                     0.086722
     55 H                     0.102760
     56 H                     0.090044
  ----------------------------------------
  Sum of atomic charges =     0.000000

 -----------------------------------------------------------------
                    Cartesian Multipole Moments
 -----------------------------------------------------------------
    Charge (ESU x 10^10)
                 0.0000
    Dipole Moment (Debye)
         X       0.3369      Y       1.9915      Z      -0.3397
       Tot       2.0482
    Quadrupole Moments (Debye-Ang)
        XX    -147.0221     XY       5.4630     YY    -154.2500
        XZ      19.6049     YZ       1.1223     ZZ    -167.5045
    Octopole Moments (Debye-Ang^2)
       XXX      26.8928    XXY      29.0701    XYY     -28.8914
       YYY      42.6044    XXZ     -10.8185    XYZ     -22.1381
       YYZ       2.1927    XZZ       0.4688    YZZ      -0.8216
       ZZZ      14.4432
    Hexadecapole Moments (Debye-Ang^3)
      XXXX  -15502.4184   XXXY      -8.4620   XXYY   -3215.1159
      XYYY     -83.0801   YYYY   -2826.4779   XXXZ     258.2503
      XXYZ      12.0340   XYYZ     -30.7214   YYYZ     -20.6277
      XXZZ   -2964.7721   XYZZ     -30.3165   YYZZ    -616.7622
      XZZZ     -18.8154   YZZZ      -7.1818   ZZZZ    -780.5070
 -----------------------------------------------------------------
 Calculating analytic gradient of the SCF energy
 Gradient of SCF Energy
            1           2           3           4           5           6
    1  -0.0001819  -0.0006546  -0.0004246  -0.0008637  -0.0007005  -0.0000764
    2   0.0000673   0.0001223  -0.0003619   0.0005981  -0.0000834  -0.0022856
    3  -0.0000668  -0.0005384   0.0004437   0.0000753  -0.0024110  -0.0007020
            7           8           9          10          11          12
    1  -0.0014527  -0.0051216   0.0001148   0.0053782  -0.0001765   0.0018245
    2   0.0020381   0.0021602  -0.0014936   0.0039672   0.0016474  -0.0016711
    3   0.0006376   0.0015480  -0.0010470  -0.0028457   0.0024398  -0.0001541
           13          14          15          16          17          18
    1  -0.0003234  -0.0012020   0.0007386  -0.0000641  -0.0001418   0.0031145
    2  -0.0018764   0.0006525  -0.0005965  -0.0005965  -0.0009415  -0.0005226
    3   0.0004255   0.0019733   0.0002064   0.0003690  -0.0008548  -0.0009435
           19          20          21          22          23          24
    1  -0.0008653   0.0001599  -0.0005862  -0.0015492  -0.0003302  -0.0002860
    2  -0.0007389  -0.0010712   0.0008069   0.0004168   0.0000050   0.0002549
    3  -0.0004460   0.0002110  -0.0000986  -0.0001847  -0.0006576  -0.0003792
           25          26          27          28          29          30
    1   0.0002862   0.0000874   0.0000203   0.0000140   0.0000184   0.0002720
    2  -0.0015823   0.0001223  -0.0001016  -0.0000254   0.0000293   0.0000663
    3  -0.0001848   0.0002786  -0.0000433   0.0000739  -0.0000623   0.0000251
           31          32          33          34          35          36
    1   0.0005724  -0.0020165   0.0004715   0.0002986  -0.0004157   0.0002152
    2   0.0000576   0.0013558   0.0001215  -0.0005552   0.0008033  -0.0004809
    3  -0.0000556   0.0016157  -0.0000447  -0.0000348   0.0000722   0.0000402
           37          38          39          40          41          42
    1  -0.0002156   0.0002402  -0.0002907   0.0003949   0.0009271   0.0001044
    2   0.0003624  -0.0005465   0.0002279   0.0004757  -0.0005176   0.0000589
    3   0.0000985  -0.0001224   0.0000207   0.0003035   0.0001105   0.0000654
           43          44          45          46          47          48
    1   0.0000686   0.0000776  -0.0000006   0.0000331   0.0000023  -0.0000056
    2  -0.0000327  -0.0000629  -0.0000117  -0.0000569  -0.0000459  -0.0000513
    3   0.0000306   0.0000809  -0.0000028  -0.0000433  -0.0000056   0.0000391
           49          50          51          52          53          54
    1  -0.0000330   0.0013244   0.0001800  -0.0000329   0.0010522  -0.0003831
    2  -0.0000197  -0.0021859   0.0000655   0.0000865  -0.0005859  -0.0003004
    3  -0.0000356  -0.0000705   0.0001574  -0.0001338   0.0003308   0.0008930
           55          56
    1  -0.0001302   0.0005335
    2   0.0035036  -0.0006713
    3  -0.0008003   0.0004039
 Max gradient component =       5.378E-03
 RMS gradient           =       1.077E-03
 Gradient time:  CPU 28.95 s  wall 0.61 s
 Geometry Optimization Parameters
   NAtoms,    NIC,     NZ,  NCons,   NDum,   NFix, NCnnct, MaxDiis
       56     458       0       0       0       0       0       0

 Cartesian Hessian Update
 Hessian Updated using BFGS Update


** GEOMETRY OPTIMIZATION IN DELOCALIZED INTERNAL COORDINATES **
   Searching for a Minimum

   Optimization Cycle:   3

                       Coordinates (Angstroms)
     ATOM                X               Y               Z
      1  O        -3.8461981242    1.7348371167    1.4026844995
      2  C        -3.8625256363    1.6005536751    0.1601235995
      3  C        -4.3803126395    0.3772598353   -0.6712011468
      4  C        -3.3618801641   -0.8432935747   -0.6864889776
      5  C        -2.1475565592   -0.6498259810    0.2900845769
      6  O        -1.4391759825    0.5299550104   -0.0971198584
      7  C        -0.3524349486    0.8276020653    0.8715187449
      8  C         0.4642195590    2.0509825950    0.3210258044
      9  O         1.8979441072    1.8919416907    0.6826691516
     10  C         2.5829343128    1.0388544511   -0.2541971339
     11  C         4.0344351020    0.8152958960    0.2851928564
     12  C         4.4293159037   -0.6972931524    0.5941539875
     13  C         3.3503936528   -1.8320604814    0.4388460555
     14  O         3.5966452810   -2.9860558868    0.0258929604
     15  O        -3.3866752034    2.5903318928   -0.7612483336
     16  O         2.0540703581   -1.4423268209    0.9107632581
     17  O         2.0740059216    0.5945294275   -1.3055852420
     18  C         1.1538218367   -2.6193155362    0.7903327038
     19  C         5.0859739244    1.1542615595   -0.8609657161
     20  C         6.5176979151    1.3007763772   -0.2098009965
     21  C         6.8913820083   -0.2038700270    0.0456355002
     22  C         5.5880958128   -0.9290683775   -0.4662619709
     23  O         5.1678231568   -0.1088472675   -1.6263679952
     24  H         4.1676720606    1.4523715739    1.1764985150
     25  H         4.8244534987   -0.7831275755    1.6245124934
     26  H         4.7833530315    1.9901183846   -1.5210130739
     27  H         7.2153711216    1.7779611958   -0.9160930491
     28  H         6.4902041083    1.8965723530    0.7165748425
     29  H         7.7615396061   -0.5104108186   -0.5565564039
     30  H         7.1023005041   -0.4184678338    1.1054854737
     31  H         5.7091064804   -1.9906105086   -0.7588079252
     32  O        -1.8310277459   -1.3741507693    1.2597975381
     33  C        -2.8242874317    3.7402331608   -0.0180218571
     34  C        -5.6580640951   -0.3198353426   -0.0312593662
     35  C        -6.3493893137   -1.1823621629   -1.1585634827
     36  C        -5.3387969016   -2.3843055190   -1.2795109253
     37  C        -4.2859945206   -2.0146036259   -0.1617047265
     38  O        -5.0948031032   -1.3403931001    0.8810984969
     39  H        -4.5832238536    0.7279891709   -1.6983478747
     40  H        -2.9706801831   -1.0206789755   -1.7049271053
     41  H        -2.0135945284    3.4223065168    0.6681770958
     42  H        -6.3269980099    0.3661054371    0.5235514508
     43  H        -7.3421854797   -1.5240957496   -0.8247705765
     44  H        -6.4649156404   -0.6246388513   -2.1014719362
     45  H        -5.8235335643   -3.3465429700   -1.0508827221
     46  H        -4.8757348225   -2.4498112676   -2.2772116236
     47  H        -3.7259273370   -2.8637887721    0.2757289147
     48  H        -3.6013818953    4.2636652909    0.5761388367
     49  H        -2.4163407526    4.4286214858   -0.7807607336
     50  H         0.1659836602   -2.3085097895    1.1835779989
     51  H         1.5390988373   -3.4776490798    1.3758357837
     52  H         1.0485389168   -2.9331928591   -0.2676769920
     53  H         0.3468127937    2.0933006683   -0.7831619540
     54  H         0.1364148598    3.0031910626    0.7806382428
     55  H         0.3564674681   -0.0233337841    0.9500366413
     56  H        -0.7700476933    1.0273186459    1.8812283036
   Point Group: c1    Number of degrees of freedom:   162


   Energy is  -1510.285360078

 Hessian Updated using BFGS Update

152 Hessian modes will be used to form the next step
  Hessian Eigenvalues:
     0.001765    0.002000    0.002059    0.002683    0.002698    0.003927
     0.004049    0.004174    0.004425    0.004474    0.004569    0.005037
     0.006755    0.006813    0.006838    0.010651    0.011203    0.011376
     0.021579    0.021685    0.025290    0.026237    0.030710    0.030800
     0.034591    0.035617    0.035854    0.040430    0.040929    0.041808
     0.042308    0.044448    0.046673    0.047689    0.048188    0.050910
     0.051523    0.051900    0.053212    0.053506    0.054301    0.054342
     0.054841    0.055306    0.055909    0.057995    0.058625    0.058996
     0.060544    0.060598    0.063768    0.063883    0.064081    0.064131
     0.069884    0.070115    0.072657    0.073037    0.074864    0.091786
     0.092768    0.092772    0.093360    0.095834    0.096781    0.097238
     0.099387    0.101886    0.102554    0.108134    0.108852    0.110026
     0.110670    0.121003    0.130964    0.134507    0.139365    0.157231
     0.159996    0.159999    0.160000    0.162735    0.163345    0.169768
     0.219563    0.219943    0.220213    0.225654    0.226714    0.235064
     0.237932    0.239285    0.239850    0.239867    0.245760    0.248074
     0.249223    0.249401    0.249455    0.249853    0.249951    0.249988
     0.253474    0.253726    0.256314    0.259703    0.259896    0.262619
     0.267786    0.292437    0.292849    0.306713    0.307335    0.324707
     0.325178    0.325348    0.326535    0.327381    0.327436    0.327465
     0.327861    0.328425    0.328928    0.328985    0.328996    0.329228
     0.329422    0.330830    0.331028    0.332241    0.332767    0.334746
     0.334913    0.334917    0.334920    0.334976    0.335044    0.335160
     0.335271    0.336882    0.340096    0.341647    0.345476    0.396885
     0.399472    0.404809    0.410548    0.827716    0.831627    0.832658
     0.833423    5.112975

 Minimum Search - Taking Simple RFO Step
 Searching for Lamda that Minimizes Along All modes
 Value Taken    Lamda =  -0.00760307
 Calculated Step too Large.  Step scaled by  0.489485
 Step Taken.  Stepsize is  0.300000

                             Maximum     Tolerance    Cnvgd?
         Gradient           0.041219      0.000300      NO
         Displacement       0.130338      0.001200      NO
         Energy change     -0.017586      0.000001      NO


 New Cartesian Coordinates Obtained by Inverse Iteration

 Displacement from previous Coordinates is:  3.283926
 Adding empirical dispersion correction 
 ----------------------------------------------------------------
 Doing -D3(op) with
 s6 =   1.00000
 s8 =   0.78311
 a1 =   0.30000
 a2 =   4.25000
 n  =  10.00000
 -D3 energy without 3body term =     -0.0679404400 hartrees
 ----------------------------------------------------------------
             Standard Nuclear Orientation (Angstroms)
    I     Atom           X                Y                Z
 ----------------------------------------------------------------
    1      O      -4.0891618320     1.8080860249     1.4125919296
    2      C      -4.0001564082     1.6621522557     0.1744099155
    3      C      -4.3718001583     0.3987488987    -0.6756817834
    4      C      -3.2871492033    -0.7649789439    -0.6105790672
    5      C      -2.1443500919    -0.5164191893     0.4379436191
    6      O      -1.3960996427     0.6327559982     0.0347177040
    7      C      -0.2822201130     0.8864690614     0.9844532618
    8      C       0.5846359874     2.0592450094     0.3984526445
    9      O       2.0118748390     1.8490561114     0.7476687537
   10      C       2.6387547857     0.9657203047    -0.1987481917
   11      C       4.1095682551     0.7324810540     0.2788342466
   12      C       4.4831913914    -0.7827451382     0.5702056258
   13      C       3.3623486616    -1.8756154123     0.4317283601
   14      O       3.5473293974    -3.0267017725    -0.0206915696
   15      O      -3.6429871253     2.7128300375    -0.7332061703
   16      O       2.0940720239    -1.4236867358     0.9264798659
   17      O       2.0860380634     0.5370584726    -1.2340297949
   18      C       1.1131570069    -2.5344094329     0.8096685851
   19      C       5.1290918055     1.0564932055    -0.9010147857
   20      C       6.5823728204     1.1796560480    -0.2939711059
   21      C       6.9382293301    -0.3322871905    -0.0471509289
   22      C       5.6086590611    -1.0356871310    -0.5210825871
   23      O       5.1694550670    -0.2075189142    -1.6681874605
   24      H       4.2834347417     1.3642361317     1.1670950598
   25      H       4.8996827712    -0.8784743826     1.5911801369
   26      H       4.8188943276     1.8966438661    -1.5521674268
   27      H       7.2663457784     1.6449623924    -1.0212946403
   28      H       6.5923481323     1.7765596383     0.6320013723
   29      H       7.7857304181    -0.6541897435    -0.6731164093
   30      H       7.1745194110    -0.5499179726     1.0066539894
   31      H       5.7002018894    -2.0991933260    -0.8171071881
   32      O      -1.8448835626    -1.2426637673     1.4115324421
   33      C      -3.3573544988     3.9534930340     0.0216214890
   34      C      -5.6500686030    -0.3660569075    -0.1193119727
   35      C      -6.2118591516    -1.2747620482    -1.2820323151
   36      C      -5.1305212420    -2.4179890507    -1.3191165003
   37      C      -4.1803854077    -1.9810669053    -0.1358070263
   38      O      -5.0951116191    -1.3450817231     0.8417479250
   39      H      -4.5252281554     0.7285127081    -1.7181523250
   40      H      -2.8244291614    -0.9323777207    -1.6005017475
   41      H      -2.5677470437     3.7942159620     0.7824573543
   42      H      -6.3942456044     0.2844785330     0.3794841029
   43      H      -7.2049690462    -1.6693899976    -1.0138766900
   44      H      -6.2925410225    -0.7313952846    -2.2369697837
   45      H      -5.5756146938    -3.4042464741    -1.1134253080
   46      H      -4.5963120318    -2.4647492777    -2.2816481226
   47      H      -3.6058228610    -2.7945754964     0.3481015689
   48      H      -4.2632011604     4.3383262894     0.5337195254
   49      H      -3.0120211798     4.6937081954    -0.7232846332
   50      H       0.1557778921    -2.1512584624     1.2161160671
   51      H       1.4418947285    -3.4217486189     1.3861032876
   52      H       0.9735987891    -2.8330217005    -0.2486750431
   53      H       0.4530831388     2.0875930448    -0.7049272959
   54      H       0.3056479965     3.0348720384     0.8404339953
   55      H       0.3780869256    -0.0038511286     1.0759568238
   56      H      -0.6793951459     1.1321756116     1.9922228491
 ----------------------------------------------------------------
 Molecular Point Group                 C1    NOp =  1
 Largest Abelian Subgroup              C1    NOp =  1
 Nuclear Repulsion Energy =  3117.4801709835 hartrees
 There are      113 alpha and      113 beta electrons
 Applying Cartesian multipole field
    Component          Value
    ---------          -----
     (2,0,0)        1.00000E-12
     (0,2,0)        2.00000E-11
     (0,0,2)       -3.00000E-11
 Nucleus-field energy     =     0.0000000437 hartrees
 Requested basis set is STO-3G
 There are 86 shells and 176 basis functions
 A cutoff of  1.0D-12 yielded   2136 shell pairs
 There are     10047 function pairs
 Smallest overlap matrix eigenvalue = 2.13E-01
 Guess MOs from SCF MO coefficient file
 Reading MOs from coefficient file
 Reading MOs from coefficient file
 A restricted hybrid HF-DFT SCF calculation will be
 performed using Pulay DIIS extrapolation
 Exchange:     0.2000 Hartree-Fock + 0.0800 Slater + 0.7200 B88
[...]
 Total energy in the final basis set = -1510.29026877
 
 --------------------------------------------------------------
 
                    Orbital Energies (a.u.)
 --------------------------------------------------------------
 
 Alpha MOs
 -- Occupied --
-18.948 -18.934 -18.932 -18.926 -18.895 -18.889 -18.887 -18.878
-18.870 -18.868 -10.116 -10.102 -10.098 -10.094 -10.074 -10.072
-10.065 -10.062 -10.061 -10.061 -10.056 -10.045 -10.043 -10.039
-10.038 -10.036 -10.023 -10.022 -10.020 -10.019  -1.026  -1.014
 -1.007  -1.003  -0.972  -0.969  -0.952  -0.939  -0.933  -0.929
 -0.767  -0.763  -0.731  -0.723  -0.712  -0.707  -0.698  -0.664
 -0.651  -0.619  -0.599  -0.582  -0.549  -0.544  -0.540  -0.536
 -0.516  -0.509  -0.485  -0.478  -0.462  -0.460  -0.457  -0.450
 -0.440  -0.432  -0.430  -0.417  -0.413  -0.409  -0.403  -0.401
 -0.399  -0.387  -0.373  -0.368  -0.363  -0.359  -0.355  -0.351
 -0.346  -0.338  -0.335  -0.333  -0.331  -0.328  -0.325  -0.314
 -0.309  -0.309  -0.304  -0.303  -0.294  -0.288  -0.282  -0.276
 -0.272  -0.258  -0.254  -0.252  -0.245  -0.236  -0.233  -0.191
 -0.176  -0.175  -0.172  -0.169  -0.160  -0.150  -0.147  -0.146
 -0.143
 -- Virtual --
  0.082   0.091   0.107   0.112   0.202   0.235   0.243   0.258
  0.265   0.279   0.282   0.285   0.299   0.312   0.323   0.330
  0.335   0.337   0.344   0.348   0.356   0.362   0.368   0.371
  0.376   0.381   0.382   0.388   0.401   0.401   0.407   0.412
  0.415   0.417   0.419   0.422   0.425   0.428   0.430   0.431
  0.432   0.434   0.436   0.438   0.443   0.452   0.461   0.465
  0.467   0.476   0.486   0.488   0.501   0.504   0.507   0.538
  0.542   0.549   0.552   0.631   0.646   0.652   0.654
 --------------------------------------------------------------
 
          Ground-State Mulliken Net Atomic Charges

     Atom                 Charge (a.u.)
  ----------------------------------------
      1 O                    -0.220046
      2 C                     0.211868
      3 C                    -0.079749
      4 C                    -0.077451
      5 C                     0.223011
      6 O                    -0.170211
      7 C                    -0.054541
      8 C                    -0.054497
      9 O                    -0.172786
     10 C                     0.212927
     11 C                    -0.079263
     12 C                    -0.078727
     13 C                     0.211736
     14 O                    -0.209445
     15 O                    -0.169855
     16 O                    -0.178543
     17 O                    -0.212416
     18 C                    -0.143886
     19 C                     0.025936
     20 C                    -0.143658
     21 C                    -0.144209
     22 C                     0.024645
     23 O                    -0.186369
     24 H                     0.086892
     25 H                     0.084620
     26 H                     0.082782
     27 H                     0.078037
     28 H                     0.073455
     29 H                     0.078406
     30 H                     0.073270
     31 H                     0.091709
     32 O                    -0.208684
     33 C                    -0.128157
     34 C                     0.025491
     35 C                    -0.143691
     36 C                    -0.144252
     37 C                     0.024345
     38 O                    -0.186779
     39 H                     0.086601
     40 H                     0.087742
     41 H                     0.084059
     42 H                     0.084697
     43 H                     0.078681
     44 H                     0.073899
     45 H                     0.079195
     46 H                     0.073647
     47 H                     0.090718
     48 H                     0.088962
     49 H                     0.089268
     50 H                     0.106157
     51 H                     0.082578
     52 H                     0.086634
     53 H                     0.103672
     54 H                     0.085719
     55 H                     0.105628
     56 H                     0.090232
  ----------------------------------------
  Sum of atomic charges =     0.000000

 -----------------------------------------------------------------
                    Cartesian Multipole Moments
 -----------------------------------------------------------------
    Charge (ESU x 10^10)
                 0.0000
    Dipole Moment (Debye)
         X      -1.2169      Y       2.3099      Z      -0.0371
       Tot       2.6111
    Quadrupole Moments (Debye-Ang)
        XX    -147.4255     XY       7.3055     YY    -155.1654
        XZ      21.2652     YZ      -0.2416     ZZ    -167.6281
    Octopole Moments (Debye-Ang^2)
       XXX     -53.7959    XXY      32.6451    XYY     -35.7042
       YYY      46.6625    XXZ      31.1901    XYZ     -29.0700
       YYZ      11.1084    XZZ     -10.7482    YZZ       5.8515
       ZZZ      27.3525
    Hexadecapole Moments (Debye-Ang^3)
      XXXX  -16542.1389   XXXY      88.3830   XXYY   -3347.5906
      XYYY     -73.1551   YYYY   -2738.1122   XXXZ     373.5347
      XXYZ     -18.1089   XYYZ      -5.5997   YYYZ     -59.5114
      XXZZ   -3139.6653   XYZZ      -6.3473   YYZZ    -592.9094
      XZZZ      37.0993   YZZZ     -35.6200   ZZZZ    -658.6669
 -----------------------------------------------------------------
 Calculating analytic gradient of the SCF energy
 Gradient of SCF Energy
            1           2           3           4           5           6
    1   0.0000887  -0.0002623   0.0000020  -0.0000182   0.0000190   0.0000451
    2  -0.0000478   0.0000361   0.0000043  -0.0000363  -0.0000628  -0.0000061
    3   0.0000373  -0.0000020   0.0000100   0.0000270  -0.0000413  -0.0001321
            7           8           9          10          11          12
    1  -0.0001459  -0.0000810  -0.0000028  -0.0000112   0.0000154   0.0000847
    2  -0.0001078   0.0001272   0.0000504  -0.0001088  -0.0000311   0.0000230
    3  -0.0000053   0.0000531  -0.0001572   0.0000881  -0.0000765   0.0000608
           13          14          15          16          17          18
    1  -0.0000804  -0.0000061   0.0002625   0.0000623   0.0000478   0.0001066
    2   0.0000498  -0.0000093  -0.0000939  -0.0000682   0.0000590  -0.0000333
    3  -0.0000486   0.0000327   0.0001430   0.0000853   0.0000191  -0.0000415
           19          20          21          22          23          24
    1   0.0000437  -0.0000180  -0.0000353   0.0000071  -0.0000403   0.0000359
    2   0.0000264  -0.0000142   0.0000132  -0.0000180   0.0000749   0.0000108
    3  -0.0000200  -0.0000205   0.0000153   0.0000604  -0.0000658  -0.0000367
           25          26          27          28          29          30
    1  -0.0000262   0.0000021  -0.0000037   0.0000103  -0.0000035   0.0000000
    2   0.0000145  -0.0000126   0.0000010   0.0000239  -0.0000040   0.0000237
    3   0.0000223  -0.0000008  -0.0000044   0.0000027   0.0000013   0.0000161
           31          32          33          34          35          36
    1   0.0000002  -0.0001224   0.0000733   0.0001313  -0.0000068   0.0000106
    2   0.0000153   0.0000744   0.0001055  -0.0001054  -0.0000217  -0.0000134
    3   0.0000103   0.0000622  -0.0002217  -0.0000386  -0.0000057  -0.0000331
           37          38          39          40          41          42
    1  -0.0001088   0.0000004   0.0000430  -0.0000044  -0.0001354   0.0000228
    2   0.0001455  -0.0000125   0.0000245   0.0000295  -0.0000858  -0.0000275
    3   0.0000106   0.0001693  -0.0000075  -0.0000139   0.0000082  -0.0000194
           43          44          45          46          47          48
    1  -0.0000161   0.0000013  -0.0000017  -0.0000195  -0.0000162  -0.0000910
    2  -0.0000533  -0.0000376   0.0000096  -0.0000227   0.0000070  -0.0000115
    3  -0.0000101  -0.0000127   0.0000297  -0.0000112   0.0000324  -0.0000718
           49          50          51          52          53          54
    1   0.0000274   0.0000069   0.0000198   0.0000193  -0.0000601  -0.0000221
    2   0.0000559  -0.0000607   0.0000112  -0.0000046  -0.0000265  -0.0000151
    3  -0.0000168   0.0000175   0.0000297   0.0000243   0.0000590   0.0000279
           55          56
    1   0.0000696   0.0000804
    2   0.0000930   0.0000425
    3  -0.0000481   0.0000077
 Max gradient component =       2.625E-04
 RMS gradient           =       6.401E-05
 Gradient time:  CPU 28.92 s  wall 0.61 s
 Geometry Optimization Parameters
   NAtoms,    NIC,     NZ,  NCons,   NDum,   NFix, NCnnct, MaxDiis
       56     458       0       0       0       0       0       0

 Cartesian Hessian Update
 Hessian Updated using BFGS Update


** GEOMETRY OPTIMIZATION IN DELOCALIZED INTERNAL COORDINATES **
   Searching for a Minimum

   Optimization Cycle: 100

                       Coordinates (Angstroms)
     ATOM                X               Y               Z
      1  O        -3.5601684930    1.6275793999    1.5324568302
      2  C        -3.8605680029    1.5905629830    0.3197078850
      3  C        -4.5220692101    0.4105659666   -0.4769184470
      4  C        -3.5592035547   -0.8306058469   -0.7131546638
      5  C        -2.1475751190   -0.6768044242   -0.0460178327
      6  O        -1.6382590914    0.6194566407   -0.3650363857
      7  C        -0.3873830277    0.9086411150    0.3797037879
      8  C         0.5707144669    1.7254138169   -0.5543380936
      9  O         1.9118186897    1.7595265794    0.0763000424
     10  C         2.7885907519    0.8315792387   -0.5863092398
     11  C         4.1115974919    0.7416416725    0.2379435794
     12  C         4.4903536280   -0.7478688260    0.6361743426
     13  C         3.4929702853   -1.8407965426    0.1036498926
     14  O         3.7789082017   -2.8265017002   -0.6086168880
     15  O        -3.7036795961    2.6947472961   -0.5834243279
     16  O         2.1766637010   -1.5573925945    0.5920116147
     17  O         2.5034048691    0.2338443087   -1.6472162242
     18  C         1.2232275491   -2.5690796173    0.0716399067
     19  C         5.3841538129    1.1430505612   -0.6293138465
     20  C         6.5913880306    1.3902640801    0.3604978364
     21  C         6.9709747488   -0.0864156786    0.7531349418
     22  C         5.9000426685   -0.9034951623   -0.0694222990
     23  O         5.7437076747   -0.1161250690   -1.3154680589
     24  H         4.0054234739    1.3845510605    1.1288316426
     25  H         4.5630222893   -0.8477413663    1.7349129750
     26  H         5.2031715764    1.9497908679   -1.3658095747
     27  H         7.4191854200    1.8961596394   -0.1614562527
     28  H         6.2947465458    1.9995981615    1.2290405626
     29  H         7.9897409835   -0.3433055394    0.4219923072
     30  H         6.8937953610   -0.2721299359    1.8364314779
     31  H         6.1637464490   -1.9521077861   -0.3084066239
     32  O        -1.5482011502   -1.5330670635    0.6425434415
     33  C        -3.0696410702    3.8333189256    0.1177658811
     34  C        -5.6871852069   -0.2840529204    0.3533025768
     35  C        -6.5652047786   -1.1390685974   -0.6437412034
     36  C        -5.6133626190   -2.3639932924   -0.9126485863
     37  C        -4.3749262352   -1.9914866984   -0.0088744859
     38  O        -4.9814516257   -1.3076430585    1.1570186497
     39  H        -4.8855648727    0.8130636613   -1.4384964775
     40  H        -3.4156194587   -1.0178432549   -1.7938074355
     41  H        -2.0485247355    3.5773492670    0.4664122576
     42  H        -6.2513757837    0.4027307371    1.0134510742
     43  H        -7.5005758072   -1.4556685844   -0.1555483275
     44  H        -6.8158509790   -0.5832467814   -1.5614814319
     45  H        -6.0657313385   -3.3091601920   -0.5729966339
     46  H        -5.3385349213   -2.4657824743   -1.9747154544
     47  H        -3.7441007092   -2.8388345595    0.3238358625
     48  H        -3.6671813142    4.1587098515    0.9937042468
     49  H        -3.0126872352    4.6556261320   -0.6190284666
     50  H         0.2094577160   -2.2373897420    0.3859951484
     51  H         1.4401295309   -3.5734696683    0.4876809340
     52  H         1.2742409323   -2.6288864660   -1.0340167185
     53  H         0.6498936917    1.2257228552   -1.5445944406
     54  H         0.2189611684    2.7693872876   -0.6776898548
     55  H         0.1059411694   -0.0368456698    0.6872922882
     56  H        -0.6429572716    1.4883970855    1.2929409172
   Point Group: c1    Number of degrees of freedom:   162


   Energy is  -1510.290268772

 Hessian Updated using BFGS Update

162 Hessian modes will be used to form the next step
  Hessian Eigenvalues:
     0.000444    0.001560    0.002524    0.002613    0.003196    0.004092
     0.005089    0.005825    0.005998    0.006485    0.009393    0.015356
     0.018038    0.021688    0.021864    0.022322    0.025040    0.027134
     0.027713    0.030478    0.031416    0.032272    0.034462    0.035190
     0.037433    0.040819    0.041520    0.041967    0.042875    0.043687
     0.044683    0.047167    0.047449    0.048677    0.049658    0.051399
     0.052021    0.053402    0.054513    0.054943    0.055443    0.056112
     0.056404    0.057182    0.057690    0.058943    0.059483    0.061497
     0.062873    0.063482    0.064263    0.064500    0.065358    0.067831
     0.069862    0.070644    0.071987    0.073163    0.074021    0.080380
     0.091412    0.093163    0.093264    0.097469    0.098742    0.101124
     0.104026    0.106280    0.108732    0.110202    0.111869    0.115835
     0.118077    0.124533    0.138160    0.141628    0.142758    0.145385
     0.159871    0.160416    0.161204    0.162799    0.162916    0.164785
     0.168933    0.175368    0.186446    0.201673    0.214192    0.220427
     0.221318    0.230837    0.237303    0.239879    0.240418    0.240879
     0.241834    0.246373    0.248289    0.248540    0.250091    0.251817
     0.253185    0.256120    0.256873    0.257792    0.260408    0.261201
     0.264188    0.268990    0.273057    0.276772    0.290371    0.292309
     0.296947    0.303210    0.305606    0.308281    0.315471    0.323468
     0.325144    0.325849    0.326905    0.327521    0.327966    0.328353
     0.328611    0.328872    0.329066    0.329448    0.330300    0.330675
     0.331097    0.331783    0.332509    0.333308    0.333532    0.334881
     0.334986    0.335129    0.335155    0.335347    0.335535    0.336348
     0.338077    0.351641    0.357846    0.361098    0.364228    0.381368
     0.406183    0.420055    0.443775    0.466810    0.525549    0.825517
     0.831838    0.832603    0.836903    1.255079    2.172607   11.134880

 Minimum Search - Taking Simple RFO Step
 Searching for Lamda that Minimizes Along All modes
 Value Taken    Lamda =  -0.00026671
 Calculated Step too Large.  Step scaled by  0.497721
 Step Taken.  Stepsize is  0.300000

                             Maximum     Tolerance    Cnvgd?
         Gradient           0.001620      0.000300      NO
         Displacement       0.119471      0.001200      NO
         Energy change     -0.000072      0.000001      NO


 New Cartesian Coordinates Obtained by Inverse Iteration

 Displacement from previous Coordinates is:  1.442853
 Adding empirical dispersion correction 
 ----------------------------------------------------------------
 Doing -D3(op) with
 s6 =   1.00000
 s8 =   0.78311
 a1 =   0.30000
 a2 =   4.25000
 n  =  10.00000
 -D3 energy without 3body term =     -0.0689641542 hartrees
 ----------------------------------------------------------------
             Standard Nuclear Orientation (Angstroms)
    I     Atom           X                Y                Z
 ----------------------------------------------------------------
    1      O      -3.4667503451     1.5596828675     1.5411494021
    2      C      -3.8525942683     1.5783201525     0.3522017101
    3      C      -4.5398249844     0.4231841198    -0.4585015696
    4      C      -3.5821879631    -0.8073305031    -0.7607045874
    5      C      -2.1530516002    -0.6629901781    -0.1297206665
    6      O      -1.6450938444     0.6324978614    -0.4556034645
    7      C      -0.3907317109     0.9211373493     0.2836203530
    8      C       0.5900134578     1.6901979832    -0.6671782604
    9      O       1.9193372625     1.7412080079    -0.0133887319
   10      C       2.8091308819     0.7979639626    -0.6358201729
   11      C       4.1180642211     0.7385227400     0.2134362438
   12      C       4.4942852396    -0.7344661849     0.6709129411
   13      C       3.5105892947    -1.8496194234     0.1594972735
   14      O       3.8137091945    -2.8619825349    -0.5069268591
   15      O      -3.8017611117     2.7380499559    -0.4917160530
   16      O       2.1832658609    -1.5469363828     0.6028843906
   17      O       2.5436765910     0.1703703142    -1.6844972135
   18      C       1.2417774067    -2.5789352874     0.1012470570
   19      C       5.4050666559     1.1128963215    -0.6445298017
   20      C       6.5933368380     1.4000537168     0.3571303013
   21      C       6.9706060770    -0.0599164468     0.8093742397
   22      C       5.9174726030    -0.9102395457    -0.0021177180
   23      O       5.7810827827    -0.1690097467    -1.2785347061
   24      H       3.9946953108     1.4119059376     1.0794300528
   25      H       4.5469600114    -0.7948852444     1.7736140477
   26      H       5.2351129008     1.8922406249    -1.4124889862
   27      H       7.4286193184     1.8896363483    -0.1685099311
   28      H       6.2800313564     2.0394278950     1.1977690951
   29      H       7.9963889739    -0.3242335325     0.5068194882
   30      H       6.8735594974    -0.2069259940     1.8969964415
   31      H       6.1885432659    -1.9658389096    -0.1982119201
   32      O      -1.5417563321    -1.5273404072     0.5379021161
   33      C      -3.1160694902     3.8442537113     0.2138789695
   34      C      -5.6764028388    -0.2978165723     0.3898186298
   35      C      -6.5846731494    -1.1265308809    -0.6012446396
   36      C      -5.6382233877    -2.3395171833    -0.9387388418
   37      C      -4.3717043321    -1.9910831049    -0.0648191932
   38      O      -4.9422396092    -1.3422913077     1.1387791546
   39      H      -4.9372297452     0.8532722959    -1.3942849255
   40      H      -3.4698590192    -0.9642821715    -1.8497361422
   41      H      -2.0297471273     3.6434434471     0.3203977812
   42      H      -6.2200306683     0.3682058348     1.0876559357
   43      H      -7.5013250722    -1.4604932001    -0.0898980766
   44      H      -6.8686392431    -0.5450562679    -1.4928962068
   45      H      -6.0764454239    -3.2971839578    -0.6158052934
   46      H      -5.3967152535    -2.4059945441    -2.0115979429
   47      H      -3.7287702677    -2.8457639131     0.2229513310
   48      H      -3.5411120586     4.0167168518     1.2233246026
   49      H      -3.2601046048     4.7438118316    -0.4122823439
   50      H       0.2196824982    -2.2230015347     0.3567684607
   51      H       1.4324716630    -3.5599656093     0.5811242246
   52      H       1.3365352080    -2.7006676992    -0.9963843454
   53      H       0.6846156668     1.1490098247    -1.6341748230
   54      H       0.2488011716     2.7306244080    -0.8409782071
   55      H       0.0805684776    -0.0244052194     0.6232600553
   56      H      -0.6425665665     1.5325392028     1.1771719528
 ----------------------------------------------------------------
 Molecular Point Group                 C1    NOp =  1
 Largest Abelian Subgroup              C1    NOp =  1
 Nuclear Repulsion Energy =  3116.4240292463 hartrees
 There are      113 alpha and      113 beta electrons


 *******************************************
 **  MAXIMUM OPTIMIZATION CYCLES REACHED  **
 *******************************************

 Q-Chem fatal error occurred in module 0, line  456, PE  0:

 Maximum optimization cycles reached

