mFile = /opt/software/qchem/qchem-5.0.1//bin/mpi/machines
Process 0 of 1 is on vega02.cac.cornell.edu - thread support 0
initial socket setup ...start
initial socket setup ...done 
now start server 0 ... 
vega02.cac.cornell.edu 10.84.3
Q-Chem Developer Version! Running on 10.84.3.*
                  Welcome to Q-Chem
     A Quantum Leap Into The Future Of Chemistry


 Q-Chem 5.0, Q-Chem, Inc., Pleasanton, CA (2017)

 Yihan Shao,  Zhengting Gan,  E. Epifanovsky,  A. T. B. Gilbert,  M. Wormit,  
 J. Kussmann,  A. W. Lange,  A. Behn,  Jia Deng,  Xintian Feng,  D. Ghosh,  
 M. Goldey,  P. R. Horn,  L. D. Jacobson,  I. Kaliman,  T. Kus,  A. Landau,  
 Jie Liu,  E. I. Proynov,  R. M. Richard,  R. P. Steele,  E. J. Sundstrom,  
 H. L. Woodcock III,  P. M. Zimmerman,  D. Zuev,  B. Albrecht,  E. Alguire,  
 S. A. Baeppler,  Z. Benda,  Y. A. Bernard,  E. J. Berquist,  K. B. Bravaya,  
 D. Casanova,  Chun-Min Chang,  Yunqing Chen,  A. Chien,  K. D. Closser,  
 M. P. Coons,  S. Dasgupta,  M. Diedenhofen,  Hainam Do,  R. G. Edgar,  
 Po-Tung Fang,  S. Fatehi,  Qingguo Feng,  Qinghui Ge,  A. Ghysels,  
 J. Gomes,  J. Gonthier,  A. Gunina,  M. W. D. Hanson-Heine,  
 P. H. P. Harbach,  A. W. Hauser,  J. E. Herr,  E. G. Hohenstein,  
 Z. C. Holden,  Kerwin Hui,  T.-C. Jagau,  Hyunjun Ji,  B. Kaduk,  
 K. Khistyaev,  Jaehoon Kim,  P. Klunzinger,  K. Koh,  D. Kosenkov,  
 T. Kowalczyk,  C. M. Krauter,  A. Kunitsa,  Ka Un Lao,  A. Laurent,  
 K. V. Lawler,  Joonho Lee,  D. Lefrancois,  S. Lehtola,  D. S. Levine,  
 Yi-Pei Li,  You-Sheng Lin,  Fenglai Liu,  E. Livshits,  A. Luenser,  
 P. Manohar,  E. Mansoor,  S. F. Manzer,  Shan-Ping Mao,  Yuezhi Mao,  
 N. Mardirossian,  A. V. Marenich,  L. A. Martinez-Martinez,  S. A. Maurer,  
 N. J. Mayhall,  S. C. McKenzie,  J.-M. Mewes,  A. F. Morrison,  K. Nanda,  
 T. S. Nguyen-Beck,  R. Olivares-Amaya,  J. A. Parkhill,  T. M. Perrine,  
 F. Plasser,  S. Prager,  A. Prociuk,  D. R. Rehn,  F. Rob,  M. Schneider,  
 N. Sergueev,  S. M. Sharada,  S. Sharma,  D. W. Small,  T. Stauch,  
 T. Stein,  Yu-Chuan Su,  A. J. W. Thom,  T. Tsuchimochi,  L. Vogt,  
 O. Vydrov,  M. A. Watson,  J. Wenzel,  M. de Wergifosse,  T. A. Wesolowski,  
 A. White,  J. Witte,  A. Yamada,  Jun Yang,  K. Yao,  S. Yeganeh,  
 S. R. Yost,  Zhi-Qiang You,  A. Zech,  Igor Ying Zhang,  Xing Zhang,  
 Yan Zhao,  Ying Zhu,  B. R. Brooks,  G. K. L. Chan,  C. J. Cramer,  
 M. S. Gordon,  W. J. Hehre,  A. Klamt,  M. W. Schmidt,  C. D. Sherrill,  
 D. G. Truhlar,  A. Aspuru-Guzik,  R. Baer,  A. T. Bell,  N. A. Besley,  
 Jeng-Da Chai,  A. Dreuw,  B. D. Dunietz,  T. R. Furlani,  Chao-Ping Hsu,  
 Yousung Jung,  Jing Kong,  D. S. Lambrecht,  WanZhen Liang,  C. Ochsenfeld,  
 V. A. Rassolov,  L. V. Slipchenko,  J. E. Subotnik,  T. Van Voorhis,  
 J. M. Herbert,  A. I. Krylov,  P. M. W. Gill,  M. Head-Gordon

 Contributors to earlier versions of Q-Chem not listed above: 
 R. D. Adamson,  B. Austin,  J. Baker,  G. J. O. Beran,  K. Brandhorst,  
 S. T. Brown,  E. F. C. Byrd,  A. K. Chakraborty,  C.-L. Cheng,  
 Siu Hung Chien,  D. M. Chipman,  D. L. Crittenden,  H. Dachsel,  
 R. A. DiStasio Jr.,  R. J. Doerksen,  A. D. Dutoi,  L. Fusti-Molnar,  
 W. A. Goddard III,  A. Golubeva-Zadorozhnaya,  S. R. Gwaltney,  G. Hawkins,  
 A. Heyden,  S. Hirata,  G. Kedziora,  F. J. Keil,  C. Kelley,  Jihan Kim,  
 R. A. King,  R. Z. Khaliullin,  P. P. Korambath,  W. Kurlancheek,  
 A. M. Lee,  M. S. Lee,  S. V. Levchenko,  Ching Yeh Lin,  D. Liotard,  
 R. C. Lochan,  I. Lotan,  P. E. Maslen,  N. Nair,  D. P. O'Neill,  
 D. Neuhauser,  E. Neuscamman,  C. M. Oana,  R. Olson,  B. Peters,  
 R. Peverati,  P. A. Pieniazek,  Y. M. Rhee,  J. Ritchie,  M. A. Rohrdanz,  
 E. Rosta,  N. J. Russ,  H. F. Schaefer III,  N. E. Schultz,  N. Shenvi,  
 A. C. Simmonett,  A. Sodt,  D. Stuck,  K. S. Thanthiriwatte,  V. Vanovschi,  
 Tao Wang,  A. Warshel,  C. F. Williams,  Q. Wu,  X. Xu,  W. Zhang

 Please cite Q-Chem as follows:
 Y. Shao et al., Mol. Phys. 113, 184-215 (2015)
 DOI: 10.1080/00268976.2014.952696

 Q-Chem 5.0.1 for Intel X86 EM64T Linux

 Parts of Q-Chem use Armadillo 5.200.1 (Boston Tea Smuggler).
 http://arma.sourceforge.net/

 Q-Chem begins on Sat Jan 13 11:22:23 2018  

Host: vega02.cac.cornell.edu
0

     Scratch files written to /scratch/jj585/SOT1001/0069c.save//
 Parallel job on  1  processors

Checking the input file for inconsistencies... 	...done.

--------------------------------------------------------------
User input:
--------------------------------------------------------------
$molecule
0  1
O -3.94934 -3.66094 2.70899
C -3.26408 -4.56952 2.26188
C -3.36658 -6.02376 2.66595
C -2.79805 -6.41284 4.04045
C -2.35119 -5.27547 4.93196
O -1.3659 -4.56029 4.31296
C -0.88029 -3.46991 5.10322
C 0.20314 -2.71166 4.34338
O 1.19173 -2.21953 5.26174
C 2.25348 -3.03737 5.46901
C 3.27691 -2.4461 6.40904
C 3.65914 -3.34195 7.59632
C 3.25337 -4.79772 7.48319
O 3.92795 -5.7516 7.84323
O -2.4182 -4.29834 1.23312
O 1.92166 -5.02084 7.30753
O 2.44665 -4.08527 4.86104
C 1.32782 -6.26642 7.29523
C 4.65905 -2.23196 5.75991
C 5.41109 -1.1363 6.51267
C 5.69935 -1.84221 7.82283
C 5.19453 -3.25307 7.49152
O 5.39973 -3.37723 6.10476
H 2.89677 -1.45668 6.7556
H 3.24241 -2.96305 8.55522
H 4.60408 -1.99072 4.67576
H 6.37256 -0.98227 5.97171
H 4.88728 -0.16074 6.60607
H 6.79921 -1.83351 7.99006
H 5.17255 -1.4297 8.71062
H 5.7115 -4.00237 8.13007
O -2.83701 -5.00204 6.02445
C -2.21009 -3.03964 0.70942
C -4.82405 -6.49296 2.8132
C -4.90447 -8.01002 2.6499
C -4.27407 -8.46794 3.94881
C -4.03352 -7.11882 4.63506
O -5.09974 -6.31815 4.18246
H -2.85844 -6.61254 1.86792
H -1.92791 -7.10132 3.9525
H -1.81069 -2.36141 1.49373
H -5.51719 -5.99067 2.10306
H -5.98239 -8.28934 2.66218
H -4.43211 -8.40734 1.72581
H -5.02931 -9.05614 4.51638
H -3.33762 -9.05707 3.84192
H -3.95836 -7.26234 5.73525
H -3.16083 -2.63002 0.30615
H -1.47131 -3.10634 -0.11529
H 0.23754 -6.14894 7.12773
H 1.4863 -6.77767 8.26861
H 1.75098 -6.88173 6.47276
H 0.66146 -3.38956 3.58814
H -0.23676 -1.89088 3.73878
H -0.4079 -3.92437 6.00354
H -1.67539 -2.76684 5.43925
$end

$opt
CONSTRAINT
tors           1           2           3           4     -74.319
tors           3           4           5           6     -59.885
tors           4           5           6           7    -179.437
tors           5           6           7           8    -179.395
tors           6           7           8           9    -145.809
tors           7           8           9          10     +92.274
tors           8           9          10          11    +178.190
tors           9          10          11          12    +126.828
tors          11          12          13          14    +140.699
ENDCONSTRAINT
$end

$rem
JOBTYPE                   OPT
METHOD                    B3LYP
DFT_D                     d3_op
BASIS                     STO-3G
GEOM_OPT_MAX_CYCLES       100
GEOM_OPT_TOL_GRADIENT     300
GEOM_OPT_TOL_DISPLACEMENT 1200
GEOM_OPT_TOL_ENERGY       100
SYMMETRY                  False
THRESH                    12
SCF_CONVERGENCE           8
MAX_SUB_FILE_NUM          128
MEM_STATIC                400
MEM_TOTAL                 4000
$end
--------------------------------------------------------------
 Adding empirical dispersion correction 
 ----------------------------------------------------------------
 Doing -D3(op) with
 s6 =   1.00000
 s8 =   0.78311
 a1 =   0.30000
 a2 =   4.25000
 n  =  10.00000
 -D3 energy without 3body term =     -0.0668398412 hartrees
 ----------------------------------------------------------------
             Standard Nuclear Orientation (Angstroms)
    I     Atom           X                Y                Z
 ----------------------------------------------------------------
    1      O      -4.0754215404     2.0126073167     1.0055070948
    2      C      -3.9471908892     1.6300020477    -0.1486923439
    3      C      -4.3363895156     0.2627337183    -0.6660843975
    4      C      -3.4275881570    -0.9174840898    -0.2852617701
    5      C      -2.3313231079    -0.6287574512     0.7161993259
    6      O      -1.4983953610     0.3367752396     0.2268959355
    7      C      -0.4233961836     0.6567649850     1.1164125545
    8      C       0.4524193310     1.7488101542     0.5110160019
    9      O       1.8228582000     1.5422047203     0.8879758350
   10      C       2.5623534700     0.8088858443     0.0193410714
   11      C       4.0027408771     0.6639350142     0.4493863633
   12      C       4.5168078067    -0.7817155381     0.5134992809
   13      C       3.6617529878    -1.8187429853    -0.1866216465
   14      O       4.0841782916    -2.7626088649    -0.8387321406
   15      O      -3.5362804568     2.5238186564    -1.0865852967
   16      O       2.3725582653    -1.8999703069     0.2440401509
   17      O       2.1584515906     0.4158028630    -1.0703311828
   18      C       1.4613130959    -2.8473827341    -0.1758511518
   19      C       5.0079465865     1.2776219133    -0.5458455433
   20      C       6.2998296130     1.6314562986     0.1879950991
   21      C       6.8412087979     0.2475908041     0.4875728894
   22      C       5.8289684949    -0.6150366284    -0.2781809677
   23      O       5.4209367653     0.2000338650    -1.3504664901
   24      H       4.1238604210     1.1795434208     1.4307324881
   25      H       4.6543647333    -1.1288854443     1.5610055869
   26      H       4.6099930116     2.1667385427    -1.0822262220
   27      H       6.9654987645     2.1205388346    -0.5593136570
   28      H       6.1928975007     2.2988769462     1.0700001967
   29      H       7.8591643388     0.1672313236     0.0459367798
   30      H       6.8663896461    -0.0299359690     1.5637692652
   31      H       6.2896661370    -1.5888734912    -0.5535970540
   32      O      -2.2341615630    -1.1443874925     1.8248041843
   33      C      -3.1648378777     3.8231740795    -0.8116252141
   34      C      -5.6848263158    -0.2181485985    -0.1034829430
   35      C      -6.2981738011    -1.2622981933    -1.0352349465
   36      C      -5.3874888433    -2.4440821439    -0.7738890527
   37      C      -4.4831580832    -1.8651774393     0.3197211881
   38      O      -5.3285149146    -0.9848557832     1.0219675171
   39      H      -4.3980742162     0.3477928368    -1.7754445612
   40      H      -2.9288005280    -1.3640281786    -1.1744708628
   41      H      -2.2969045491     3.8331256641    -0.1179025230
   42      H      -6.4038683923     0.6117563665     0.0733598246
   43      H      -7.3120885084    -1.5036221581    -0.6430338533
   44      H      -6.3798329813    -0.9506749579    -2.0987913472
   45      H      -6.0019409331    -3.2752319664    -0.3614075327
   46      H      -4.8075082708    -2.8016764519    -1.6520616314
   47      H      -4.0305667405    -2.6903364612     0.9121219959
   48      H      -4.0147340418     4.3774326531    -0.3590815933
   49      H      -2.8728763724     4.3257443561    -1.7563860087
   50      H       0.4914147234    -2.6710790145     0.3328554674
   51      H       1.8196405929    -3.8666436902     0.0823534293
   52      H       1.3082667532    -2.7681834768    -1.2733173140
   53      H       0.3363984847     1.7374366456    -0.5964147618
   54      H       0.0942110219     2.7561885800     0.8103627790
   55      H       0.1950864547    -0.2654717081     1.2013891046
   56      H      -0.7551409819     0.9539807466     2.1367143606
 ----------------------------------------------------------------
 Molecular Point Group                 C1    NOp =  1
 Largest Abelian Subgroup              C1    NOp =  1
 Nuclear Repulsion Energy =  3149.0423305547 hartrees
 There are      113 alpha and      113 beta electrons
 Requested basis set is STO-3G
 There are 86 shells and 176 basis functions

 Total QAlloc Memory Limit   4000 MB
 Mega-Array Size       392 MB
 MEM_STATIC part       400 MB
 A cutoff of  1.0D-12 yielded   2126 shell pairs
 There are      9944 function pairs
 
 -------------------------------------------------------
 OpenMP Integral Computing Module                       
 Release: version 1.0, May 2013, Q-Chem Inc. Pittsburgh 
 -------------------------------------------------------
 Integral Job Info:
 Integral job number is                      11
 Integral operator is                         1
 short-range coefficients                     0
 long-range coefficients              100000000
 Omega coefficients                           0
 if combine SR and LR in K                    0
 Integral screening is                        0
 Integral computing path is                   2
 max size of driver memory is            800000
 size of driver memory is                 45569
 size of scratch memory is              1046100
 max col of scratch BK array                289
 max len of scratch array in speh3           22
 max len of scratch index in speh4            8
 max int batch size is                      520
 min int batch size is                       52
 fixed nKL is                                52
 max L of basis functions is                  1
 order of int derivative is                   0
 number of shells is                         86
 number of basis is                         176
 number of cartesian basis is               176
 number of contracted shell pairs          2126
 number of primitive shell pairs          10971
 maxK2 (contraction) of shell pair            9
 max number of K2 of shell pair               1
 max number of CS2 of shell pair            305
 max number of PS2 of shell pair           1248
 mem total for path MDJ                   50314
 -------------------------------------------------------
 Smallest overlap matrix eigenvalue = 1.93E-01

 Scale SEOQF with 1.000000e-02/1.000000e-01/1.000000e-01

 Standard Electronic Orientation quadrupole field applied
 Nucleus-field energy     =     0.0000000441 hartrees
 Guess from superposition of atomic densities
 Warning:  Energy on first SCF cycle will be non-variational
 A restricted hybrid HF-DFT SCF calculation will be
 performed using Pulay DIIS extrapolation
 Exchange:     0.2000 Hartree-Fock + 0.0800 Slater + 0.7200 B88
 Correlation:  0.1900 VWN1RPA + 0.8100 LYP
 Using SG-1 standard quadrature grid
 Dispersion:   Grimme D3
 SCF converges when DIIS error is below 1.0E-08
 using 48 threads for integral computing
 -------------------------------------------------------
 OpenMP Integral computing Module                
 Release: version 1.0, May 2013, Q-Chem Inc. Pittsburgh 
 -------------------------------------------------------
 -------------------------------------------------------
 OpenMP BLAS3 based DFT computing Module                
 Release: version 1.0, May 2013, Q-Chem Inc. Pittsburgh 
 -------------------------------------------------------
 ---------------------------------------
  Cycle       Energy         DIIS Error
 ---------------------------------------
    1   -1509.4477182480      8.29E-02
    2   -1509.6027372887      1.05E-02
    3   -1507.5205395194      2.57E-02
    4   -1510.0999668597      3.51E-03
    5   -1510.1482628320      1.24E-03
    6   -1510.1547335291      3.41E-04
    7   -1510.1551681902      1.33E-04
    8   -1510.1552406540      2.77E-05
    9   -1510.1552439607      6.59E-06
   10   -1510.1552441122      3.45E-06
   11   -1510.1552441635      7.89E-07
   12   -1510.1552441662      1.66E-07
   13   -1510.1552441663      7.16E-08
   14   -1510.1552441663      3.40E-08
   15   -1510.1552441663      6.52E-09 Convergence criterion met
 ---------------------------------------
 SCF time:  CPU 107.57 s  wall 2.31 s
 SCF   energy in the final basis set = -1510.15524417
 Total energy in the final basis set = -1510.15524417
 
 --------------------------------------------------------------
 
                    Orbital Energies (a.u.)
 --------------------------------------------------------------
 
 Alpha MOs
 -- Occupied --
-18.953 -18.950 -18.931 -18.925 -18.900 -18.898 -18.872 -18.862
-18.855 -18.852 -10.113 -10.112 -10.110 -10.109 -10.087 -10.084
-10.084 -10.079 -10.070 -10.069 -10.068 -10.065 -10.045 -10.040
-10.038 -10.038 -10.018 -10.017 -10.017 -10.015  -1.052  -1.047
 -1.042  -1.040  -1.025  -1.022  -0.957  -0.952  -0.945  -0.942
 -0.786  -0.783  -0.749  -0.744  -0.735  -0.724  -0.717  -0.684
 -0.680  -0.638  -0.609  -0.594  -0.558  -0.554  -0.540  -0.538
 -0.527  -0.524  -0.507  -0.492  -0.486  -0.473  -0.465  -0.464
 -0.458  -0.447  -0.445  -0.431  -0.429  -0.424  -0.423  -0.417
 -0.408  -0.400  -0.392  -0.389  -0.380  -0.370  -0.368  -0.362
 -0.358  -0.350  -0.346  -0.340  -0.337  -0.326  -0.325  -0.315
 -0.314  -0.311  -0.308  -0.303  -0.299  -0.295  -0.290  -0.278
 -0.276  -0.254  -0.247  -0.237  -0.235  -0.226  -0.224  -0.188
 -0.186  -0.172  -0.166  -0.156  -0.155  -0.152  -0.151  -0.139
 -0.139
 -- Virtual --
  0.104   0.105   0.122   0.122   0.218   0.239   0.252   0.286
  0.299   0.312   0.325   0.331   0.334   0.340   0.341   0.349
  0.357   0.371   0.378   0.384   0.387   0.389   0.392   0.398
  0.401   0.405   0.408   0.409   0.416   0.418   0.419   0.425
  0.428   0.430   0.433   0.438   0.447   0.448   0.455   0.457
  0.459   0.468   0.469   0.472   0.477   0.480   0.484   0.488
  0.489   0.492   0.498   0.504   0.521   0.543   0.549   0.560
  0.560   0.577   0.581   0.683   0.685   0.693   0.699
 --------------------------------------------------------------
 
          Ground-State Mulliken Net Atomic Charges

     Atom                 Charge (a.u.)
  ----------------------------------------
      1 O                    -0.238402
      2 C                     0.236344
      3 C                    -0.081686
      4 C                    -0.081851
      5 C                     0.233645
      6 O                    -0.189270
      7 C                    -0.037587
      8 C                    -0.039267
      9 O                    -0.188761
     10 C                     0.235865
     11 C                    -0.083546
     12 C                    -0.078684
     13 C                     0.243071
     14 O                    -0.233007
     15 O                    -0.211943
     16 O                    -0.216986
     17 O                    -0.231978
     18 C                    -0.097884
     19 C                     0.040765
     20 C                    -0.141349
     21 C                    -0.144270
     22 C                     0.040621
     23 O                    -0.207349
     24 H                     0.083550
     25 H                     0.089817
     26 H                     0.083669
     27 H                     0.075982
     28 H                     0.072607
     29 H                     0.077037
     30 H                     0.071749
     31 H                     0.093700
     32 O                    -0.221857
     33 C                    -0.097217
     34 C                     0.041588
     35 C                    -0.142197
     36 C                    -0.143934
     37 C                     0.040317
     38 O                    -0.206249
     39 H                     0.087100
     40 H                     0.085207
     41 H                     0.082453
     42 H                     0.085850
     43 H                     0.076021
     44 H                     0.072482
     45 H                     0.075946
     46 H                     0.071182
     47 H                     0.089916
     48 H                     0.086878
     49 H                     0.094028
     50 H                     0.090599
     51 H                     0.086204
     52 H                     0.090295
     53 H                     0.102287
     54 H                     0.090714
     55 H                     0.092148
     56 H                     0.095637
  ----------------------------------------
  Sum of atomic charges =     0.000000

 -----------------------------------------------------------------
                    Cartesian Multipole Moments
 -----------------------------------------------------------------
    Charge (ESU x 10^10)
                 0.0000
    Dipole Moment (Debye)
         X       0.2150      Y       1.7208      Z      -0.4639
       Tot       1.7952
    Quadrupole Moments (Debye-Ang)
        XX    -155.4526     XY       7.7186     YY    -151.7399
        XZ      24.7428     YZ      -2.1050     ZZ    -169.8762
    Octopole Moments (Debye-Ang^2)
       XXX      24.1976    XXY      27.5216    XYY     -31.4234
       YYY      35.5115    XXZ      -7.5202    XYZ     -14.6604
       YYZ      -4.9608    XZZ       6.2360    YZZ       4.7773
       ZZZ      -0.5230
    Hexadecapole Moments (Debye-Ang^3)
      XXXX  -16424.8216   XXXY      58.4883   XXYY   -3313.3842
      XYYY     -98.4526   YYYY   -2784.1000   XXXZ     390.8651
      XXYZ     -74.9161   XYYZ      22.0364   YYYZ     -81.2637
      XXZZ   -3137.0627   XYZZ     -26.8465   YYZZ    -623.0974
      XZZZ     -18.7250   YZZZ       4.7896   ZZZZ    -756.8372
 -----------------------------------------------------------------
 Calculating analytic gradient of the SCF energy
 Gradient of SCF Energy
            1           2           3           4           5           6
    1   0.0065804   0.0012000  -0.0089775  -0.0152886   0.0200292  -0.0011943
    2  -0.0093560  -0.0124776  -0.0122366   0.0188785   0.0060518  -0.0399869
    3  -0.0723146  -0.0245379   0.0647873   0.0373757  -0.0102107   0.0454477
            7           8           9          10          11          12
    1  -0.0153878   0.0191102   0.0007554  -0.0193333   0.0016872   0.0015276
    2   0.0244037  -0.0228045  -0.0409203   0.0117682  -0.0222697  -0.0019796
    3  -0.0313031   0.0366240  -0.0655269   0.0299523  -0.0572694  -0.0355808
           13          14          15          16          17          18
    1   0.0061399  -0.0409949  -0.0014659   0.0233245   0.0246560   0.0167711
    2   0.0340642   0.0417292   0.0582397  -0.0974736   0.0183269   0.0444068
    3   0.0015028   0.0507542   0.1105979  -0.0775152   0.0482826   0.0313965
           19          20          21          22          23          24
    1   0.0253741  -0.0226190  -0.0355545  -0.0347211   0.0021571   0.0026855
    2  -0.0650487  -0.0467402   0.0119084   0.0625629   0.0122214   0.0067514
    3   0.0001777  -0.0101772  -0.0277064  -0.0188389   0.0862318   0.0047285
           25          26          27          28          29          30
    1  -0.0014077   0.0013651   0.0049510   0.0015814   0.0073525  -0.0032714
    2  -0.0031250   0.0103679  -0.0017149   0.0047996   0.0080150  -0.0050576
    3   0.0041036   0.0083916  -0.0099033   0.0067148  -0.0079721   0.0072288
           31          32          33          34          35          36
    1   0.0091442  -0.0104863  -0.0099044   0.0383048   0.0423721  -0.0002758
    2  -0.0027363   0.0217593  -0.0456232  -0.0517199  -0.0020763   0.0439213
    3   0.0111263  -0.0443022  -0.0345136   0.0212369   0.0308013   0.0214087
           37          38          39          40          41          42
    1  -0.0393364   0.0215854  -0.0013373   0.0060246  -0.0006985  -0.0058148
    2   0.0585392  -0.0057349   0.0012318  -0.0037917  -0.0083288   0.0029504
    3  -0.0030098  -0.0840621  -0.0064282  -0.0011717  -0.0037176  -0.0122002
           43          44          45          46          47          48
    1  -0.0051119  -0.0009174  -0.0117342   0.0066980   0.0024879  -0.0030584
    2  -0.0053197   0.0014715  -0.0012912  -0.0015657  -0.0109505  -0.0075748
    3   0.0089808  -0.0080012   0.0051312  -0.0052766  -0.0099906  -0.0042917
           49          50          51          52          53          54
    1   0.0007840  -0.0018624   0.0040794   0.0040253  -0.0031237  -0.0090450
    2   0.0032113  -0.0026703   0.0063626   0.0074492   0.0068541   0.0000332
    3   0.0010668  -0.0016200   0.0046974   0.0027804   0.0017209  -0.0087695
           55          56
    1  -0.0039701   0.0041385
    2  -0.0015151   0.0038101
    3  -0.0083640   0.0013273
 Max gradient component =       1.106E-01
 RMS gradient           =       2.806E-02
 Gradient time:  CPU 30.26 s  wall 0.65 s
 Geometry Optimization Parameters
   NAtoms,    NIC,     NZ,  NCons,   NDum,   NFix, NCnnct, MaxDiis
       56     458       0       9       0       0       0       0


** CONSTRAINED OPTIMIZATION IN DELOCALIZED INTERNAL COORDINATES **
   Searching for a Minimum

   Optimization Cycle:   1

                       Coordinates (Angstroms)
     ATOM                X               Y               Z
      1  O        -4.0754215404    2.0126073167    1.0055070948
      2  C        -3.9471908892    1.6300020477   -0.1486923439
      3  C        -4.3363895156    0.2627337183   -0.6660843975
      4  C        -3.4275881570   -0.9174840898   -0.2852617701
      5  C        -2.3313231079   -0.6287574512    0.7161993259
      6  O        -1.4983953610    0.3367752396    0.2268959355
      7  C        -0.4233961836    0.6567649850    1.1164125545
      8  C         0.4524193310    1.7488101542    0.5110160019
      9  O         1.8228582000    1.5422047203    0.8879758350
     10  C         2.5623534700    0.8088858443    0.0193410714
     11  C         4.0027408771    0.6639350142    0.4493863633
     12  C         4.5168078067   -0.7817155381    0.5134992809
     13  C         3.6617529878   -1.8187429853   -0.1866216465
     14  O         4.0841782916   -2.7626088649   -0.8387321406
     15  O        -3.5362804568    2.5238186564   -1.0865852967
     16  O         2.3725582653   -1.8999703069    0.2440401509
     17  O         2.1584515906    0.4158028630   -1.0703311828
     18  C         1.4613130959   -2.8473827341   -0.1758511518
     19  C         5.0079465865    1.2776219133   -0.5458455433
     20  C         6.2998296130    1.6314562986    0.1879950991
     21  C         6.8412087979    0.2475908041    0.4875728894
     22  C         5.8289684949   -0.6150366284   -0.2781809677
     23  O         5.4209367653    0.2000338650   -1.3504664901
     24  H         4.1238604210    1.1795434208    1.4307324881
     25  H         4.6543647333   -1.1288854443    1.5610055869
     26  H         4.6099930116    2.1667385427   -1.0822262220
     27  H         6.9654987645    2.1205388346   -0.5593136570
     28  H         6.1928975007    2.2988769462    1.0700001967
     29  H         7.8591643388    0.1672313236    0.0459367798
     30  H         6.8663896461   -0.0299359690    1.5637692652
     31  H         6.2896661370   -1.5888734912   -0.5535970540
     32  O        -2.2341615630   -1.1443874925    1.8248041843
     33  C        -3.1648378777    3.8231740795   -0.8116252141
     34  C        -5.6848263158   -0.2181485985   -0.1034829430
     35  C        -6.2981738011   -1.2622981933   -1.0352349465
     36  C        -5.3874888433   -2.4440821439   -0.7738890527
     37  C        -4.4831580832   -1.8651774393    0.3197211881
     38  O        -5.3285149146   -0.9848557832    1.0219675171
     39  H        -4.3980742162    0.3477928368   -1.7754445612
     40  H        -2.9288005280   -1.3640281786   -1.1744708628
     41  H        -2.2969045491    3.8331256641   -0.1179025230
     42  H        -6.4038683923    0.6117563665    0.0733598246
     43  H        -7.3120885084   -1.5036221581   -0.6430338533
     44  H        -6.3798329813   -0.9506749579   -2.0987913472
     45  H        -6.0019409331   -3.2752319664   -0.3614075327
     46  H        -4.8075082708   -2.8016764519   -1.6520616314
     47  H        -4.0305667405   -2.6903364612    0.9121219959
     48  H        -4.0147340418    4.3774326531   -0.3590815933
     49  H        -2.8728763724    4.3257443561   -1.7563860087
     50  H         0.4914147234   -2.6710790145    0.3328554674
     51  H         1.8196405929   -3.8666436902    0.0823534293
     52  H         1.3082667532   -2.7681834768   -1.2733173140
     53  H         0.3363984847    1.7374366456   -0.5964147618
     54  H         0.0942110219    2.7561885800    0.8103627790
     55  H         0.1950864547   -0.2654717081    1.2013891046
     56  H        -0.7551409819    0.9539807466    2.1367143606
   Point Group: c1    Number of degrees of freedom:   162


   Energy is  -1510.155244166

              Constraints and their Current Values
                                        Value     Constraint
   Dihedral:        1   2   3   4      -74.318      -74.319
   Dihedral:        3   4   5   6      -59.886      -59.885
   Dihedral:        4   5   6   7     -179.436     -179.437
   Dihedral:        5   6   7   8     -179.395     -179.395
   Dihedral:        6   7   8   9     -145.809     -145.809
   Dihedral:        7   8   9  10       92.275       92.274
   Dihedral:        8   9  10  11      178.191      178.190
   Dihedral:        9  10  11  12      126.828      126.828
   Dihedral:       11  12  13  14      140.699      140.699

 Attempting to Generate Delocalized Internal Coordinates

   Using Lagrange Multiplier Algorithm


169 Hessian modes will be used to form the next step
  Hessian Eigenvalues:
    -0.977753   -0.977753   -0.977753   -0.977753   -0.977753   -0.977753
    -0.977753   -0.977753    0.045000    0.045000    0.045000    0.045000
     0.045034    0.045161    0.045226    0.045560    0.045618    0.046420
     0.048860    0.048880    0.054281    0.059932    0.059972    0.062447
     0.062661    0.066976    0.067034    0.067727    0.067847    0.069598
     0.070887    0.071991    0.073924    0.074010    0.075641    0.075902
     0.076929    0.077089    0.082463    0.082593    0.083363    0.083826
     0.084129    0.084399    0.085510    0.085621    0.085661    0.086493
     0.086714    0.087039    0.088413    0.088799    0.089044    0.089314
     0.089787    0.089906    0.093753    0.093897    0.096605    0.096668
     0.111530    0.111632    0.114620    0.114660    0.115878    0.115902
     0.116434    0.117549    0.118114    0.118938    0.119117    0.123173
     0.123652    0.130257    0.131315    0.131900    0.139458    0.140700
     0.160000    0.160000    0.160000    0.160000    0.160000    0.160000
     0.171221    0.172061    0.172181    0.172941    0.219081    0.220916
     0.239521    0.242034    0.244497    0.248091    0.249321    0.249696
     0.250000    0.250000    0.250000    0.250000    0.250000    0.250000
     0.250000    0.250000    0.258134    0.258488    0.266920    0.267442
     0.278237    0.278931    0.283564    0.285102    0.294859    0.295592
     0.298747    0.308050    0.310698    0.310865    0.313316    0.320607
     0.321464    0.321899    0.322145    0.322229    0.322271    0.322545
     0.322791    0.322970    0.323331    0.323659    0.323810    0.323835
     0.323866    0.323934    0.324218    0.324414    0.324655    0.324708
     0.324784    0.324943    0.325035    0.325115    0.325699    0.326732
     0.326817    0.367650    0.368554    0.382538    0.383493    0.401007
     0.407713    0.491111    0.492685    0.517901    0.526154    0.531115
     0.537339    0.924331    0.925574    0.941950    0.942720    1.022753
     1.022753    1.022753    1.022753    1.022753    1.022753    1.022753
     1.022753

 Minimum Search - Taking P-RFO Step
 Searching for Lamda that Maximizes Along the Constraint modes Only
 Value Taken    Lamda =   0.00041922
 Searching for Lamda that Minimizes Along All other modes
 Value Taken    Lamda =  -0.16351005
 Calculated Step too Large.  Step scaled by  0.527807
 Step Taken.  Stepsize is  0.300000

                             Maximum     Tolerance    Cnvgd?
         Gradient            0.120972       0.000300      NO
         Displacement        0.110576       0.001200      NO
         Energy change     *********       0.000001      NO


 New Cartesian Coordinates Obtained by Inverse Iteration

 Displacement from previous Coordinates is:  0.977677
 Adding empirical dispersion correction 
 ----------------------------------------------------------------
 Doing -D3(op) with
 s6 =   1.00000
 s8 =   0.78311
 a1 =   0.30000
 a2 =   4.25000
 n  =  10.00000
 -D3 energy without 3body term =     -0.0667798109 hartrees
 ----------------------------------------------------------------
             Standard Nuclear Orientation (Angstroms)
    I     Atom           X                Y                Z
 ----------------------------------------------------------------
    1      O      -4.0742369051     2.0077286598     1.0435060712
    2      C      -3.9402912851     1.6292340570    -0.1306087452
    3      C      -4.3591028302     0.2628428694    -0.6797714715
    4      C      -3.4609239584    -0.9452802752    -0.2913033730
    5      C      -2.3659740252    -0.6564153108     0.7459784058
    6      O      -1.5151424508     0.3232624107     0.2526937970
    7      C      -0.4383422752     0.6508877239     1.1659678190
    8      C       0.4435379717     1.7552114837     0.5415795483
    9      O       1.8284141656     1.5690253628     0.9209780522
   10      C       2.5558487890     0.8160739459     0.0201859895
   11      C       4.0215226940     0.6848275724     0.4410614641
   12      C       4.5544569994    -0.7749987933     0.5137011221
   13      C       3.6746017407    -1.8385630158    -0.1607928664
   14      O       4.0935828566    -2.8025707003    -0.8206457049
   15      O      -3.4920812644     2.4955986496    -1.1069830878
   16      O       2.3828601604    -1.8588725894     0.3344125985
   17      O       2.1162413411     0.4078057136    -1.0666179469
   18      C       1.4662397950    -2.8422879546    -0.0825470564
   19      C       5.0184646322     1.3006824433    -0.5961299270
   20      C       6.3335762389     1.6727524437     0.1342701728
   21      C       6.8927389169     0.2713666745     0.4478476265
   22      C       5.8676027226    -0.6192326021    -0.3128526210
   23      O       5.4328445221     0.1946255344    -1.4122254561
   24      H       4.1532344653     1.2096196451     1.4111543671
   25      H       4.7116262511    -1.1053416502     1.5610530725
   26      H       4.6049465099     2.1728317197    -1.1440233467
   27      H       6.9885553128     2.1600413824    -0.6160828429
   28      H       6.2273535161     2.3456507971     1.0063454499
   29      H       7.9037495126     0.1834394412     0.0051281618
   30      H       6.9279780079     0.0095345980     1.5228582981
   31      H       6.3188217069    -1.5950850535    -0.5888881415
   32      O      -2.2733592468    -1.1754529152     1.8675739748
   33      C      -3.0898410008     3.8009892239    -0.7677203728
   34      C      -5.7417754720    -0.2100738053    -0.1323594955
   35      C      -6.3502868297    -1.2505514468    -1.1081762956
   36      C      -5.4390009657    -2.4639273001    -0.8398044557
   37      C      -4.5426115036    -1.9030517140     0.3001709284
   38      O      -5.4087290202    -1.0078714159     1.0136090841
   39      H      -4.4025634163     0.3605506366    -1.7851525894
   40      H      -2.9562005112    -1.3873848305    -1.1756651719
   41      H      -2.2356708833     3.7849698704    -0.0546111169
   42      H      -6.4489280604     0.6251469237     0.0527079722
   43      H      -7.3724218673    -1.4857108338    -0.7496166960
   44      H      -6.4039125704    -0.9216109480    -2.1634084984
   45      H      -6.0594380538    -3.2978086850    -0.4573138322
   46      H      -4.8455655943    -2.8099811235    -1.7076433966
   47      H      -4.1056846276    -2.7286145780     0.8996344759
   48      H      -3.9275439919     4.3758700721    -0.3136973946
   49      H      -2.7672324306     4.3175610672    -1.6942852997
   50      H       0.5021552047    -2.6617388674     0.4350717941
   51      H       1.8232431974    -3.8632565767     0.1791678996
   52      H       1.2940016013    -2.7894701871    -1.1803556391
   53      H       0.3322995683     1.7208024673    -0.5667103528
   54      H       0.0860260522     2.7653730932     0.8309806704
   55      H       0.1878391632    -0.2651772997     1.2709262021
   56      H      -0.7858089449     0.9493372092     2.1800299372
 ----------------------------------------------------------------
 Molecular Point Group                 C1    NOp =  1
 Largest Abelian Subgroup              C1    NOp =  1
 Nuclear Repulsion Energy =  3122.5102903561 hartrees
 There are      113 alpha and      113 beta electrons
 Applying Cartesian multipole field
    Component          Value
    ---------          -----
     (2,0,0)        1.00000E-12
     (0,2,0)        2.00000E-11
     (0,0,2)       -3.00000E-11
 Nucleus-field energy     =     0.0000000437 hartrees
 Requested basis set is STO-3G
 There are 86 shells and 176 basis functions
 A cutoff of  1.0D-12 yielded   2119 shell pairs
 There are      9898 function pairs
 Smallest overlap matrix eigenvalue = 2.02E-01
 Guess MOs from SCF MO coefficient file
 Reading MOs from coefficient file
 Reading MOs from coefficient file
 A restricted hybrid HF-DFT SCF calculation will be
 performed using Pulay DIIS extrapolation
 Exchange:     0.2000 Hartree-Fock + 0.0800 Slater + 0.7200 B88
 Correlation:  0.1900 VWN1RPA + 0.8100 LYP
 Using SG-1 standard quadrature grid
 Dispersion:   Grimme D3
 SCF converges when DIIS error is below 1.0E-08
 Geometry optimization detected.  Setting ReadMinima to 0
 Setting SaveMinima to 0
 using 48 threads for integral computing
 -------------------------------------------------------
 OpenMP Integral computing Module                
 Release: version 1.0, May 2013, Q-Chem Inc. Pittsburgh 
 -------------------------------------------------------
 -------------------------------------------------------
 OpenMP BLAS3 based DFT computing Module                
 Release: version 1.0, May 2013, Q-Chem Inc. Pittsburgh 
 -------------------------------------------------------
 ---------------------------------------
  Cycle       Energy         DIIS Error
 ---------------------------------------
    1   -1510.0467781748      3.21E-03
    2   -1510.2195712624      9.73E-04
    3   -1510.2129305908      1.59E-03
    4   -1510.2234280711      3.15E-04
    5   -1510.2238802057      5.59E-05
    6   -1510.2238931361      2.25E-05
    7   -1510.2238946632      1.33E-05
    8   -1510.2238954227      2.04E-06
    9   -1510.2238954445      7.14E-07
   10   -1510.2238954461      4.46E-07
   11   -1510.2238954470      8.48E-08
   12   -1510.2238954471      2.03E-08
   13   -1510.2238954471      1.66E-08
   14   -1510.2238954472      5.86E-09 Convergence criterion met
 ---------------------------------------
 SCF time:  CPU 95.05 s  wall 1.99 s
 SCF   energy in the final basis set = -1510.22389545
 Total energy in the final basis set = -1510.22389545
 
 --------------------------------------------------------------
 
                    Orbital Energies (a.u.)
 --------------------------------------------------------------
 
 Alpha MOs
 -- Occupied --
-18.950 -18.945 -18.935 -18.930 -18.898 -18.896 -18.873 -18.864
-18.860 -18.856 -10.108 -10.107 -10.104 -10.104 -10.084 -10.081
-10.079 -10.075 -10.067 -10.065 -10.065 -10.063 -10.043 -10.039
-10.038 -10.038 -10.019 -10.018 -10.017 -10.016  -1.039  -1.034
 -1.029  -1.027  -1.004  -1.001  -0.949  -0.945  -0.939  -0.937
 -0.777  -0.775  -0.740  -0.735  -0.726  -0.716  -0.709  -0.677
 -0.674  -0.631  -0.604  -0.590  -0.554  -0.551  -0.539  -0.537
 -0.523  -0.519  -0.500  -0.486  -0.478  -0.465  -0.459  -0.458
 -0.453  -0.441  -0.439  -0.425  -0.423  -0.418  -0.418  -0.411
 -0.403  -0.394  -0.387  -0.382  -0.374  -0.364  -0.363  -0.357
 -0.353  -0.346  -0.344  -0.340  -0.337  -0.327  -0.326  -0.311
 -0.311  -0.307  -0.304  -0.303  -0.298  -0.292  -0.287  -0.276
 -0.274  -0.254  -0.249  -0.237  -0.236  -0.233  -0.232  -0.186
 -0.183  -0.173  -0.168  -0.155  -0.153  -0.153  -0.149  -0.142
 -0.141
 -- Virtual --
  0.098   0.099   0.114   0.116   0.214   0.237   0.248   0.278
  0.288   0.300   0.311   0.317   0.325   0.331   0.338   0.346
  0.351   0.358   0.372   0.374   0.377   0.379   0.380   0.384
  0.392   0.396   0.400   0.406   0.406   0.409   0.412   0.415
  0.419   0.422   0.428   0.430   0.432   0.436   0.441   0.444
  0.450   0.453   0.459   0.461   0.468   0.471   0.473   0.474
  0.478   0.483   0.488   0.492   0.493   0.523   0.528   0.550
  0.550   0.560   0.564   0.658   0.661   0.670   0.676
 --------------------------------------------------------------
 
          Ground-State Mulliken Net Atomic Charges

     Atom                 Charge (a.u.)
  ----------------------------------------
      1 O                    -0.229419
      2 C                     0.223880
      3 C                    -0.080762
      4 C                    -0.079888
      5 C                     0.223569
      6 O                    -0.184156
      7 C                    -0.040945
      8 C                    -0.042763
      9 O                    -0.182813
     10 C                     0.225694
     11 C                    -0.082334
     12 C                    -0.077330
     13 C                     0.230227
     14 O                    -0.223502
     15 O                    -0.197511
     16 O                    -0.202584
     17 O                    -0.224514
     18 C                    -0.106297
     19 C                     0.035465
     20 C                    -0.142497
     21 C                    -0.145028
     22 C                     0.035124
     23 O                    -0.198011
     24 H                     0.084237
     25 H                     0.088589
     26 H                     0.083518
     27 H                     0.076343
     28 H                     0.073364
     29 H                     0.077168
     30 H                     0.072380
     31 H                     0.092955
     32 O                    -0.216096
     33 C                    -0.105709
     34 C                     0.036255
     35 C                    -0.143201
     36 C                    -0.144742
     37 C                     0.035076
     38 O                    -0.197005
     39 H                     0.086751
     40 H                     0.085102
     41 H                     0.082715
     42 H                     0.085467
     43 H                     0.076297
     44 H                     0.073238
     45 H                     0.076335
     46 H                     0.071964
     47 H                     0.089336
     48 H                     0.087132
     49 H                     0.093421
     50 H                     0.090809
     51 H                     0.086680
     52 H                     0.090666
     53 H                     0.102186
     54 H                     0.089101
     55 H                     0.091183
     56 H                     0.094882
  ----------------------------------------
  Sum of atomic charges =     0.000000

 -----------------------------------------------------------------
                    Cartesian Multipole Moments
 -----------------------------------------------------------------
    Charge (ESU x 10^10)
                 0.0000
    Dipole Moment (Debye)
         X       0.3263      Y       1.6697      Z      -0.4823
       Tot       1.7684
    Quadrupole Moments (Debye-Ang)
        XX    -155.1294     XY       7.4971     YY    -151.1999
        XZ      24.6834     YZ      -1.8516     ZZ    -169.9155
    Octopole Moments (Debye-Ang^2)
       XXX      31.5984    XXY      28.2223    XYY     -30.3815
       YYY      36.1726    XXZ     -10.0226    XYZ     -16.1069
       YYZ      -4.9222    XZZ       6.7151    YZZ       4.9094
       ZZZ      -1.0898
    Hexadecapole Moments (Debye-Ang^3)
      XXXX  -16583.7895   XXXY      18.8563   XXYY   -3339.8608
      XYYY    -129.5939   YYYY   -2793.0672   XXXZ     417.0907
      XXYZ     -64.5359   XYYZ      20.5734   YYYZ     -78.1276
      XXZZ   -3172.8210   XYZZ     -37.8556   YYZZ    -631.5490
      XZZZ     -15.2410   YZZZ       5.4422   ZZZZ    -785.9494
 -----------------------------------------------------------------
 Calculating analytic gradient of the SCF energy
 Gradient of SCF Energy
            1           2           3           4           5           6
    1   0.0006341   0.0053960  -0.0056601  -0.0091346   0.0136326   0.0006737
    2  -0.0030369  -0.0119432  -0.0075245   0.0134645   0.0055930  -0.0270133
    3  -0.0305420  -0.0340424   0.0428442   0.0207552  -0.0145891   0.0299708
            7           8           9          10          11          12
    1  -0.0130056   0.0186254  -0.0025690  -0.0117074  -0.0002692   0.0010196
    2   0.0188192  -0.0137192  -0.0269373   0.0108294  -0.0137562  -0.0051609
    3  -0.0199099   0.0282008  -0.0442295   0.0322419  -0.0348776  -0.0183180
           13          14          15          16          17          18
    1  -0.0027846  -0.0161890  -0.0013351   0.0122165   0.0138007   0.0124491
    2   0.0393279   0.0130466   0.0393840  -0.0674160   0.0077451   0.0344648
    3   0.0033519   0.0259054   0.0757646  -0.0507174   0.0203245   0.0235733
           19          20          21          22          23          24
    1   0.0139314  -0.0140705  -0.0177064  -0.0229767   0.0026559   0.0024586
    2  -0.0397831  -0.0236693   0.0041520   0.0362908   0.0069001   0.0049529
    3  -0.0048919  -0.0029356  -0.0132670  -0.0173212   0.0509513   0.0021779
           25          26          27          28          29          30
    1  -0.0018201   0.0013954   0.0023011   0.0023831   0.0037437  -0.0018511
    2  -0.0025522   0.0084236  -0.0020402   0.0037313   0.0061576  -0.0039577
    3   0.0021787   0.0079607  -0.0066389   0.0030519  -0.0053220   0.0037916
           31          32          33          34          35          36
    1   0.0073646  -0.0067465  -0.0075392   0.0209375   0.0225682   0.0016991
    2  -0.0018139   0.0104450  -0.0331182  -0.0302093   0.0008433   0.0211865
    3   0.0102547  -0.0198779  -0.0277177   0.0177316   0.0145108   0.0107770
           37          38          39          40          41          42
    1  -0.0243295   0.0139705  -0.0009711   0.0042175   0.0008435  -0.0038990
    2   0.0363574  -0.0032706   0.0009474  -0.0028470  -0.0040170   0.0021721
    3   0.0036681  -0.0497288  -0.0039381  -0.0000482  -0.0015835  -0.0110057
           43          44          45          46          47          48
    1  -0.0024180  -0.0019283  -0.0077405   0.0041992   0.0024403  -0.0025685
    2  -0.0033314   0.0005961   0.0004110  -0.0015677  -0.0084417  -0.0027709
    3   0.0062673  -0.0043545   0.0030813  -0.0022675  -0.0093881  -0.0022749
           49          50          51          52          53          54
    1   0.0009673  -0.0022649   0.0020354   0.0014325  -0.0025396  -0.0074311
    2   0.0032985  -0.0024280   0.0020907   0.0039260   0.0062887   0.0003468
    3   0.0007432  -0.0011965   0.0029646   0.0002313   0.0004201  -0.0083158
           55          56
    1  -0.0025661   0.0040295
    2  -0.0018584   0.0019916
    3  -0.0061152   0.0017203
 Max gradient component =       7.576E-02
 RMS gradient           =       1.794E-02
 Gradient time:  CPU 29.92 s  wall 0.64 s
 Geometry Optimization Parameters
   NAtoms,    NIC,     NZ,  NCons,   NDum,   NFix, NCnnct, MaxDiis
       56     458       0       9       0       0       0       0

 Cartesian Hessian Update
 Hessian Updated using BFGS Update


** CONSTRAINED OPTIMIZATION IN DELOCALIZED INTERNAL COORDINATES **
   Searching for a Minimum

   Optimization Cycle:   2

                       Coordinates (Angstroms)
     ATOM                X               Y               Z
      1  O        -4.0742369051    2.0077286598    1.0435060712
      2  C        -3.9402912851    1.6292340570   -0.1306087452
      3  C        -4.3591028302    0.2628428694   -0.6797714715
      4  C        -3.4609239584   -0.9452802752   -0.2913033730
      5  C        -2.3659740252   -0.6564153108    0.7459784058
      6  O        -1.5151424508    0.3232624107    0.2526937970
      7  C        -0.4383422752    0.6508877239    1.1659678190
      8  C         0.4435379717    1.7552114837    0.5415795483
      9  O         1.8284141656    1.5690253628    0.9209780522
     10  C         2.5558487890    0.8160739459    0.0201859895
     11  C         4.0215226940    0.6848275724    0.4410614641
     12  C         4.5544569994   -0.7749987933    0.5137011221
     13  C         3.6746017407   -1.8385630158   -0.1607928664
     14  O         4.0935828566   -2.8025707003   -0.8206457049
     15  O        -3.4920812644    2.4955986496   -1.1069830878
     16  O         2.3828601604   -1.8588725894    0.3344125985
     17  O         2.1162413411    0.4078057136   -1.0666179469
     18  C         1.4662397950   -2.8422879546   -0.0825470564
     19  C         5.0184646322    1.3006824433   -0.5961299270
     20  C         6.3335762389    1.6727524437    0.1342701728
     21  C         6.8927389169    0.2713666745    0.4478476265
     22  C         5.8676027226   -0.6192326021   -0.3128526210
     23  O         5.4328445221    0.1946255344   -1.4122254561
     24  H         4.1532344653    1.2096196451    1.4111543671
     25  H         4.7116262511   -1.1053416502    1.5610530725
     26  H         4.6049465099    2.1728317197   -1.1440233467
     27  H         6.9885553128    2.1600413824   -0.6160828429
     28  H         6.2273535161    2.3456507971    1.0063454499
     29  H         7.9037495126    0.1834394412    0.0051281618
     30  H         6.9279780079    0.0095345980    1.5228582981
     31  H         6.3188217069   -1.5950850535   -0.5888881415
     32  O        -2.2733592468   -1.1754529152    1.8675739748
     33  C        -3.0898410008    3.8009892239   -0.7677203728
     34  C        -5.7417754720   -0.2100738053   -0.1323594955
     35  C        -6.3502868297   -1.2505514468   -1.1081762956
     36  C        -5.4390009657   -2.4639273001   -0.8398044557
     37  C        -4.5426115036   -1.9030517140    0.3001709284
     38  O        -5.4087290202   -1.0078714159    1.0136090841
     39  H        -4.4025634163    0.3605506366   -1.7851525894
     40  H        -2.9562005112   -1.3873848305   -1.1756651719
     41  H        -2.2356708833    3.7849698704   -0.0546111169
     42  H        -6.4489280604    0.6251469237    0.0527079722
     43  H        -7.3724218673   -1.4857108338   -0.7496166960
     44  H        -6.4039125704   -0.9216109480   -2.1634084984
     45  H        -6.0594380538   -3.2978086850   -0.4573138322
     46  H        -4.8455655943   -2.8099811235   -1.7076433966
     47  H        -4.1056846276   -2.7286145780    0.8996344759
     48  H        -3.9275439919    4.3758700721   -0.3136973946
     49  H        -2.7672324306    4.3175610672   -1.6942852997
     50  H         0.5021552047   -2.6617388674    0.4350717941
     51  H         1.8232431974   -3.8632565767    0.1791678996
     52  H         1.2940016013   -2.7894701871   -1.1803556391
     53  H         0.3322995683    1.7208024673   -0.5667103528
     54  H         0.0860260522    2.7653730932    0.8309806704
     55  H         0.1878391632   -0.2651772997    1.2709262021
     56  H        -0.7858089449    0.9493372092    2.1800299372
   Point Group: c1    Number of degrees of freedom:   162


   Energy is  -1510.223895447

              Constraints and their Current Values
                                        Value     Constraint
   Dihedral:        1   2   3   4      -74.332      -74.319
   Dihedral:        3   4   5   6      -59.904      -59.885
   Dihedral:        4   5   6   7     -179.437     -179.437
   Dihedral:        5   6   7   8     -179.395     -179.395
   Dihedral:        6   7   8   9     -145.768     -145.809
   Dihedral:        7   8   9  10       92.288       92.274
   Dihedral:        8   9  10  11      178.178      178.190
   Dihedral:        9  10  11  12      126.848      126.828
   Dihedral:       11  12  13  14      140.725      140.699
 Hessian Updated using BFGS Update

   Using Lagrange Multiplier Algorithm


157 Hessian modes will be used to form the next step
  Hessian Eigenvalues:
    -0.977753   -0.977753   -0.977753   -0.977753   -0.977753   -0.977753
    -0.977753   -0.977604    0.044998    0.045000    0.045037    0.045159
     0.045235    0.045560    0.045604    0.046455    0.048859    0.048874
     0.054263    0.059811    0.059960    0.062438    0.062661    0.066974
     0.067031    0.067727    0.067850    0.069590    0.070891    0.071894
     0.073897    0.074006    0.075635    0.075903    0.076900    0.077013
     0.082463    0.082587    0.083365    0.083787    0.084090    0.084431
     0.085452    0.085527    0.085659    0.086525    0.086710    0.087038
     0.088375    0.088788    0.089070    0.089353    0.089805    0.089945
     0.093756    0.093894    0.096607    0.096656    0.111555    0.111666
     0.114632    0.114684    0.115878    0.115902    0.116409    0.117529
     0.118081    0.118920    0.119102    0.123163    0.123700    0.130260
     0.131288    0.131892    0.139492    0.140623    0.159613    0.161617
     0.171346    0.171996    0.172217    0.172927    0.218961    0.219766
     0.229545    0.239606    0.242052    0.245460    0.248135    0.249500
     0.249698    0.254068    0.258277    0.259675    0.267077    0.267489
     0.278522    0.280944    0.284264    0.289099    0.295197    0.297346
     0.302242    0.308469    0.310617    0.312363    0.319068    0.320713
     0.321484    0.321982    0.322149    0.322254    0.322456    0.322541
     0.322803    0.323107    0.323517    0.323683    0.323823    0.323852
     0.323897    0.323944    0.324256    0.324434    0.324640    0.324692
     0.324852    0.324993    0.325083    0.325697    0.326674    0.326792
     0.329469    0.367650    0.368490    0.382998    0.399842    0.405348
     0.418413    0.475287    0.491977    0.518185    0.524073    0.529165
     0.535701    0.924991    0.928222    0.942262    0.995755    1.022753
     1.022753    1.022753    1.022753    1.022753    1.022753    1.022753
     1.024811

 Minimum Search - Taking P-RFO Step
 Searching for Lamda that Maximizes Along the Constraint modes Only
 Value Taken    Lamda =   0.00001275
 Searching for Lamda that Minimizes Along All other modes
 Value Taken    Lamda =  -0.07574439
 Calculated Step too Large.  Step scaled by  0.629298
 Step Taken.  Stepsize is  0.300000

                             Maximum     Tolerance    Cnvgd?
         Gradient            0.069101       0.000300      NO
         Displacement        0.097012       0.001200      NO
         Energy change     -0.068651       0.000001      NO


 New Cartesian Coordinates Obtained by Inverse Iteration

 Displacement from previous Coordinates is:  0.981640
 Adding empirical dispersion correction 
 ----------------------------------------------------------------
 Doing -D3(op) with
 s6 =   1.00000
 s8 =   0.78311
 a1 =   0.30000
 a2 =   4.25000
 n  =  10.00000
 -D3 energy without 3body term =     -0.0670793513 hartrees
 ----------------------------------------------------------------
             Standard Nuclear Orientation (Angstroms)
    I     Atom           X                Y                Z
 ----------------------------------------------------------------
    1      O      -4.0221562464     2.0080468788     1.0533736892
    2      C      -3.9009770470     1.6200806023    -0.1266162939
    3      C      -4.3580456024     0.2594267999    -0.7035293266
    4      C      -3.4718914905    -0.9696385260    -0.3089505243
    5      C      -2.3835955457    -0.6669599637     0.7546519973
    6      O      -1.5271160096     0.3262974016     0.2450758798
    7      C      -0.4607536390     0.6567341918     1.1928055084
    8      C       0.4243999434     1.7691013001     0.5548807435
    9      O       1.8218149633     1.6032929209     0.9484806063
   10      C       2.5318897290     0.8269459030     0.0174102317
   11      C       4.0140593964     0.7066757812     0.4353073318
   12      C       4.5610614010    -0.7607138002     0.5221947968
   13      C       3.6494394119    -1.8497876828    -0.1106424772
   14      O       4.0338758436    -2.8357015711    -0.7713572681
   15      O      -3.4139521745     2.4545545810    -1.1411942498
   16      O       2.3599784513    -1.8020519060     0.4409431623
   17      O       2.0542422183     0.4096980268    -1.0577659840
   18      C       1.4681366293    -2.8370216855    -0.0056647517
   19      C       4.9965819415     1.3142943006    -0.6430507555
   20      C       6.3301505754     1.7019449040     0.0750888935
   21      C       6.9014956499     0.2931414671     0.4068302279
   22      C       5.8671753496    -0.6236598858    -0.3377988995
   23      O       5.4061647368     0.1805798796    -1.4637691691
   24      H       4.1553060320     1.2427092611     1.3936571309
   25      H       4.7405827849    -1.0687445474     1.5708341970
   26      H       4.5656616526     2.1626583875    -1.2111429550
   27      H       6.9781665887     2.1846178058    -0.6789158675
   28      H       6.2221406352     2.3819809407     0.9373349269
   29      H       7.9073416359     0.1922646349    -0.0360719652
   30      H       6.9451859142     0.0545931954     1.4835478619
   31      H       6.3019477703    -1.6041693469    -0.6171719586
   32      O      -2.2848200934    -1.1768641880     1.8871246489
   33      C      -2.9804062591     3.7486997956    -0.6905117104
   34      C      -5.7631830283    -0.2010133435    -0.1609470499
   35      C      -6.3678493482    -1.2392557215    -1.1643426076
   36      C      -5.4597553292    -2.4744496927    -0.8911654933
   37      C      -4.5685800124    -1.9301410549     0.2793820418
   38      O      -5.4481374158    -1.0203039248     1.0029193757
   39      H      -4.3895080730     0.3659842936    -1.8051082884
   40      H      -2.9652978442    -1.4100890788    -1.1899421136
   41      H      -2.1502877858     3.6688146933     0.0444201292
   42      H      -6.4557545081     0.6399891308     0.0419656031
   43      H      -7.3968139655    -1.4691240536    -0.8340442824
   44      H      -6.3962089023    -0.8975195246    -2.2132400972
   45      H      -6.0829777783    -3.3117250631    -0.5316395685
   46      H      -4.8580673618    -2.8100835337    -1.7532661474
   47      H      -4.1433703009    -2.7474635822     0.8953340405
   48      H      -3.8111393056     4.3202834383    -0.2226398386
   49      H      -2.6200241804     4.3012127307    -1.5795993841
   50      H       0.4974946233    -2.6751911900     0.5024362217
   51      H       1.8480697262    -3.8479902192     0.2579998310
   52      H       1.3098959047    -2.7929467382    -1.1047216910
   53      H       0.3260420859     1.7023609456    -0.5529043438
   54      H       0.0684457784     2.7814283909     0.8361044437
   55      H       0.1730064591    -0.2503521066     1.3256516860
   56      H      -0.8373909541     0.9578625673     2.1945616161
 ----------------------------------------------------------------
 Molecular Point Group                 C1    NOp =  1
 Largest Abelian Subgroup              C1    NOp =  1
 Nuclear Repulsion Energy =  3113.7077215118 hartrees
 There are      113 alpha and      113 beta electrons
 Applying Cartesian multipole field
    Component          Value
    ---------          -----
     (2,0,0)        1.00000E-12
     (0,2,0)        2.00000E-11
     (0,0,2)       -3.00000E-11
 Nucleus-field energy     =     0.0000000431 hartrees
 Requested basis set is STO-3G
 There are 86 shells and 176 basis functions
 A cutoff of  1.0D-12 yielded   2115 shell pairs
 There are      9897 function pairs
 Smallest overlap matrix eigenvalue = 2.07E-01
 Guess MOs from SCF MO coefficient file
 Reading MOs from coefficient file
 Reading MOs from coefficient file
 A restricted hybrid HF-DFT SCF calculation will be
 performed using Pulay DIIS extrapolation
 Exchange:     0.2000 Hartree-Fock + 0.0800 Slater + 0.7200 B88
 Correlation:  0.1900 VWN1RPA + 0.8100 LYP
 Using SG-1 standard quadrature grid
 Dispersion:   Grimme D3
 SCF converges when DIIS error is below 1.0E-08
 Geometry optimization detected.  Setting ReadMinima to 0
 Setting SaveMinima to 0
 using 48 threads for integral computing
 -------------------------------------------------------
 OpenMP Integral computing Module                
 Release: version 1.0, May 2013, Q-Chem Inc. Pittsburgh 
 -------------------------------------------------------
 -------------------------------------------------------
 OpenMP BLAS3 based DFT computing Module                
 Release: version 1.0, May 2013, Q-Chem Inc. Pittsburgh 
 -------------------------------------------------------
 ---------------------------------------
  Cycle       Energy         DIIS Error
 ---------------------------------------
    1   -1510.1140995861      2.86E-03
    2   -1510.2568644119      8.93E-04
    3   -1510.2499613811      1.56E-03
    4   -1510.2601738032      2.67E-04
    5   -1510.2604958890      5.28E-05
    6   -1510.2605070583      2.28E-05
    7   -1510.2605086056      1.37E-05
    8   -1510.2605094049      2.19E-06
    9   -1510.2605094314      5.08E-07
   10   -1510.2605094320      4.29E-07
   11   -1510.2605094329      9.70E-08
   12   -1510.2605094329      2.07E-08
   13   -1510.2605094330      1.73E-08
   14   -1510.2605094330      5.57E-09 Convergence criterion met
 ---------------------------------------
 SCF time:  CPU 94.79 s  wall 1.98 s
 SCF   energy in the final basis set = -1510.26050943
 Total energy in the final basis set = -1510.26050943
 
 --------------------------------------------------------------
 
                    Orbital Energies (a.u.)
 --------------------------------------------------------------
 
 Alpha MOs
 -- Occupied --
-18.945 -18.942 -18.937 -18.935 -18.896 -18.893 -18.875 -18.869
-18.867 -18.861 -10.105 -10.104 -10.102 -10.100 -10.079 -10.077
-10.072 -10.070 -10.065 -10.063 -10.063 -10.060 -10.042 -10.039
-10.039 -10.037 -10.020 -10.019 -10.018 -10.017  -1.029  -1.025
 -1.021  -1.019  -0.989  -0.986  -0.945  -0.941  -0.936  -0.936
 -0.772  -0.770  -0.735  -0.730  -0.720  -0.711  -0.703  -0.671
 -0.669  -0.625  -0.601  -0.587  -0.552  -0.549  -0.538  -0.537
 -0.519  -0.515  -0.494  -0.480  -0.471  -0.460  -0.456  -0.453
 -0.449  -0.437  -0.435  -0.419  -0.419  -0.415  -0.415  -0.406
 -0.400  -0.390  -0.381  -0.374  -0.369  -0.360  -0.359  -0.353
 -0.349  -0.343  -0.342  -0.339  -0.337  -0.329  -0.327  -0.310
 -0.309  -0.305  -0.304  -0.300  -0.296  -0.290  -0.285  -0.274
 -0.272  -0.255  -0.251  -0.245  -0.243  -0.237  -0.235  -0.185
 -0.183  -0.175  -0.171  -0.157  -0.155  -0.151  -0.148  -0.146
 -0.144
 -- Virtual --
  0.093   0.096   0.110   0.111   0.212   0.235   0.247   0.273
  0.278   0.292   0.299   0.305   0.315   0.322   0.334   0.340
  0.345   0.349   0.357   0.360   0.366   0.370   0.371   0.379
  0.386   0.388   0.390   0.397   0.406   0.406   0.410   0.414
  0.417   0.419   0.420   0.423   0.426   0.430   0.434   0.436
  0.440   0.443   0.447   0.451   0.458   0.460   0.463   0.468
  0.470   0.472   0.486   0.489   0.490   0.514   0.518   0.544
  0.546   0.553   0.556   0.646   0.649   0.657   0.664
 --------------------------------------------------------------
 
          Ground-State Mulliken Net Atomic Charges

     Atom                 Charge (a.u.)
  ----------------------------------------
      1 O                    -0.223616
      2 C                     0.215994
      3 C                    -0.080776
      4 C                    -0.079098
      5 C                     0.217175
      6 O                    -0.179038
      7 C                    -0.044862
      8 C                    -0.047459
      9 O                    -0.177265
     10 C                     0.219154
     11 C                    -0.082048
     12 C                    -0.076827
     13 C                     0.221905
     14 O                    -0.217159
     15 O                    -0.182829
     16 O                    -0.188512
     17 O                    -0.219195
     18 C                    -0.116287
     19 C                     0.030985
     20 C                    -0.143235
     21 C                    -0.145503
     22 C                     0.030114
     23 O                    -0.191007
     24 H                     0.085465
     25 H                     0.087549
     26 H                     0.083371
     27 H                     0.076969
     28 H                     0.074089
     29 H                     0.077545
     30 H                     0.073048
     31 H                     0.091934
     32 O                    -0.211597
     33 C                    -0.115907
     34 C                     0.031410
     35 C                    -0.143773
     36 C                    -0.145264
     37 C                     0.030460
     38 O                    -0.190391
     39 H                     0.086625
     40 H                     0.085382
     41 H                     0.083474
     42 H                     0.084944
     43 H                     0.076770
     44 H                     0.073828
     45 H                     0.076774
     46 H                     0.072632
     47 H                     0.088786
     48 H                     0.088073
     49 H                     0.091677
     50 H                     0.090137
     51 H                     0.088202
     52 H                     0.091822
     53 H                     0.102899
     54 H                     0.087046
     55 H                     0.091032
     56 H                     0.094381
  ----------------------------------------
  Sum of atomic charges =     0.000000

 -----------------------------------------------------------------
                    Cartesian Multipole Moments
 -----------------------------------------------------------------
    Charge (ESU x 10^10)
                 0.0000
    Dipole Moment (Debye)
         X       0.4972      Y       1.5206      Z      -0.4718
       Tot       1.6679
    Quadrupole Moments (Debye-Ang)
        XX    -154.1066     XY       7.3485     YY    -151.3605
        XZ      23.9969     YZ      -1.4200     ZZ    -169.8127
    Octopole Moments (Debye-Ang^2)
       XXX      40.4683    XXY      26.6669    XYY     -27.4719
       YYY      33.4894    XXZ     -11.3567    XYZ     -17.5357
       YYZ      -3.8837    XZZ       7.2962    YZZ       4.1097
       ZZZ      -0.8546
    Hexadecapole Moments (Debye-Ang^3)
      XXXX  -16501.2680   XXXY     -27.5571   XXYY   -3325.5796
      XYYY    -157.3878   YYYY   -2794.3465   XXXZ     414.9194
      XXYZ     -51.0218   XYYZ      12.2156   YYYZ     -72.6612
      XXZZ   -3159.4715   XYZZ     -48.6883   YYZZ    -634.2664
      XZZZ     -19.8032   YZZZ       5.5574   ZZZZ    -804.4983
 -----------------------------------------------------------------
 Calculating analytic gradient of the SCF energy
 Gradient of SCF Energy
            1           2           3           4           5           6
    1  -0.0015481   0.0074044  -0.0030394  -0.0047322   0.0089788   0.0008097
    2   0.0001380  -0.0056319  -0.0048815   0.0095923   0.0041635  -0.0152929
    3  -0.0118692  -0.0239160   0.0243414   0.0086111  -0.0107886   0.0146988
            7           8           9          10          11          12
    1  -0.0111876   0.0143407  -0.0015906  -0.0067413  -0.0011134   0.0019324
    2   0.0117842  -0.0078837  -0.0150598   0.0062398  -0.0069056  -0.0036295
    3  -0.0100210   0.0177651  -0.0243037   0.0237306  -0.0170026  -0.0066391
           13          14          15          16          17          18
    1  -0.0063550  -0.0064102  -0.0016152   0.0075797   0.0061865   0.0091294
    2   0.0282086   0.0016801   0.0199494  -0.0375411   0.0024637   0.0204441
    3  -0.0040464   0.0151238   0.0415038  -0.0265011   0.0067733   0.0128828
           19          20          21          22          23          24
    1   0.0059923  -0.0085051  -0.0077321  -0.0133198   0.0024818   0.0025736
    2  -0.0224129  -0.0107996   0.0011543   0.0190515   0.0034238   0.0029892
    3  -0.0060304   0.0017756  -0.0044113  -0.0132335   0.0247596   0.0003609
           25          26          27          28          29          30
    1  -0.0021356   0.0011306   0.0007018   0.0024370   0.0012762  -0.0009749
    2  -0.0021152   0.0061691  -0.0024601   0.0027896   0.0043608  -0.0027983
    3   0.0009258   0.0065664  -0.0041034   0.0005357  -0.0034610   0.0013868
           31          32          33          34          35          36
    1   0.0051071  -0.0041249  -0.0055407   0.0098083   0.0118913   0.0024990
    2  -0.0010795   0.0043910  -0.0201456  -0.0156813   0.0018115   0.0089211
    3   0.0085543  -0.0067065  -0.0154865   0.0127424   0.0044035   0.0034171
           37          38          39          40          41          42
    1  -0.0136697   0.0069098  -0.0006173   0.0022180   0.0008638  -0.0021008
    2   0.0202263  -0.0020744   0.0001768  -0.0018537  -0.0015153   0.0016003
    3   0.0057730  -0.0247609  -0.0018861   0.0003770  -0.0005864  -0.0086642
           43          44          45          46          47          48
    1  -0.0004051  -0.0023686  -0.0046846   0.0022544   0.0022960  -0.0013424
    2  -0.0021598   0.0001844   0.0014617  -0.0013581  -0.0057950  -0.0006657
    3   0.0043911  -0.0018501   0.0018999  -0.0003500  -0.0075713  -0.0010849
           49          50          51          52          53          54
    1   0.0005096  -0.0011965   0.0005795   0.0002723  -0.0021282  -0.0054723
    2   0.0016895  -0.0013728   0.0004088   0.0015622   0.0045018   0.0004451
    3   0.0005464  -0.0007150   0.0015002  -0.0002414  -0.0003349  -0.0067026
           55          56
    1  -0.0011878   0.0036751
    2  -0.0013171   0.0004482
    3  -0.0039030   0.0018247
 Max gradient component =       4.150E-02
 RMS gradient           =       1.005E-02
 Gradient time:  CPU 29.14 s  wall 0.62 s
 Geometry Optimization Parameters
   NAtoms,    NIC,     NZ,  NCons,   NDum,   NFix, NCnnct, MaxDiis
       56     458       0       9       0       0       0       0

 Cartesian Hessian Update
 Hessian Updated using BFGS Update


** CONSTRAINED OPTIMIZATION IN DELOCALIZED INTERNAL COORDINATES **
   Searching for a Minimum

   Optimization Cycle:   3

                       Coordinates (Angstroms)
     ATOM                X               Y               Z
      1  O        -4.0221562464    2.0080468788    1.0533736892
      2  C        -3.9009770470    1.6200806023   -0.1266162939
      3  C        -4.3580456024    0.2594267999   -0.7035293266
      4  C        -3.4718914905   -0.9696385260   -0.3089505243
      5  C        -2.3835955457   -0.6669599637    0.7546519973
      6  O        -1.5271160096    0.3262974016    0.2450758798
      7  C        -0.4607536390    0.6567341918    1.1928055084
      8  C         0.4243999434    1.7691013001    0.5548807435
      9  O         1.8218149633    1.6032929209    0.9484806063
     10  C         2.5318897290    0.8269459030    0.0174102317
     11  C         4.0140593964    0.7066757812    0.4353073318
     12  C         4.5610614010   -0.7607138002    0.5221947968
     13  C         3.6494394119   -1.8497876828   -0.1106424772
     14  O         4.0338758436   -2.8357015711   -0.7713572681
     15  O        -3.4139521745    2.4545545810   -1.1411942498
     16  O         2.3599784513   -1.8020519060    0.4409431623
     17  O         2.0542422183    0.4096980268   -1.0577659840
     18  C         1.4681366293   -2.8370216855   -0.0056647517
     19  C         4.9965819415    1.3142943006   -0.6430507555
     20  C         6.3301505754    1.7019449040    0.0750888935
     21  C         6.9014956499    0.2931414671    0.4068302279
     22  C         5.8671753496   -0.6236598858   -0.3377988995
     23  O         5.4061647368    0.1805798796   -1.4637691691
     24  H         4.1553060320    1.2427092611    1.3936571309
     25  H         4.7405827849   -1.0687445474    1.5708341970
     26  H         4.5656616526    2.1626583875   -1.2111429550
     27  H         6.9781665887    2.1846178058   -0.6789158675
     28  H         6.2221406352    2.3819809407    0.9373349269
     29  H         7.9073416359    0.1922646349   -0.0360719652
     30  H         6.9451859142    0.0545931954    1.4835478619
     31  H         6.3019477703   -1.6041693469   -0.6171719586
     32  O        -2.2848200934   -1.1768641880    1.8871246489
     33  C        -2.9804062591    3.7486997956   -0.6905117104
     34  C        -5.7631830283   -0.2010133435   -0.1609470499
     35  C        -6.3678493482   -1.2392557215   -1.1643426076
     36  C        -5.4597553292   -2.4744496927   -0.8911654933
     37  C        -4.5685800124   -1.9301410549    0.2793820418
     38  O        -5.4481374158   -1.0203039248    1.0029193757
     39  H        -4.3895080730    0.3659842936   -1.8051082884
     40  H        -2.9652978442   -1.4100890788   -1.1899421136
     41  H        -2.1502877858    3.6688146933    0.0444201292
     42  H        -6.4557545081    0.6399891308    0.0419656031
     43  H        -7.3968139655   -1.4691240536   -0.8340442824
     44  H        -6.3962089023   -0.8975195246   -2.2132400972
     45  H        -6.0829777783   -3.3117250631   -0.5316395685
     46  H        -4.8580673618   -2.8100835337   -1.7532661474
     47  H        -4.1433703009   -2.7474635822    0.8953340405
     48  H        -3.8111393056    4.3202834383   -0.2226398386
     49  H        -2.6200241804    4.3012127307   -1.5795993841
     50  H         0.4974946233   -2.6751911900    0.5024362217
     51  H         1.8480697262   -3.8479902192    0.2579998310
     52  H         1.3098959047   -2.7929467382   -1.1047216910
     53  H         0.3260420859    1.7023609456   -0.5529043438
     54  H         0.0684457784    2.7814283909    0.8361044437
     55  H         0.1730064591   -0.2503521066    1.3256516860
     56  H        -0.8373909541    0.9578625673    2.1945616161
   Point Group: c1    Number of degrees of freedom:   162


   Energy is  -1510.260509433

              Constraints and their Current Values
                                        Value     Constraint
   Dihedral:        1   2   3   4      -74.326      -74.319
   Dihedral:        3   4   5   6      -59.884      -59.885
   Dihedral:        4   5   6   7     -179.431     -179.437
   Dihedral:        5   6   7   8     -179.395     -179.395
   Dihedral:        6   7   8   9     -145.799     -145.809
   Dihedral:        7   8   9  10       92.277       92.274
   Dihedral:        8   9  10  11      178.187      178.190
   Dihedral:        9  10  11  12      126.831      126.828
   Dihedral:       11  12  13  14      140.711      140.699
 Hessian Updated using BFGS Update

   Using Lagrange Multiplier Algorithm


160 Hessian modes will be used to form the next step
  Hessian Eigenvalues:
    -0.977754   -0.977753   -0.977753   -0.977753   -0.977753   -0.977753
    -0.977749   -0.977419    0.044987    0.045000    0.045002    0.045020
     0.045140    0.045237    0.045504    0.045561    0.046405    0.048814
     0.048862    0.054200    0.059232    0.059955    0.062422    0.062665
     0.066970    0.067014    0.067726    0.067847    0.069561    0.070880
     0.071535    0.073856    0.074005    0.075598    0.075904    0.076741
     0.076994    0.082464    0.082591    0.083369    0.083777    0.084117
     0.084429    0.085188    0.085541    0.085662    0.086529    0.086719
     0.087040    0.088340    0.088783    0.089075    0.089359    0.089808
     0.089941    0.093724    0.093870    0.096605    0.096653    0.111554
     0.111662    0.114632    0.114674    0.115878    0.115902    0.116358
     0.117534    0.118138    0.118892    0.119043    0.123139    0.123697
     0.130246    0.131215    0.131891    0.139530    0.140612    0.159846
     0.160013    0.161542    0.171373    0.172160    0.172605    0.172931
     0.219042    0.220826    0.239210    0.241923    0.243776    0.245748
     0.248441    0.249667    0.249821    0.253625    0.254013    0.258620
     0.259536    0.267078    0.267479    0.278536    0.280956    0.284257
     0.289186    0.295205    0.297437    0.302385    0.308605    0.310456
     0.312224    0.317932    0.320653    0.321451    0.321957    0.322147
     0.322224    0.322463    0.322540    0.322792    0.323097    0.323490
     0.323682    0.323822    0.323846    0.323880    0.323948    0.324237
     0.324406    0.324613    0.324689    0.324856    0.324993    0.325082
     0.325693    0.326701    0.326802    0.330664    0.367636    0.368233
     0.382918    0.387359    0.405121    0.406544    0.459884    0.491907
     0.513288    0.522229    0.529020    0.536057    0.924993    0.929206
     0.942338    1.001396    1.022753    1.022753    1.022753    1.022753
     1.022753    1.022753    1.022772    1.026919

 Minimum Search - Taking P-RFO Step
 Searching for Lamda that Maximizes Along the Constraint modes Only
 Value Taken    Lamda =   0.00000327
 Searching for Lamda that Minimizes Along All other modes
 Value Taken    Lamda =  -0.02951972
 Calculated Step too Large.  Step scaled by  0.758213
 Step Taken.  Stepsize is  0.300000

                             Maximum     Tolerance    Cnvgd?
         Gradient            0.033021       0.000300      NO
         Displacement        0.066397       0.001200      NO
         Energy change     -0.036614       0.000001      NO


 New Cartesian Coordinates Obtained by Inverse Iteration

 Displacement from previous Coordinates is:  1.091467
 Adding empirical dispersion correction 
 ----------------------------------------------------------------
 Doing -D3(op) with
 s6 =   1.00000
 s8 =   0.78311
 a1 =   0.30000
 a2 =   4.25000
 n  =  10.00000
 -D3 energy without 3body term =     -0.0676577156 hartrees
 ----------------------------------------------------------------
             Standard Nuclear Orientation (Angstroms)
    I     Atom           X                Y                Z
 ----------------------------------------------------------------
    1      O      -3.9682931193     1.9766576364     1.0759721796
    2      C      -3.8640956128     1.5971003655    -0.1110656668
    3      C      -4.3607940985     0.2527830130    -0.7265332962
    4      C      -3.4848458648    -1.0009746220    -0.3417614459
    5      C      -2.4021333662    -0.6949369005     0.7447849770
    6      O      -1.5384711245     0.3148340971     0.2333335912
    7      C      -0.4775202785     0.6460630860     1.2068518058
    8      C       0.4051419003     1.7699614299     0.5618034978
    9      O       1.8146457757     1.6188855949     0.9632364435
   10      C       2.5197363449     0.8299490637     0.0080013721
   11      C       4.0122616880     0.7255549261     0.4322788989
   12      C       4.5784144323    -0.7441357892     0.5284254537
   13      C       3.6320169707    -1.8545332913    -0.0463843998
   14      O       3.9745517695    -2.8587226674    -0.7073526658
   15      O      -3.3333823103     2.4138181752    -1.1486033024
   16      O       2.3460914246    -1.7287346951     0.5537436018
   17      O       2.0199433938     0.4077141731    -1.0580180824
   18      C       1.4388512533    -2.7874694911     0.1045381297
   19      C       4.9771629632     1.3284951336    -0.6822068448
   20      C       6.3290443049     1.7315001705     0.0133725246
   21      C       6.9145163278     0.3181967425     0.3562012207
   22      C       5.8710522944    -0.6228675536    -0.3648449685
   23      O       5.3783128907     0.1726263795    -1.5056392290
   24      H       4.1552162643     1.2703141302     1.3827728414
   25      H       4.7862493061    -1.0294340094     1.5772216988
   26      H       4.5223111179     2.1471488323    -1.2731072228
   27      H       6.9679592841     2.2175829606    -0.7433621618
   28      H       6.2177604530     2.4131185242     0.8718570754
   29      H       7.9159121266     0.2038565701    -0.0890370004
   30      H       6.9706897616     0.1029929934     1.4355683810
   31      H       6.2859609281    -1.6066464885    -0.6596699390
   32      O      -2.2932790358    -1.2110316438     1.8763020372
   33      C      -2.8554623934     3.6930511424    -0.6171815566
[...]
     15  O        -3.3286568255    2.4041678963   -1.1423276147
     16  O         2.2822262561   -1.5251276532    0.9013884750
     17  O         2.0468516606    0.5323215074   -1.0745105643
     18  C         1.2789996623   -2.5764508514    0.6025463553
     19  C         4.9990929667    1.4422406105   -0.5996168155
     20  C         6.4348212362    1.5912267627    0.0441912981
     21  C         6.9456954187    0.1024804685    0.0039580457
     22  C         5.6880525853   -0.6299607277   -0.6044573681
     23  O         5.1616074560    0.3493448465   -1.5839870753
     24  H         4.1123561540    1.2920580667    1.4693973771
     25  H         4.9920374561   -0.9161299457    1.5003426022
     26  H         4.6060206267    2.3525632561   -1.0925838588
     27  H         7.0655686996    2.2533783755   -0.5700423850
     28  H         6.3871025624    1.9978686985    1.0671266359
     29  H         7.8148314576   -0.0069702765   -0.6639523923
     30  H         7.2131574961   -0.2842893234    1.0001508569
     31  H         5.8793942761   -1.6057533850   -1.0924085688
     32  O        -2.1699642209   -1.3018987307    1.7130631209
     33  C        -2.8541297343    3.6728841927   -0.5453739287
     34  C        -5.7513410568   -0.2818653213   -0.2432235523
     35  C        -6.3460106438   -1.3027091092   -1.2920172658
     36  C        -5.4170951404   -2.5519920157   -1.0554930380
     37  C        -4.4957836585   -2.0325707792    0.1164857100
     38  O        -5.3852419072   -1.1441790375    0.9020277525
     39  H        -4.3912859275    0.4042514481   -1.8899770207
     40  H        -2.9254831425   -1.3981403957   -1.3757995301
     41  H        -2.0968235359    3.4926010966    0.2436933001
     42  H        -6.4395653182    0.5218979546    0.0826956410
     43  H        -7.3965611314   -1.5306195797   -1.0508859714
     44  H        -6.2945908626   -0.9203653686   -2.3240440472
     45  H        -5.9958434620   -3.4310511071   -0.7306199917
     46  H        -4.8352303018   -2.8246095744   -1.9506057196
     47  H        -4.0585491593   -2.8121813855    0.7700426032
     48  H        -3.6889372919    4.2542812393   -0.1028707478
     49  H        -2.3989577938    4.2495665305   -1.3713962519
     50  H         0.4460753705   -2.4285746370    1.3151971121
     51  H         1.7051865082   -3.5917428930    0.7281621977
     52  H         0.8985986068   -2.4774134616   -0.4348874422
     53  H         0.3407709925    1.8150574903   -0.5415257108
     54  H         0.0656463636    2.8208194298    0.9529623047
     55  H         0.1979573241   -0.2169241217    1.3098563926
     56  H        -0.9202710386    0.9337944969    2.1208662229
   Point Group: c1    Number of degrees of freedom:   162


   Energy is  -1510.284733399

              Constraints and their Current Values
                                        Value     Constraint
   Dihedral:        1   2   3   4      -74.319      -74.319
   Dihedral:        3   4   5   6      -59.885      -59.885
   Dihedral:        4   5   6   7     -179.437     -179.437
   Dihedral:        5   6   7   8     -179.395     -179.395
   Dihedral:        6   7   8   9     -145.809     -145.809
   Dihedral:        7   8   9  10       92.274       92.274
   Dihedral:        8   9  10  11      178.190      178.190
   Dihedral:        9  10  11  12      126.828      126.828
   Dihedral:       11  12  13  14      140.699      140.699
 Hessian Updated using BFGS Update

153 Hessian modes will be used to form the next step
  Hessian Eigenvalues:
     0.003027    0.007368    0.015546    0.022880    0.042210    0.045007
     0.045160    0.045331    0.045464    0.045988    0.048020    0.048806
     0.049902    0.052841    0.056765    0.060046    0.062786    0.066476
     0.066956    0.067194    0.067878    0.068143    0.069877    0.071260
     0.073612    0.074571    0.075562    0.075918    0.077389    0.078864
     0.082037    0.082459    0.082739    0.083613    0.084001    0.084490
     0.084829    0.085831    0.086402    0.086605    0.087149    0.087734
     0.088987    0.089140    0.089618    0.089779    0.090791    0.092768
     0.093835    0.093913    0.096638    0.096835    0.111567    0.111661
     0.114729    0.114817    0.115858    0.115906    0.117043    0.117784
     0.118232    0.120703    0.122036    0.123104    0.124054    0.130483
     0.131856    0.132096    0.154471    0.155854    0.159989    0.160011
     0.160047    0.160283    0.161771    0.162064    0.171947    0.172912
     0.186173    0.196387    0.215231    0.224877    0.237479    0.242057
     0.243872    0.245106    0.248928    0.249055    0.249775    0.251083
     0.254534    0.256988    0.262063    0.266617    0.267274    0.275128
     0.279903    0.283179    0.284504    0.290842    0.295236    0.298109
     0.302263    0.308626    0.309724    0.313563    0.317285    0.320704
     0.320907    0.321207    0.321504    0.321756    0.322063    0.322212
     0.322489    0.323088    0.323301    0.323564    0.323729    0.323744
     0.323891    0.323907    0.324035    0.324285    0.324504    0.324678
     0.324869    0.325040    0.325499    0.326000    0.326808    0.328096
     0.330776    0.338730    0.348891    0.354350    0.366940    0.369094
     0.387839    0.408946    0.421251    0.424549    0.466892    0.492916
     0.505715    0.514420    0.533395    0.550047    0.633234    0.925937
     0.930295    0.943263    1.013653

 Minimum Search - Taking Simple RFO Step
 Searching for Lamda that Minimizes Along All modes
 Value Taken    Lamda =   0.00000000
 Step Taken.  Stepsize is  0.003043

                             Maximum     Tolerance    Cnvgd?
         Gradient           0.000029      0.000300     YES
         Displacement       0.001148      0.001200     YES
         Energy change     -0.000001      0.000001     YES

 Final energy is   -1510.28473339857     


 ******************************
 **  OPTIMIZATION CONVERGED  **
 ******************************

                       Coordinates (Angstroms)
     ATOM                X               Y               Z
      1  O        -3.9751487511    1.8883518137    1.0808000868
      2  C        -3.8770559308    1.5597805021   -0.1211427417
      3  C        -4.3533579155    0.2297138265   -0.8004527485
      4  C        -3.4289957941   -1.0196626073   -0.4674838593
      5  C        -2.3441006308   -0.7120464134    0.6256598834
      6  O        -1.5115863257    0.3490945107    0.1452477128
      7  C        -0.4618215728    0.6617447233    1.1463207381
      8  C         0.4037965189    1.8388592898    0.5682239034
      9  O         1.8105611846    1.6653648584    1.0006507060
     10  C         2.5371754724    0.9234963532    0.0066120195
     11  C         4.0214795932    0.8060164038    0.4826542720
     12  C         4.5597786919   -0.6853214766    0.5082730768
     13  C         3.4996435343   -1.8010652527    0.1923770537
     14  O         3.6895965730   -2.8322979991   -0.4866854852
     15  O        -3.3286568255    2.4041678963   -1.1423276147
     16  O         2.2822262561   -1.5251276532    0.9013884750
     17  O         2.0468516606    0.5323215074   -1.0745105643
     18  C         1.2789996623   -2.5764508514    0.6025463553
     19  C         4.9990929667    1.4422406105   -0.5996168155
     20  C         6.4348212362    1.5912267627    0.0441912981
     21  C         6.9456954187    0.1024804685    0.0039580457
     22  C         5.6880525853   -0.6299607277   -0.6044573681
     23  O         5.1616074560    0.3493448465   -1.5839870753
     24  H         4.1123561540    1.2920580667    1.4693973771
     25  H         4.9920374561   -0.9161299457    1.5003426022
     26  H         4.6060206267    2.3525632561   -1.0925838588
     27  H         7.0655686996    2.2533783755   -0.5700423850
     28  H         6.3871025624    1.9978686985    1.0671266359
     29  H         7.8148314576   -0.0069702765   -0.6639523923
     30  H         7.2131574961   -0.2842893234    1.0001508569
     31  H         5.8793942761   -1.6057533850   -1.0924085688
     32  O        -2.1699642209   -1.3018987307    1.7130631209
     33  C        -2.8541297343    3.6728841927   -0.5453739287
     34  C        -5.7513410568   -0.2818653213   -0.2432235523
     35  C        -6.3460106438   -1.3027091092   -1.2920172658
     36  C        -5.4170951404   -2.5519920157   -1.0554930380
     37  C        -4.4957836585   -2.0325707792    0.1164857100
     38  O        -5.3852419072   -1.1441790375    0.9020277525
     39  H        -4.3912859275    0.4042514481   -1.8899770207
     40  H        -2.9254831425   -1.3981403957   -1.3757995301
     41  H        -2.0968235359    3.4926010966    0.2436933001
     42  H        -6.4395653182    0.5218979546    0.0826956410
     43  H        -7.3965611314   -1.5306195797   -1.0508859714
     44  H        -6.2945908626   -0.9203653686   -2.3240440472
     45  H        -5.9958434620   -3.4310511071   -0.7306199917
     46  H        -4.8352303018   -2.8246095744   -1.9506057196
     47  H        -4.0585491593   -2.8121813855    0.7700426032
     48  H        -3.6889372919    4.2542812393   -0.1028707478
     49  H        -2.3989577938    4.2495665305   -1.3713962519
     50  H         0.4460753705   -2.4285746370    1.3151971121
     51  H         1.7051865082   -3.5917428930    0.7281621977
     52  H         0.8985986068   -2.4774134616   -0.4348874422
     53  H         0.3407709925    1.8150574903   -0.5415257108
     54  H         0.0656463636    2.8208194298    0.9529623047
     55  H         0.1979573241   -0.2169241217    1.3098563926
     56  H        -0.9202710386    0.9337944969    2.1208662229

Z-matrix Print:
$molecule
0 1
O 
C  1 1.431746
O  2 1.249278 1 124.121712
C  1 1.483881 2 109.946822 3 -1.995595 0
H  4 1.110822 1 110.578948 2 -57.506378 0
H  4 1.110906 1 110.659933 2 62.169268 0
C  2 1.570538 1 108.257294 3 -177.441400 0
H  7 1.105354 2 108.926735 1 64.379138 0
C  4 1.571334 1 107.419010 2 -179.395039 0
H  9 1.107526 4 111.603890 1 96.144260 0
H  9 1.111793 4 108.660507 1 -25.812234 0
O  9 1.481918 4 109.140578 1 -145.809025 0
C  12 1.437515 9 109.783707 4 92.273988 0
O  13 1.249904 12 124.148913 9 2.217421 0
C  13 1.563194 12 107.948262 9 178.189976 0
H  15 1.103702 13 108.502592 12 1.904724 0
C  7 1.582732 2 109.520059 1 -171.549949 0
H  17 1.107295 7 113.716445 2 -37.991521 0
O  17 1.482381 7 102.498092 2 80.993556 0
C  19 1.479599 17 95.023548 7 58.321172 0
H  20 1.107209 19 110.428192 17 -179.305716 0
C  17 1.578654 7 109.269671 2 -169.229349 0
H  22 1.101470 17 110.503885 7 166.058895 0
H  22 1.101868 17 112.105240 7 44.713833 0
C  22 1.574654 17 101.230161 7 -75.628646 0
H  25 1.101700 22 111.439998 17 -115.350880 0
H  25 1.101776 22 112.860316 17 121.952972 0
C  15 1.585721 13 113.449154 12 126.827971 0
H  28 1.106491 15 110.076813 13 -127.374994 0
C  28 1.571165 15 115.821470 13 -5.596237 0
O  30 1.249259 28 126.362661 15 140.698981 0
O  30 1.435599 28 109.657852 15 -44.251159 0
C  32 1.483594 30 109.740081 28 179.903718 0
H  33 1.106120 32 106.539971 30 169.201894 0
H  33 1.108257 32 111.488635 30 49.400800 0
H  33 1.109406 32 110.914124 30 -71.809626 0
C  28 1.585634 15 101.383637 13 115.048259 0
H  37 1.107646 28 113.659890 15 -153.110419 0
O  37 1.481777 28 103.542647 15 -33.026992 0
C  39 1.479803 37 95.013227 28 56.137721 0
H  40 1.107344 39 110.486495 37 179.440798 0
C  37 1.577436 28 108.231064 15 76.234471 0
H  42 1.101581 37 110.429020 28 169.177667 0
H  42 1.101602 37 112.292913 28 47.582639 0
C  42 1.574477 37 100.964756 28 -72.827674 0
H  45 1.101622 42 111.611611 37 -119.573499 0
H  45 1.101831 42 112.751863 37 117.736441 0
C  7 1.589420 2 113.177914 1 -59.885024 0
H  48 1.104068 7 110.546955 2 128.980063 0
C  48 1.567611 7 113.544382 2 7.823031 0
O  50 1.249899 48 128.018269 7 -74.318972 0
O  50 1.434068 48 107.890304 7 107.814236 0
C  52 1.480260 50 109.881707 48 -179.570620 0
H  53 1.105467 52 106.127292 50 177.102188 0
H  53 1.108441 52 111.512100 50 57.806676 0
H  53 1.109385 52 111.641910 50 -63.601319 0
$end

 
 --------------------------------------------------------------
 
                    Orbital Energies (a.u.)
 --------------------------------------------------------------
 
 Alpha MOs
 -- Occupied --
-18.938 -18.936 -18.933 -18.932 -18.889 -18.886 -18.880 -18.879
-18.873 -18.869 -10.103 -10.102 -10.100 -10.096 -10.072 -10.071
-10.065 -10.064 -10.062 -10.059 -10.059 -10.057 -10.041 -10.039
-10.039 -10.035 -10.022 -10.021 -10.020 -10.019  -1.018  -1.015
 -1.009  -1.006  -0.972  -0.969  -0.941  -0.939  -0.935  -0.932
 -0.766  -0.763  -0.729  -0.723  -0.712  -0.705  -0.698  -0.664
 -0.663  -0.618  -0.597  -0.583  -0.547  -0.546  -0.539  -0.537
 -0.514  -0.510  -0.487  -0.473  -0.463  -0.455  -0.454  -0.448
 -0.445  -0.432  -0.430  -0.415  -0.413  -0.411  -0.409  -0.401
 -0.396  -0.383  -0.376  -0.367  -0.364  -0.357  -0.354  -0.349
 -0.347  -0.342  -0.337  -0.332  -0.331  -0.329  -0.327  -0.312
 -0.309  -0.307  -0.306  -0.297  -0.293  -0.287  -0.284  -0.274
 -0.273  -0.256  -0.256  -0.253  -0.250  -0.235  -0.233  -0.182
 -0.181  -0.175  -0.174  -0.160  -0.158  -0.152  -0.147  -0.145
 -0.143
 -- Virtual --
  0.091   0.094   0.107   0.108   0.211   0.231   0.243   0.256
  0.260   0.279   0.281   0.286   0.301   0.311   0.325   0.327
  0.329   0.333   0.342   0.346   0.357   0.361   0.368   0.373
  0.376   0.382   0.383   0.388   0.399   0.405   0.406   0.409
  0.411   0.418   0.419   0.421   0.422   0.424   0.426   0.430
  0.432   0.433   0.434   0.435   0.440   0.443   0.457   0.465
  0.467   0.482   0.487   0.488   0.496   0.505   0.507   0.540
  0.541   0.550   0.552   0.636   0.639   0.652   0.656
 --------------------------------------------------------------
 
          Ground-State Mulliken Net Atomic Charges

     Atom                 Charge (a.u.)
  ----------------------------------------
      1 O                    -0.217025
      2 C                     0.209491
      3 C                    -0.079941
      4 C                    -0.077875
      5 C                     0.211856
      6 O                    -0.173600
      7 C                    -0.051071
      8 C                    -0.052852
      9 O                    -0.172530
     10 C                     0.212595
     11 C                    -0.079273
     12 C                    -0.078486
     13 C                     0.213847
     14 O                    -0.209055
     15 O                    -0.168310
     16 O                    -0.173177
     17 O                    -0.214862
     18 C                    -0.131705
     19 C                     0.026083
     20 C                    -0.144143
     21 C                    -0.143580
     22 C                     0.024340
     23 O                    -0.186426
     24 H                     0.087226
     25 H                     0.085337
     26 H                     0.082978
     27 H                     0.078427
     28 H                     0.073847
     29 H                     0.078881
     30 H                     0.073500
     31 H                     0.091799
     32 O                    -0.210090
     33 C                    -0.127952
     34 C                     0.025418
     35 C                    -0.143245
     36 C                    -0.144703
     37 C                     0.024332
     38 O                    -0.186803
     39 H                     0.086168
     40 H                     0.086495
     41 H                     0.085363
     42 H                     0.084472
     43 H                     0.078055
     44 H                     0.073547
     45 H                     0.078368
     46 H                     0.073276
     47 H                     0.089217
     48 H                     0.087627
     49 H                     0.089637
     50 H                     0.094207
     51 H                     0.093707
     52 H                     0.090917
     53 H                     0.103923
     54 H                     0.086000
     55 H                     0.094312
     56 H                     0.091452
  ----------------------------------------
  Sum of atomic charges =     0.000000

 -----------------------------------------------------------------
                    Cartesian Multipole Moments
 -----------------------------------------------------------------
    Charge (ESU x 10^10)
                 0.0000
    Dipole Moment (Debye)
         X       0.8429      Y       1.2939      Z      -0.3204
       Tot       1.5771
    Quadrupole Moments (Debye-Ang)
        XX    -149.5430     XY       5.6949     YY    -152.0862
        XZ      21.8614     YZ       0.0074     ZZ    -168.9570
    Octopole Moments (Debye-Ang^2)
       XXX      68.5376    XXY      18.2215    XYY     -21.6129
       YYY      33.3937    XXZ     -17.9518    XYZ     -16.8884
       YYZ      -1.1447    XZZ       5.6746    YZZ      -0.6306
       ZZZ       4.1383
    Hexadecapole Moments (Debye-Ang^3)
      XXXX  -15972.4229   XXXY    -195.3900   XXYY   -3234.1899
      XYYY    -271.9137   YYYY   -2745.6007   XXXZ     286.6251
      XXYZ       8.3890   XYYZ     -24.2740   YYYZ     -37.5095
      XXZZ   -3064.3709   XYZZ     -99.7141   YYZZ    -625.1888
      XZZZ     -88.5707   YZZZ      32.7399   ZZZZ    -837.8744
 -----------------------------------------------------------------
Archival summary:
1\1\vega02.cac.cornell.edu\OPT\ProcedureUnspecified\STO-3G\102026\jj585\SatJan1311:23:162018SatJan1311:23:162018\0\\#,OPT,ProcedureUnspecified,STO-3G,\\0,1\O\C,1,1.43175\O,2,1.24928,1,124.122\C,1,1.48388,2,109.947,3,-1.99559,0\H,4,1.11082,1,110.579,2,-57.5064,0\H,4,1.11091,1,110.66,2,62.1693,0\C,2,1.57054,1,108.257,3,-177.441,0\H,7,1.10535,2,108.927,1,64.3791,0\C,4,1.57133,1,107.419,2,-179.395,0\H,9,1.10753,4,111.604,1,96.1443,0\H,9,1.11179,4,108.661,1,-25.8122,0\O,9,1.48192,4,109.141,1,-145.809,0\C,12,1.43752,9,109.784,4,92.274,0\O,13,1.2499,12,124.149,9,2.21742,0\C,13,1.56319,12,107.948,9,178.19,0\H,15,1.1037,13,108.503,12,1.90472,0\C,7,1.58273,2,109.52,1,-171.55,0\H,17,1.1073,7,113.716,2,-37.9915,0\O,17,1.48238,7,102.498,2,80.9936,0\C,19,1.4796,17,95.0235,7,58.3212,0\H,20,1.10721,19,110.428,17,-179.306,0\C,17,1.57865,7,109.27,2,-169.229,0\H,22,1.10147,17,110.504,7,166.059,0\H,22,1.10187,17,112.105,7,44.7138,0\C,22,1.57465,17,101.23,7,-75.6286,0\H,25,1.1017,22,111.44,17,-115.351,0\H,25,1.10178,22,112.86,17,121.953,0\C,15,1.58572,13,113.449,12,126.828,0\H,28,1.10649,15,110.077,13,-127.375,0\C,28,1.57117,15,115.821,13,-5.59624,0\O,30,1.24926,28,126.363,15,140.699,0\O,30,1.4356,28,109.658,15,-44.2512,0\C,32,1.48359,30,109.74,28,179.904,0\H,33,1.10612,32,106.54,30,169.202,0\H,33,1.10826,32,111.489,30,49.4008,0\H,33,1.10941,32,110.914,30,-71.8096,0\C,28,1.58563,15,101.384,13,115.048,0\H,37,1.10765,28,113.66,15,-153.11,0\O,37,1.48178,28,103.543,15,-33.027,0\C,39,1.4798,37,95.0132,28,56.1377,0\H,40,1.10734,39,110.486,37,179.441,0\C,37,1.57744,28,108.231,15,76.2345,0\H,42,1.10158,37,110.429,28,169.178,0\H,42,1.1016,37,112.293,28,47.5826,0\C,42,1.57448,37,100.965,28,-72.8277,0\H,45,1.10162,42,111.612,37,-119.573,0\H,45,1.10183,42,112.752,37,117.736,0\C,7,1.58942,2,113.178,1,-59.885,0\H,48,1.10407,7,110.547,2,128.98,0\C,48,1.56761,7,113.544,2,7.82303,0\O,50,1.2499,48,128.018,7,-74.319,0\O,50,1.43407,48,107.89,7,107.814,0\C,52,1.48026,50,109.882,48,-179.571,0\H,53,1.10547,52,106.127,50,177.102,0\H,53,1.10844,52,111.512,50,57.8067,0\H,53,1.10939,52,111.642,50,-63.6013,0\\\@

 Total job time:  53.44s(wall), 2540.20s(cpu) 
 Sat Jan 13 11:23:16 2018

        *************************************************************
        *                                                           *
        *  Thank you very much for using Q-Chem.  Have a nice day.  *
        *                                                           *
        *************************************************************


0 sent ACK to 0 
now end server 0 ... 
