mFile = /opt/software/qchem/qchem-5.0.1//bin/mpi/machines
Process 0 of 1 is on vega02.cac.cornell.edu - thread support 0
initial socket setup ...start
initial socket setup ...done 
now start server 0 ... 
vega02.cac.cornell.edu 10.84.3
Q-Chem Developer Version! Running on 10.84.3.*
                  Welcome to Q-Chem
     A Quantum Leap Into The Future Of Chemistry


 Q-Chem 5.0, Q-Chem, Inc., Pleasanton, CA (2017)

 Yihan Shao,  Zhengting Gan,  E. Epifanovsky,  A. T. B. Gilbert,  M. Wormit,  
 J. Kussmann,  A. W. Lange,  A. Behn,  Jia Deng,  Xintian Feng,  D. Ghosh,  
 M. Goldey,  P. R. Horn,  L. D. Jacobson,  I. Kaliman,  T. Kus,  A. Landau,  
 Jie Liu,  E. I. Proynov,  R. M. Richard,  R. P. Steele,  E. J. Sundstrom,  
 H. L. Woodcock III,  P. M. Zimmerman,  D. Zuev,  B. Albrecht,  E. Alguire,  
 S. A. Baeppler,  Z. Benda,  Y. A. Bernard,  E. J. Berquist,  K. B. Bravaya,  
 D. Casanova,  Chun-Min Chang,  Yunqing Chen,  A. Chien,  K. D. Closser,  
 M. P. Coons,  S. Dasgupta,  M. Diedenhofen,  Hainam Do,  R. G. Edgar,  
 Po-Tung Fang,  S. Fatehi,  Qingguo Feng,  Qinghui Ge,  A. Ghysels,  
 J. Gomes,  J. Gonthier,  A. Gunina,  M. W. D. Hanson-Heine,  
 P. H. P. Harbach,  A. W. Hauser,  J. E. Herr,  E. G. Hohenstein,  
 Z. C. Holden,  Kerwin Hui,  T.-C. Jagau,  Hyunjun Ji,  B. Kaduk,  
 K. Khistyaev,  Jaehoon Kim,  P. Klunzinger,  K. Koh,  D. Kosenkov,  
 T. Kowalczyk,  C. M. Krauter,  A. Kunitsa,  Ka Un Lao,  A. Laurent,  
 K. V. Lawler,  Joonho Lee,  D. Lefrancois,  S. Lehtola,  D. S. Levine,  
 Yi-Pei Li,  You-Sheng Lin,  Fenglai Liu,  E. Livshits,  A. Luenser,  
 P. Manohar,  E. Mansoor,  S. F. Manzer,  Shan-Ping Mao,  Yuezhi Mao,  
 N. Mardirossian,  A. V. Marenich,  L. A. Martinez-Martinez,  S. A. Maurer,  
 N. J. Mayhall,  S. C. McKenzie,  J.-M. Mewes,  A. F. Morrison,  K. Nanda,  
 T. S. Nguyen-Beck,  R. Olivares-Amaya,  J. A. Parkhill,  T. M. Perrine,  
 F. Plasser,  S. Prager,  A. Prociuk,  D. R. Rehn,  F. Rob,  M. Schneider,  
 N. Sergueev,  S. M. Sharada,  S. Sharma,  D. W. Small,  T. Stauch,  
 T. Stein,  Yu-Chuan Su,  A. J. W. Thom,  T. Tsuchimochi,  L. Vogt,  
 O. Vydrov,  M. A. Watson,  J. Wenzel,  M. de Wergifosse,  T. A. Wesolowski,  
 A. White,  J. Witte,  A. Yamada,  Jun Yang,  K. Yao,  S. Yeganeh,  
 S. R. Yost,  Zhi-Qiang You,  A. Zech,  Igor Ying Zhang,  Xing Zhang,  
 Yan Zhao,  Ying Zhu,  B. R. Brooks,  G. K. L. Chan,  C. J. Cramer,  
 M. S. Gordon,  W. J. Hehre,  A. Klamt,  M. W. Schmidt,  C. D. Sherrill,  
 D. G. Truhlar,  A. Aspuru-Guzik,  R. Baer,  A. T. Bell,  N. A. Besley,  
 Jeng-Da Chai,  A. Dreuw,  B. D. Dunietz,  T. R. Furlani,  Chao-Ping Hsu,  
 Yousung Jung,  Jing Kong,  D. S. Lambrecht,  WanZhen Liang,  C. Ochsenfeld,  
 V. A. Rassolov,  L. V. Slipchenko,  J. E. Subotnik,  T. Van Voorhis,  
 J. M. Herbert,  A. I. Krylov,  P. M. W. Gill,  M. Head-Gordon

 Contributors to earlier versions of Q-Chem not listed above: 
 R. D. Adamson,  B. Austin,  J. Baker,  G. J. O. Beran,  K. Brandhorst,  
 S. T. Brown,  E. F. C. Byrd,  A. K. Chakraborty,  C.-L. Cheng,  
 Siu Hung Chien,  D. M. Chipman,  D. L. Crittenden,  H. Dachsel,  
 R. A. DiStasio Jr.,  R. J. Doerksen,  A. D. Dutoi,  L. Fusti-Molnar,  
 W. A. Goddard III,  A. Golubeva-Zadorozhnaya,  S. R. Gwaltney,  G. Hawkins,  
 A. Heyden,  S. Hirata,  G. Kedziora,  F. J. Keil,  C. Kelley,  Jihan Kim,  
 R. A. King,  R. Z. Khaliullin,  P. P. Korambath,  W. Kurlancheek,  
 A. M. Lee,  M. S. Lee,  S. V. Levchenko,  Ching Yeh Lin,  D. Liotard,  
 R. C. Lochan,  I. Lotan,  P. E. Maslen,  N. Nair,  D. P. O'Neill,  
 D. Neuhauser,  E. Neuscamman,  C. M. Oana,  R. Olson,  B. Peters,  
 R. Peverati,  P. A. Pieniazek,  Y. M. Rhee,  J. Ritchie,  M. A. Rohrdanz,  
 E. Rosta,  N. J. Russ,  H. F. Schaefer III,  N. E. Schultz,  N. Shenvi,  
 A. C. Simmonett,  A. Sodt,  D. Stuck,  K. S. Thanthiriwatte,  V. Vanovschi,  
 Tao Wang,  A. Warshel,  C. F. Williams,  Q. Wu,  X. Xu,  W. Zhang

 Please cite Q-Chem as follows:
 Y. Shao et al., Mol. Phys. 113, 184-215 (2015)
 DOI: 10.1080/00268976.2014.952696

 Q-Chem 5.0.1 for Intel X86 EM64T Linux

 Parts of Q-Chem use Armadillo 5.200.1 (Boston Tea Smuggler).
 http://arma.sourceforge.net/

 Q-Chem begins on Sat Jan 13 13:20:03 2018  

Host: vega02.cac.cornell.edu
0

     Scratch files written to /scratch/jj585/SOT1001/0091c.save//
 Parallel job on  1  processors

Checking the input file for inconsistencies... 	...done.

--------------------------------------------------------------
User input:
--------------------------------------------------------------
$molecule
0  1
O -3.94934 -3.66094 2.70899
C -3.26408 -4.56952 2.26188
C -3.36658 -6.02376 2.66595
C -2.76261 -7.06348 1.7078
C -1.9673 -6.5228 0.54022
O -2.12349 -5.16834 0.45992
C -3.13869 -4.66568 1.33512
C -4.18859 -3.8996 0.53703
O -4.62754 -2.75198 1.28079
C -3.69122 -1.79053 1.47589
C -3.77882 -1.15252 2.84188
C -5.02424 -1.53342 3.65558
C -5.79631 -2.73838 3.15689
O -6.59312 -3.39161 3.81486
O -1.9453 -4.21333 3.06184
O -6.58043 -2.23791 2.12186
O -2.8182 -1.50223 0.66752
C -7.57992 -2.9012 1.42218
C -2.65185 -1.35966 3.8723
C -2.64224 -0.19107 4.86196
C -3.88968 -0.49689 5.6733
C -4.33445 -1.81005 5.01856
O -3.10991 -2.41358 4.68313
H -3.83002 -0.06626 2.60233
H -5.75356 -0.70149 3.79487
H -1.65393 -1.47844 3.40308
H -1.75336 -0.30919 5.52192
H -2.61757 0.81564 4.39173
H -3.58291 -0.69178 6.72527
H -4.67814 0.28602 5.65207
H -4.98607 -2.38526 5.71163
O -1.30584 -7.1788 -0.24822
C -0.64905 -4.00915 2.61082
C -2.69657 -6.4755 3.99743
C -3.30795 -7.78363 4.50822
C -2.68533 -8.77667 3.55164
C -1.85004 -7.83986 2.6793
O -1.40801 -6.86608 3.5925
H -4.46321 -6.21474 2.80331
H -3.52611 -7.74251 1.26549
H -0.0025 -3.77536 3.48075
H -2.75843 -5.70503 4.79737
H -2.91375 -7.98609 5.52945
H -4.41859 -7.77706 4.5339
H -1.99488 -9.43406 4.12661
H -3.40324 -9.40134 2.97768
H -1.05478 -8.41522 2.15653
H -0.61234 -3.14506 1.91648
H -0.25139 -4.91678 2.11855
H -7.34419 -2.8706 0.33843
H -8.54843 -2.38877 1.58992
H -7.66885 -3.96693 1.72444
H -3.95586 -3.59928 -0.53509
H -5.27399 -4.30226 0.41092
H -2.38625 -3.7503 0.66719
H -3.83047 -5.41442 0.48277
$end

$opt
CONSTRAINT
tors           1           2           3           4    +161.053
tors           3           4           5           6      -9.474
tors           4           5           6           7      -9.474
tors           5           6           7           8    -123.158
tors           6           7           8           9    -142.105
tors           7           8           9          10     +66.316
tors           8           9          10          11    -142.105
tors           9          10          11          12      -9.474
tors          11          12          13          14    +161.053
ENDCONSTRAINT
$end

$rem
JOBTYPE                   OPT
METHOD                    B3LYP
DFT_D                     d3_op
BASIS                     STO-3G
GEOM_OPT_MAX_CYCLES       100
GEOM_OPT_TOL_GRADIENT     300
GEOM_OPT_TOL_DISPLACEMENT 1200
GEOM_OPT_TOL_ENERGY       100
SYMMETRY                  False
THRESH                    12
SCF_CONVERGENCE           8
MAX_SUB_FILE_NUM          128
MEM_STATIC                400
MEM_TOTAL                 4000
$end
--------------------------------------------------------------
 Adding empirical dispersion correction 
 ----------------------------------------------------------------
 Doing -D3(op) with
 s6 =   1.00000
 s8 =   0.78311
 a1 =   0.30000
 a2 =   4.25000
 n  =  10.00000
 -D3 energy without 3body term =     -0.0865988358 hartrees
 ----------------------------------------------------------------
             Standard Nuclear Orientation (Angstroms)
    I     Atom           X                Y                Z
 ----------------------------------------------------------------
    1      O       0.5207512354     0.2223993408     0.2059029605
    2      C      -0.6512585095     0.2612555526    -0.1403477997
    3      C      -1.8412923883     0.0812669626     0.7761762137
    4      C      -3.2001262596     0.5947352481     0.2724206265
    5      C      -3.2516472228     1.0697508182    -1.1627803049
    6      O      -1.9873546745     1.1363465230    -1.6751616690
    7      C      -0.9685257964     0.9584708609    -0.6854035564
    8      C      -0.0276336601     2.1587971026    -0.6779788836
    9      O       1.3221242076     1.7212534321    -0.4552751804
   10      C       1.8621956544     0.9689618571    -1.4459948549
   11      C       2.7388361648    -0.1458373528    -0.9269733357
   12      C       3.0396000281    -0.0856850933     0.5777479942
   13      C       2.1568740470     0.8390697252     1.3915881323
   14      O       2.0075859149     0.7911555231     2.6040061348
   15      O      -0.6859131324    -1.1654099015    -0.8254848263
   16      O       2.7088545749     2.1010699647     1.1934104634
   17      O       1.6238065299     1.1210632930    -2.6371198046
   18      C       2.3626712223     3.2845966931     1.8320868730
   19      C       2.3168140218    -1.6169758249    -1.1069251173
   20      C       3.5594513221    -2.5117501366    -1.0881281310
   21      C       3.9281285846    -2.4533800403     0.3844801093
   22      C       2.7901823325    -1.5784487341     0.9234305179
   23      O       1.7051956330    -1.9561983763     0.1132644688
   24      H       3.6896141641     0.0096751580    -1.4853670007
   25      H       4.0992800078     0.1584110834     0.8245521444
   26      H       1.7300113777    -1.7879642465    -2.0324228427
   27      H       3.2373351138    -3.5494269893    -1.3311818046
   28      H       4.3638382427    -2.2043499390    -1.7907351950
   29      H       3.8400477673    -3.4791105782     0.8073860790
   30      H       4.9351361647    -2.0406904505     0.6096267029
   31      H       2.6616128708    -1.7423965338     2.0154068024
   32      O      -4.2540440947     1.3863163493    -1.7828526724
   33      C      -1.0943056905    -1.5410277774    -2.0972942873
   34      C      -2.2468556188    -1.3630655531     1.1947971262
   35      C      -3.0866752713    -1.3524273462     2.4756116347
   36      C      -4.4104227444    -0.8538232216     1.9390336286
   37      C      -4.0628819887    -0.6698112009     0.4619911664
   38      O      -3.1786521445    -1.7336870422     0.2092501403
   39      H      -1.5601671822     0.6009871114     1.7294852256
   40      H      -3.6016344799     1.4342133249     0.8837469180
   41      H      -0.9642244725    -2.6370616977    -2.2033668741
   42      H      -1.3721165015    -2.0356461264     1.3355860927
   43      H      -3.2215773647    -2.4018472536     2.8217527733
   44      H      -2.6441885753    -0.7457691698     3.2943882939
   45      H      -5.1576156803    -1.6744502420     2.0270525208
   46      H      -4.8065568979     0.0645780667     2.4234448844
   47      H      -4.9925012963    -0.6525626675    -0.1481534895
   48      H      -0.4669989406    -1.0469512326    -2.8670226791
   49      H      -2.1625833417    -1.3024350223    -2.2588857555
   50      H       2.0858234396     4.0402528114     1.0683079839
   51      H       3.2332378991     3.6612957342     2.4056235556
   52      H       1.4971356938     3.1554586139     2.5170844575
   53      H      -0.0582124648     2.8891119567    -1.5494728884
   54      H       0.0068250110     2.9024851905     0.2174945083
   55      H      -0.5679491592     1.0226833981    -1.9837225044
   56      H      -1.5411731540     2.0990016179    -0.3153545399
 ----------------------------------------------------------------
 Molecular Point Group                 C1    NOp =  1
 Largest Abelian Subgroup              C1    NOp =  1
 Nuclear Repulsion Energy =  3666.1340711812 hartrees
 There are      113 alpha and      113 beta electrons
 Requested basis set is STO-3G
 There are 86 shells and 176 basis functions

 Total QAlloc Memory Limit   4000 MB
 Mega-Array Size       392 MB
 MEM_STATIC part       400 MB
 A cutoff of  1.0D-12 yielded   2786 shell pairs
 There are     13313 function pairs
 
 -------------------------------------------------------
 OpenMP Integral Computing Module                       
 Release: version 1.0, May 2013, Q-Chem Inc. Pittsburgh 
 -------------------------------------------------------
 Integral Job Info:
 Integral job number is                      11
 Integral operator is                         1
 short-range coefficients                     0
 long-range coefficients              100000000
 Omega coefficients                           0
 if combine SR and LR in K                    0
 Integral screening is                        0
 Integral computing path is                   2
 max size of driver memory is            800000
 size of driver memory is                 45569
 size of scratch memory is              1046100
 max col of scratch BK array                289
 max len of scratch array in speh3           22
 max len of scratch index in speh4            8
 max int batch size is                      520
 min int batch size is                       52
 fixed nKL is                                52
 max L of basis functions is                  1
 order of int derivative is                   0
 number of shells is                         86
 number of basis is                         176
 number of cartesian basis is               176
 number of contracted shell pairs          2786
 number of primitive shell pairs          14048
 maxK2 (contraction) of shell pair            9
 max number of K2 of shell pair               1
 max number of CS2 of shell pair            413
 max number of PS2 of shell pair           1650
 mem total for path MDJ                   67946
 -------------------------------------------------------
 Smallest overlap matrix eigenvalue = 3.86E-02

 Scale SEOQF with 1.000000e-01/1.000000e-01/1.000000e-01

 Standard Electronic Orientation quadrupole field applied
 Nucleus-field energy     =     0.0000000469 hartrees
 Guess from superposition of atomic densities
 Warning:  Energy on first SCF cycle will be non-variational
 A restricted hybrid HF-DFT SCF calculation will be
 performed using Pulay DIIS extrapolation
 Exchange:     0.2000 Hartree-Fock + 0.0800 Slater + 0.7200 B88
 Correlation:  0.1900 VWN1RPA + 0.8100 LYP
 Using SG-1 standard quadrature grid
 Dispersion:   Grimme D3
 SCF converges when DIIS error is below 1.0E-08
 using 48 threads for integral computing
 -------------------------------------------------------
 OpenMP Integral computing Module                
 Release: version 1.0, May 2013, Q-Chem Inc. Pittsburgh 
 -------------------------------------------------------
 -------------------------------------------------------
 OpenMP BLAS3 based DFT computing Module                
 Release: version 1.0, May 2013, Q-Chem Inc. Pittsburgh 
 -------------------------------------------------------
 ---------------------------------------
  Cycle       Energy         DIIS Error
 ---------------------------------------
    1   -1510.5130766700      8.99E-02
    2   -1508.1502612159      1.11E-02
    3   -1499.8845103824      4.10E-02
    4   -1508.5058276257      8.08E-03
    5   -1507.8185250316      1.33E-02
    6   -1507.4073855359      1.21E-02
    7   -1508.7995162842      1.86E-03
    8   -1508.7228091695      4.55E-03
    9   -1508.8213617655      1.36E-03
   10   -1508.8255759301      9.88E-04
   11   -1508.8305125903      3.60E-04
   12   -1508.8310378672      1.67E-04
   13   -1508.8311456382      9.93E-05
   14   -1508.8311761531      6.71E-05
   15   -1508.8311936555      3.29E-05
   16   -1508.8311998868      3.29E-06
   17   -1508.8311999544      1.54E-06
   18   -1508.8311999642      1.18E-06
   19   -1508.8311999704      6.04E-07
   20   -1508.8311999726      1.26E-07
   21   -1508.8311999724      1.85E-07
   22   -1508.8311999726      2.69E-08
   23   -1508.8311999726      5.75E-09 Convergence criterion met
 ---------------------------------------
 SCF time:  CPU 204.85 s  wall 4.33 s
 SCF   energy in the final basis set = -1508.83119997
 Total energy in the final basis set = -1508.83119997
 
 --------------------------------------------------------------
 
                    Orbital Energies (a.u.)
 --------------------------------------------------------------
 
 Alpha MOs
 -- Occupied --
-18.976 -18.963 -18.918 -18.899 -18.890 -18.878 -18.855 -18.840
-18.813 -18.810 -10.186 -10.159 -10.143 -10.129 -10.120 -10.088
-10.075 -10.062 -10.056 -10.053 -10.051 -10.050 -10.037 -10.027
-10.027 -10.022 -10.018 -10.011 -10.009 -10.006  -1.123  -1.084
 -1.039  -1.024  -1.013  -1.007  -1.002  -0.969  -0.904  -0.893
 -0.867  -0.798  -0.772  -0.754  -0.736  -0.727  -0.712  -0.707
 -0.654  -0.652  -0.629  -0.622  -0.601  -0.582  -0.556  -0.542
 -0.537  -0.527  -0.522  -0.515  -0.508  -0.479  -0.473  -0.463
 -0.459  -0.448  -0.435  -0.428  -0.419  -0.416  -0.410  -0.407
 -0.405  -0.391  -0.390  -0.386  -0.381  -0.368  -0.362  -0.360
 -0.354  -0.347  -0.340  -0.339  -0.328  -0.325  -0.318  -0.313
 -0.309  -0.304  -0.302  -0.301  -0.291  -0.283  -0.273  -0.268
 -0.258  -0.237  -0.229  -0.224  -0.223  -0.212  -0.193  -0.180
 -0.172  -0.162  -0.152  -0.143  -0.122  -0.113  -0.100  -0.084
 -0.056
 -- Virtual --
 -0.013   0.071   0.079   0.093   0.118   0.202   0.253   0.260
  0.265   0.299   0.309   0.315   0.325   0.332   0.341   0.346
  0.349   0.356   0.370   0.371   0.374   0.387   0.390   0.396
  0.397   0.404   0.407   0.411   0.419   0.422   0.424   0.430
  0.434   0.439   0.442   0.443   0.454   0.458   0.462   0.465
  0.466   0.472   0.476   0.485   0.491   0.495   0.498   0.499
  0.509   0.514   0.526   0.537   0.556   0.560   0.567   0.580
  0.590   0.600   0.654   0.675   0.719   0.788   1.517
 --------------------------------------------------------------
 
          Ground-State Mulliken Net Atomic Charges

     Atom                 Charge (a.u.)
  ----------------------------------------
      1 O                    -0.193728
      2 C                     0.095245
      3 C                    -0.043785
      4 C                    -0.107143
      5 C                     0.236453
      6 O                    -0.174163
      7 C                    -0.052017
      8 C                    -0.007083
      9 O                    -0.136497
     10 C                     0.242721
     11 C                    -0.077002
     12 C                    -0.070497
     13 C                     0.258957
     14 O                    -0.256708
     15 O                    -0.209332
     16 O                    -0.231649
     17 O                    -0.236022
     18 C                    -0.104233
     19 C                     0.045683
     20 C                    -0.141334
     21 C                    -0.144030
     22 C                     0.040064
     23 O                    -0.197068
     24 H                     0.080612
     25 H                     0.086761
     26 H                     0.086233
     27 H                     0.074219
     28 H                     0.070490
     29 H                     0.073384
     30 H                     0.069574
     31 H                     0.086864
     32 O                    -0.191380
     33 C                    -0.135111
     34 C                     0.046235
     35 C                    -0.145784
     36 C                    -0.142499
     37 C                     0.041094
     38 O                    -0.209447
     39 H                     0.075875
     40 H                     0.087943
     41 H                     0.087916
     42 H                     0.100472
     43 H                     0.075525
     44 H                     0.072582
     45 H                     0.076594
     46 H                     0.070376
     47 H                     0.086665
     48 H                     0.048298
     49 H                     0.065092
     50 H                     0.063929
     51 H                     0.078366
     52 H                     0.075392
     53 H                     0.100254
     54 H                     0.087359
     55 H                     0.223295
     56 H                     0.095989
  ----------------------------------------
  Sum of atomic charges =    -0.000000

 -----------------------------------------------------------------
                    Cartesian Multipole Moments
 -----------------------------------------------------------------
    Charge (ESU x 10^10)
                 0.0000
    Dipole Moment (Debye)
         X      -0.9169      Y       2.0396      Z      -0.0059
       Tot       2.2362
    Quadrupole Moments (Debye-Ang)
        XX    -159.3326     XY      -5.8745     YY    -154.7093
        XZ     -10.1174     YZ       1.8228     ZZ    -168.8250
    Octopole Moments (Debye-Ang^2)
       XXX      45.0822    XXY     -19.2526    XYY       7.6882
       YYY      38.3092    XXZ      27.4544    XYZ      -5.3791
       YYZ       1.8813    XZZ      -8.8879    YZZ     -10.6520
       ZZZ     -10.2418
    Hexadecapole Moments (Debye-Ang^3)
      XXXX   -6840.8214   XXXY      82.2670   XXYY   -1586.2385
      XYYY      26.5144   YYYY   -2406.6772   XXXZ     -83.0495
      XXYZ      38.1599   XYYZ      15.6681   YYYZ      -2.3691
      XXZZ   -1538.1509   XYZZ      20.6378   YYZZ    -723.8251
      XZZZ      40.2312   YZZZ      12.0256   ZZZZ   -2128.1421
 -----------------------------------------------------------------
 Calculating analytic gradient of the SCF energy
 Gradient of SCF Energy
            1           2           3           4           5           6
    1  -0.1688336  -0.4097478   0.0372895   0.0115866   0.0194594   0.0471175
    2   0.1130983   1.4073943   0.0356815  -0.0308036   0.0013256   0.0106723
    3  -0.1564798  -1.0055705  -0.1426945  -0.0269036  -0.0281090   0.1236726
            7           8           9          10          11          12
    1   0.5400709  -0.0545350  -0.0501541  -0.0157639  -0.0668979  -0.0222083
    2  -1.4688624  -0.1719828  -0.0994929   0.0327847  -0.0273445   0.0260928
    3   1.1548365  -0.0038061   0.0305073   0.0110504   0.0106115   0.0104452
           13          14          15          16          17          18
    1  -0.0500779   0.0737627  -0.0138679  -0.0760857   0.0253379   0.0277176
    2  -0.0350845   0.0762135   0.0840395  -0.0474872  -0.0130743  -0.0130244
    3  -0.0518422  -0.1026153  -0.0436412   0.1128812   0.0690811  -0.0233163
           19          20          21          22          23          24
    1   0.0104994  -0.0247692  -0.0379174  -0.0261320   0.0814556   0.0021016
    2  -0.0040574   0.0250779   0.0205131  -0.0054469   0.0287047   0.0040006
    3   0.0655134   0.0364046  -0.0220192  -0.0659186  -0.0185751  -0.0017083
           25          26          27          28          29          30
    1   0.0093485   0.0104287  -0.0048020   0.0061104  -0.0056405   0.0062518
    2  -0.0047328   0.0001379  -0.0091859   0.0018505  -0.0106357   0.0045994
    3   0.0058944  -0.0090338   0.0046556  -0.0048765  -0.0028213   0.0030457
           31          32          33          34          35          36
    1   0.0130590   0.0390842   0.0142073  -0.0664489  -0.0116056   0.0447393
    2  -0.0011967  -0.0094365  -0.0145826   0.0113576   0.0129342  -0.0075303
    3   0.0043812   0.0333273   0.0278973  -0.0305666  -0.0466530  -0.0262722
           37          38          39          40          41          42
    1   0.0636832   0.0053673   0.0021238  -0.0028609  -0.0017242   0.0034978
    2  -0.0217562   0.0612069  -0.0039096   0.0072075   0.0014371   0.0003732
    3   0.0146848   0.0589716   0.0126851  -0.0005949  -0.0007227   0.0150769
           43          44          45          46          47          48
    1  -0.0073346   0.0037176   0.0000893  -0.0022163  -0.0086030   0.0023940
    2  -0.0095259   0.0046617  -0.0123136   0.0071213   0.0053877  -0.0036465
    3  -0.0023941   0.0054103   0.0006074   0.0031037   0.0078515   0.0172798
           49          50          51          52          53          54
    1   0.0060215   0.0002723  -0.0000944  -0.0005736   0.0082869   0.0190831
    2   0.0029861  -0.0063749  -0.0038172  -0.0025862   0.0169819   0.0262104
    3   0.0124670   0.0008029  -0.0040102  -0.0057257  -0.0036421   0.0127559
           55          56
    1  -0.0172497   0.0119798
    2   0.0062957   0.0015433
    3  -0.0065329  -0.0288565
 Max gradient component =       1.469E+00
 RMS gradient           =       2.074E-01
 Gradient time:  CPU 38.41 s  wall 0.84 s
 Geometry Optimization Parameters
   NAtoms,    NIC,     NZ,  NCons,   NDum,   NFix, NCnnct, MaxDiis
       56     577       0       9       0       0       0       0


** CONSTRAINED OPTIMIZATION IN DELOCALIZED INTERNAL COORDINATES **
   Searching for a Minimum

   Optimization Cycle:   1

                       Coordinates (Angstroms)
     ATOM                X               Y               Z
      1  O         0.5207512354    0.2223993408    0.2059029605
      2  C        -0.6512585095    0.2612555526   -0.1403477997
      3  C        -1.8412923883    0.0812669626    0.7761762137
      4  C        -3.2001262596    0.5947352481    0.2724206265
      5  C        -3.2516472228    1.0697508182   -1.1627803049
      6  O        -1.9873546745    1.1363465230   -1.6751616690
      7  C        -0.9685257964    0.9584708609   -0.6854035564
      8  C        -0.0276336601    2.1587971026   -0.6779788836
      9  O         1.3221242076    1.7212534321   -0.4552751804
     10  C         1.8621956544    0.9689618571   -1.4459948549
     11  C         2.7388361648   -0.1458373528   -0.9269733357
     12  C         3.0396000281   -0.0856850933    0.5777479942
     13  C         2.1568740470    0.8390697252    1.3915881323
     14  O         2.0075859149    0.7911555231    2.6040061348
     15  O        -0.6859131324   -1.1654099015   -0.8254848263
     16  O         2.7088545749    2.1010699647    1.1934104634
     17  O         1.6238065299    1.1210632930   -2.6371198046
     18  C         2.3626712223    3.2845966931    1.8320868730
     19  C         2.3168140218   -1.6169758249   -1.1069251173
     20  C         3.5594513221   -2.5117501366   -1.0881281310
     21  C         3.9281285846   -2.4533800403    0.3844801093
     22  C         2.7901823325   -1.5784487341    0.9234305179
     23  O         1.7051956330   -1.9561983763    0.1132644688
     24  H         3.6896141641    0.0096751580   -1.4853670007
     25  H         4.0992800078    0.1584110834    0.8245521444
     26  H         1.7300113777   -1.7879642465   -2.0324228427
     27  H         3.2373351138   -3.5494269893   -1.3311818046
     28  H         4.3638382427   -2.2043499390   -1.7907351950
     29  H         3.8400477673   -3.4791105782    0.8073860790
     30  H         4.9351361647   -2.0406904505    0.6096267029
     31  H         2.6616128708   -1.7423965338    2.0154068024
     32  O        -4.2540440947    1.3863163493   -1.7828526724
     33  C        -1.0943056905   -1.5410277774   -2.0972942873
     34  C        -2.2468556188   -1.3630655531    1.1947971262
     35  C        -3.0866752713   -1.3524273462    2.4756116347
     36  C        -4.4104227444   -0.8538232216    1.9390336286
     37  C        -4.0628819887   -0.6698112009    0.4619911664
     38  O        -3.1786521445   -1.7336870422    0.2092501403
     39  H        -1.5601671822    0.6009871114    1.7294852256
     40  H        -3.6016344799    1.4342133249    0.8837469180
     41  H        -0.9642244725   -2.6370616977   -2.2033668741
     42  H        -1.3721165015   -2.0356461264    1.3355860927
     43  H        -3.2215773647   -2.4018472536    2.8217527733
     44  H        -2.6441885753   -0.7457691698    3.2943882939
     45  H        -5.1576156803   -1.6744502420    2.0270525208
     46  H        -4.8065568979    0.0645780667    2.4234448844
     47  H        -4.9925012963   -0.6525626675   -0.1481534895
     48  H        -0.4669989406   -1.0469512326   -2.8670226791
     49  H        -2.1625833417   -1.3024350223   -2.2588857555
     50  H         2.0858234396    4.0402528114    1.0683079839
     51  H         3.2332378991    3.6612957342    2.4056235556
     52  H         1.4971356938    3.1554586139    2.5170844575
     53  H        -0.0582124648    2.8891119567   -1.5494728884
     54  H         0.0068250110    2.9024851905    0.2174945083
     55  H        -0.5679491592    1.0226833981   -1.9837225044
     56  H        -1.5411731540    2.0990016179   -0.3153545399
   Point Group: c1    Number of degrees of freedom:   162


   Energy is  -1508.831199973

              Constraints and their Current Values
                                        Value     Constraint
   Dihedral:        1   2   3   4      161.052      161.053
   Dihedral:        3   4   5   6       -9.474       -9.474
   Dihedral:        4   5   6   7       -9.474       -9.474
   Dihedral:        5   6   7   8     -123.158     -123.158
   Dihedral:        6   7   8   9     -142.105     -142.105
   Dihedral:        7   8   9  10       66.316       66.316
   Dihedral:        8   9  10  11     -142.105     -142.105
   Dihedral:        9  10  11  12       -9.473       -9.474
   Dihedral:       11  12  13  14      161.052      161.053

 Attempting to Generate Delocalized Internal Coordinates

   Using Lagrange Multiplier Algorithm


171 Hessian modes will be used to form the next step
  Hessian Eigenvalues:
    -0.977753   -0.977753   -0.977753   -0.977753   -0.977753   -0.977753
    -0.977753   -0.977753   -0.977753    0.045000    0.045000    0.045000
     0.045000    0.045018    0.045040    0.045539    0.046898    0.048824
     0.050770    0.052826    0.054225    0.057331    0.058055    0.058713
     0.059820    0.060043    0.060310    0.061432    0.061943    0.064029
     0.065633    0.066227    0.066988    0.067995    0.068719    0.070724
     0.071434    0.074044    0.075367    0.075632    0.075770    0.077903
     0.078212    0.081124    0.082107    0.082217    0.083807    0.084066
     0.084477    0.085554    0.086373    0.086800    0.087730    0.088150
     0.089332    0.089343    0.089506    0.089726    0.089761    0.090373
     0.092851    0.093140    0.093496    0.096497    0.096717    0.100189
     0.103539    0.111328    0.111608    0.111903    0.113251    0.113455
     0.116034    0.116240    0.116538    0.117862    0.118486    0.118563
     0.119936    0.123921    0.131594    0.132984    0.140777    0.146276
     0.157606    0.158817    0.160000    0.160000    0.160000    0.160000
     0.160000    0.160000    0.163793    0.172292    0.172434    0.173405
     0.176775    0.201635    0.215771    0.219110    0.236624    0.240324
     0.249334    0.249867    0.250000    0.250000    0.250000    0.250000
     0.250231    0.259874    0.266176    0.266765    0.273174    0.274466
     0.275357    0.275581    0.277067    0.280469    0.290975    0.293266
     0.295766    0.298581    0.308050    0.313319    0.314042    0.320674
     0.322283    0.322430    0.322451    0.322514    0.322598    0.322862
     0.323510    0.323787    0.324233    0.324532    0.324590    0.324598
     0.324604    0.324990    0.326516    0.326947    0.326953    0.327262
     0.327612    0.329776    0.337836    0.363223    0.368958    0.370242
     0.384068    0.384750    0.469892    0.470383    0.475458    0.477427
     0.515954    0.537332    0.935327    0.942781    0.951833    1.022753
     1.022753    1.022753    1.022753    1.022753    1.022753    1.022753
     1.022753    1.022753    1.716956

 Minimum Search - Taking P-RFO Step
 Searching for Lamda that Maximizes Along the Constraint modes Only
 Value Taken    Lamda =   0.98318751


 ********************************************
 ** ERROR IN DETERMINING Lamda IN CONFormD **
 ********************************************



 New Cartesian Coordinates Obtained by Inverse Iteration

 Displacement from previous Coordinates is:  0.000000
 Adding empirical dispersion correction 
 ----------------------------------------------------------------
 Doing -D3(op) with
 s6 =   1.00000
 s8 =   0.78311
 a1 =   0.30000
 a2 =   4.25000
 n  =  10.00000
 -D3 energy without 3body term =     -0.0865988358 hartrees
 ----------------------------------------------------------------
             Standard Nuclear Orientation (Angstroms)
    I     Atom           X                Y                Z
 ----------------------------------------------------------------
    1      O       0.5207512354     0.2223993408     0.2059029605
    2      C      -0.6512585095     0.2612555526    -0.1403477997
    3      C      -1.8412923883     0.0812669626     0.7761762137
    4      C      -3.2001262596     0.5947352481     0.2724206265
    5      C      -3.2516472228     1.0697508182    -1.1627803049
    6      O      -1.9873546745     1.1363465230    -1.6751616690
    7      C      -0.9685257964     0.9584708609    -0.6854035564
    8      C      -0.0276336601     2.1587971026    -0.6779788836
    9      O       1.3221242076     1.7212534321    -0.4552751804
   10      C       1.8621956544     0.9689618571    -1.4459948549
   11      C       2.7388361648    -0.1458373528    -0.9269733357
   12      C       3.0396000281    -0.0856850933     0.5777479942
   13      C       2.1568740470     0.8390697252     1.3915881323
   14      O       2.0075859149     0.7911555231     2.6040061348
   15      O      -0.6859131324    -1.1654099015    -0.8254848263
   16      O       2.7088545749     2.1010699647     1.1934104634
   17      O       1.6238065299     1.1210632930    -2.6371198046
   18      C       2.3626712223     3.2845966931     1.8320868730
   19      C       2.3168140218    -1.6169758249    -1.1069251173
   20      C       3.5594513221    -2.5117501366    -1.0881281310
   21      C       3.9281285846    -2.4533800403     0.3844801093
   22      C       2.7901823325    -1.5784487341     0.9234305179
   23      O       1.7051956330    -1.9561983763     0.1132644688
   24      H       3.6896141641     0.0096751580    -1.4853670007
   25      H       4.0992800078     0.1584110834     0.8245521444
   26      H       1.7300113777    -1.7879642465    -2.0324228427
   27      H       3.2373351138    -3.5494269893    -1.3311818046
   28      H       4.3638382427    -2.2043499390    -1.7907351950
   29      H       3.8400477673    -3.4791105782     0.8073860790
   30      H       4.9351361647    -2.0406904505     0.6096267029
   31      H       2.6616128708    -1.7423965338     2.0154068024
   32      O      -4.2540440947     1.3863163493    -1.7828526724
   33      C      -1.0943056905    -1.5410277774    -2.0972942873
   34      C      -2.2468556188    -1.3630655531     1.1947971262
   35      C      -3.0866752713    -1.3524273462     2.4756116347
   36      C      -4.4104227444    -0.8538232216     1.9390336286
   37      C      -4.0628819887    -0.6698112009     0.4619911664
   38      O      -3.1786521445    -1.7336870422     0.2092501403
   39      H      -1.5601671822     0.6009871114     1.7294852256
   40      H      -3.6016344799     1.4342133249     0.8837469180
   41      H      -0.9642244725    -2.6370616977    -2.2033668741
   42      H      -1.3721165015    -2.0356461264     1.3355860927
   43      H      -3.2215773647    -2.4018472536     2.8217527733
   44      H      -2.6441885753    -0.7457691698     3.2943882939
   45      H      -5.1576156803    -1.6744502420     2.0270525208
   46      H      -4.8065568979     0.0645780667     2.4234448844
   47      H      -4.9925012963    -0.6525626675    -0.1481534895
   48      H      -0.4669989406    -1.0469512326    -2.8670226791
   49      H      -2.1625833417    -1.3024350223    -2.2588857555
   50      H       2.0858234396     4.0402528114     1.0683079839
   51      H       3.2332378991     3.6612957342     2.4056235556
   52      H       1.4971356938     3.1554586139     2.5170844575
   53      H      -0.0582124648     2.8891119567    -1.5494728884
   54      H       0.0068250110     2.9024851905     0.2174945083
   55      H      -0.5679491592     1.0226833981    -1.9837225044
   56      H      -1.5411731540     2.0990016179    -0.3153545399
 ----------------------------------------------------------------
 Molecular Point Group                 C1    NOp =  1
 Largest Abelian Subgroup              C1    NOp =  1
 Nuclear Repulsion Energy =  3666.1340711812 hartrees
 There are      113 alpha and      113 beta electrons
 Applying Cartesian multipole field
    Component          Value
    ---------          -----
     (2,0,0)        1.00000E-11
     (0,2,0)        2.00000E-11
     (0,0,2)       -3.00000E-11
 Nucleus-field energy     =     0.0000000469 hartrees
 Requested basis set is STO-3G
 There are 86 shells and 176 basis functions
 A cutoff of  1.0D-12 yielded   2786 shell pairs
 There are     13313 function pairs
 Smallest overlap matrix eigenvalue = 3.86E-02
 Guess MOs from SCF MO coefficient file
 Reading MOs from coefficient file
 Reading MOs from coefficient file
 A restricted hybrid HF-DFT SCF calculation will be
 performed using Pulay DIIS extrapolation
 Exchange:     0.2000 Hartree-Fock + 0.0800 Slater + 0.7200 B88
 Correlation:  0.1900 VWN1RPA + 0.8100 LYP
 Using SG-1 standard quadrature grid
 Dispersion:   Grimme D3
 SCF converges when DIIS error is below 1.0E-08
 Geometry optimization detected.  Setting ReadMinima to 0
 Setting SaveMinima to 0
 using 48 threads for integral computing
 -------------------------------------------------------
 OpenMP Integral computing Module                
 Release: version 1.0, May 2013, Q-Chem Inc. Pittsburgh 
 -------------------------------------------------------
 -------------------------------------------------------
 OpenMP BLAS3 based DFT computing Module                
 Release: version 1.0, May 2013, Q-Chem Inc. Pittsburgh 
 -------------------------------------------------------
 ---------------------------------------
  Cycle       Energy         DIIS Error
 ---------------------------------------
    1   -1508.8311999732      5.73E-09
    2   -1508.8311999732      3.70E-08
    3   -1508.8311999732      2.02E-09 Convergence criterion met
 ---------------------------------------
 SCF time:  CPU 27.90 s  wall 0.58 s
 SCF   energy in the final basis set = -1508.83119997
 Total energy in the final basis set = -1508.83119997
 
 --------------------------------------------------------------
 
                    Orbital Energies (a.u.)
 --------------------------------------------------------------
 
 Alpha MOs
 -- Occupied --
-18.976 -18.963 -18.918 -18.899 -18.890 -18.878 -18.855 -18.840
-18.813 -18.810 -10.186 -10.159 -10.143 -10.129 -10.120 -10.088
-10.075 -10.062 -10.056 -10.053 -10.051 -10.050 -10.037 -10.027
-10.027 -10.022 -10.018 -10.011 -10.009 -10.006  -1.123  -1.084
 -1.039  -1.024  -1.013  -1.007  -1.002  -0.969  -0.904  -0.893
 -0.867  -0.798  -0.772  -0.754  -0.736  -0.727  -0.712  -0.707
 -0.654  -0.652  -0.629  -0.622  -0.601  -0.582  -0.556  -0.542
 -0.537  -0.527  -0.522  -0.515  -0.508  -0.479  -0.473  -0.463
 -0.459  -0.448  -0.435  -0.428  -0.419  -0.416  -0.410  -0.407
 -0.405  -0.391  -0.390  -0.386  -0.381  -0.368  -0.362  -0.360
 -0.354  -0.347  -0.340  -0.339  -0.328  -0.325  -0.318  -0.313
 -0.309  -0.304  -0.302  -0.301  -0.291  -0.283  -0.273  -0.268
 -0.258  -0.237  -0.229  -0.224  -0.223  -0.212  -0.193  -0.180
 -0.172  -0.162  -0.152  -0.143  -0.122  -0.113  -0.100  -0.084
 -0.056
 -- Virtual --
 -0.013   0.071   0.079   0.093   0.118   0.202   0.253   0.260
  0.265   0.299   0.309   0.315   0.325   0.332   0.341   0.346
  0.349   0.356   0.370   0.371   0.374   0.387   0.390   0.396
  0.397   0.404   0.407   0.411   0.419   0.422   0.424   0.430
  0.434   0.439   0.442   0.443   0.454   0.458   0.462   0.465
  0.466   0.472   0.476   0.485   0.491   0.495   0.498   0.499
  0.509   0.514   0.526   0.537   0.556   0.560   0.567   0.580
  0.590   0.600   0.654   0.675   0.719   0.788   1.517
 --------------------------------------------------------------
 
          Ground-State Mulliken Net Atomic Charges

     Atom                 Charge (a.u.)
  ----------------------------------------
      1 O                    -0.193729
      2 C                     0.095245
      3 C                    -0.043785
      4 C                    -0.107143
      5 C                     0.236453
      6 O                    -0.174163
      7 C                    -0.052017
      8 C                    -0.007083
      9 O                    -0.136497
     10 C                     0.242721
     11 C                    -0.077002
     12 C                    -0.070497
     13 C                     0.258957
     14 O                    -0.256708
     15 O                    -0.209332
     16 O                    -0.231649
     17 O                    -0.236022
     18 C                    -0.104232
     19 C                     0.045683
     20 C                    -0.141334
     21 C                    -0.144030
     22 C                     0.040064
     23 O                    -0.197068
     24 H                     0.080612
     25 H                     0.086761
     26 H                     0.086233
     27 H                     0.074219
     28 H                     0.070489
     29 H                     0.073384
     30 H                     0.069574
     31 H                     0.086864
     32 O                    -0.191380
     33 C                    -0.135111
     34 C                     0.046235
     35 C                    -0.145784
     36 C                    -0.142499
     37 C                     0.041094
     38 O                    -0.209447
     39 H                     0.075875
     40 H                     0.087943
     41 H                     0.087916
     42 H                     0.100472
     43 H                     0.075525
     44 H                     0.072582
     45 H                     0.076594
     46 H                     0.070376
     47 H                     0.086665
     48 H                     0.048298
     49 H                     0.065092
     50 H                     0.063929
     51 H                     0.078366
     52 H                     0.075392
     53 H                     0.100254
     54 H                     0.087359
     55 H                     0.223296
     56 H                     0.095989
  ----------------------------------------
  Sum of atomic charges =    -0.000000

 -----------------------------------------------------------------
                    Cartesian Multipole Moments
 -----------------------------------------------------------------
    Charge (ESU x 10^10)
                 0.0000
    Dipole Moment (Debye)
         X      -0.9169      Y       2.0396      Z      -0.0059
       Tot       2.2362
    Quadrupole Moments (Debye-Ang)
        XX    -159.3326     XY      -5.8746     YY    -154.7093
        XZ     -10.1174     YZ       1.8228     ZZ    -168.8249
    Octopole Moments (Debye-Ang^2)
       XXX      45.0821    XXY     -19.2526    XYY       7.6882
       YYY      38.3092    XXZ      27.4544    XYZ      -5.3791
       YYZ       1.8813    XZZ      -8.8879    YZZ     -10.6520
       ZZZ     -10.2418
    Hexadecapole Moments (Debye-Ang^3)
      XXXX   -6840.8214   XXXY      82.2670   XXYY   -1586.2385
      XYYY      26.5144   YYYY   -2406.6772   XXXZ     -83.0495
      XXYZ      38.1599   XYYZ      15.6681   YYYZ      -2.3691
      XXZZ   -1538.1509   XYZZ      20.6378   YYZZ    -723.8251
      XZZZ      40.2312   YZZZ      12.0256   ZZZZ   -2128.1420
 -----------------------------------------------------------------
 Calculating analytic gradient of the SCF energy
 Gradient of SCF Energy
            1           2           3           4           5           6
    1  -0.1688336  -0.4097478   0.0372895   0.0115866   0.0194594   0.0471175
    2   0.1130982   1.4073943   0.0356815  -0.0308036   0.0013256   0.0106723
    3  -0.1564798  -1.0055705  -0.1426945  -0.0269036  -0.0281090   0.1236726
            7           8           9          10          11          12
    1   0.5400709  -0.0545350  -0.0501541  -0.0157639  -0.0668979  -0.0222083
    2  -1.4688624  -0.1719828  -0.0994929   0.0327847  -0.0273445   0.0260928
    3   1.1548365  -0.0038060   0.0305073   0.0110504   0.0106115   0.0104452
           13          14          15          16          17          18
    1  -0.0500778   0.0737627  -0.0138679  -0.0760857   0.0253379   0.0277176
    2  -0.0350845   0.0762135   0.0840395  -0.0474872  -0.0130743  -0.0130244
    3  -0.0518421  -0.1026153  -0.0436412   0.1128812   0.0690811  -0.0233163
           19          20          21          22          23          24
    1   0.0104994  -0.0247692  -0.0379174  -0.0261320   0.0814556   0.0021016
    2  -0.0040574   0.0250779   0.0205131  -0.0054469   0.0287047   0.0040006
    3   0.0655134   0.0364046  -0.0220192  -0.0659186  -0.0185751  -0.0017083
           25          26          27          28          29          30
    1   0.0093485   0.0104287  -0.0048020   0.0061104  -0.0056405   0.0062518
    2  -0.0047328   0.0001379  -0.0091859   0.0018505  -0.0106357   0.0045994
    3   0.0058944  -0.0090338   0.0046556  -0.0048765  -0.0028213   0.0030457
           31          32          33          34          35          36
    1   0.0130590   0.0390842   0.0142073  -0.0664489  -0.0116056   0.0447393
    2  -0.0011967  -0.0094365  -0.0145826   0.0113576   0.0129342  -0.0075303
    3   0.0043812   0.0333272   0.0278973  -0.0305666  -0.0466530  -0.0262722
           37          38          39          40          41          42
    1   0.0636832   0.0053673   0.0021238  -0.0028609  -0.0017242   0.0034978
    2  -0.0217562   0.0612069  -0.0039096   0.0072075   0.0014371   0.0003732
    3   0.0146848   0.0589716   0.0126851  -0.0005949  -0.0007227   0.0150769
           43          44          45          46          47          48
    1  -0.0073346   0.0037176   0.0000893  -0.0022163  -0.0086030   0.0023940
    2  -0.0095258   0.0046617  -0.0123136   0.0071213   0.0053877  -0.0036465
    3  -0.0023941   0.0054103   0.0006074   0.0031036   0.0078515   0.0172798
           49          50          51          52          53          54
    1   0.0060215   0.0002723  -0.0000944  -0.0005736   0.0082869   0.0190831
    2   0.0029861  -0.0063749  -0.0038172  -0.0025862   0.0169819   0.0262104
    3   0.0124670   0.0008029  -0.0040102  -0.0057257  -0.0036421   0.0127559
           55          56
    1  -0.0172497   0.0119798
    2   0.0062957   0.0015434
    3  -0.0065330  -0.0288565
 Max gradient component =       1.469E+00
 RMS gradient           =       2.074E-01
 Gradient time:  CPU 39.16 s  wall 0.84 s
 Geometry Optimization Parameters
   NAtoms,    NIC,     NZ,  NCons,   NDum,   NFix, NCnnct, MaxDiis
       56     577       0       9       0       0       0       0

 Cartesian Hessian Update
 Hessian Updated using BFGS Update
**WARNING** Hereditary positive definiteness endangered
**WARNING** Small Scalar Product
 Hessian Update Skipped this cycle


** CONSTRAINED OPTIMIZATION IN DELOCALIZED INTERNAL COORDINATES **
   Searching for a Minimum

   Optimization Cycle:   2

                       Coordinates (Angstroms)
     ATOM                X               Y               Z
      1  O         0.5207512354    0.2223993408    0.2059029605
      2  C        -0.6512585095    0.2612555526   -0.1403477997
      3  C        -1.8412923883    0.0812669626    0.7761762137
      4  C        -3.2001262596    0.5947352481    0.2724206265
      5  C        -3.2516472228    1.0697508182   -1.1627803049
      6  O        -1.9873546745    1.1363465230   -1.6751616690
      7  C        -0.9685257964    0.9584708609   -0.6854035564
      8  C        -0.0276336601    2.1587971026   -0.6779788836
      9  O         1.3221242076    1.7212534321   -0.4552751804
     10  C         1.8621956544    0.9689618571   -1.4459948549
     11  C         2.7388361648   -0.1458373528   -0.9269733357
     12  C         3.0396000281   -0.0856850933    0.5777479942
     13  C         2.1568740470    0.8390697252    1.3915881323
     14  O         2.0075859149    0.7911555231    2.6040061348
     15  O        -0.6859131324   -1.1654099015   -0.8254848263
     16  O         2.7088545749    2.1010699647    1.1934104634
     17  O         1.6238065299    1.1210632930   -2.6371198046
     18  C         2.3626712223    3.2845966931    1.8320868730
     19  C         2.3168140218   -1.6169758249   -1.1069251173
     20  C         3.5594513221   -2.5117501366   -1.0881281310
     21  C         3.9281285846   -2.4533800403    0.3844801093
     22  C         2.7901823325   -1.5784487341    0.9234305179
     23  O         1.7051956330   -1.9561983763    0.1132644688
     24  H         3.6896141641    0.0096751580   -1.4853670007
     25  H         4.0992800078    0.1584110834    0.8245521444
     26  H         1.7300113777   -1.7879642465   -2.0324228427
     27  H         3.2373351138   -3.5494269893   -1.3311818046
     28  H         4.3638382427   -2.2043499390   -1.7907351950
     29  H         3.8400477673   -3.4791105782    0.8073860790
     30  H         4.9351361647   -2.0406904505    0.6096267029
     31  H         2.6616128708   -1.7423965338    2.0154068024
     32  O        -4.2540440947    1.3863163493   -1.7828526724
     33  C        -1.0943056905   -1.5410277774   -2.0972942873
     34  C        -2.2468556188   -1.3630655531    1.1947971262
     35  C        -3.0866752713   -1.3524273462    2.4756116347
     36  C        -4.4104227444   -0.8538232216    1.9390336286
     37  C        -4.0628819887   -0.6698112009    0.4619911664
     38  O        -3.1786521445   -1.7336870422    0.2092501403
     39  H        -1.5601671822    0.6009871114    1.7294852256
     40  H        -3.6016344799    1.4342133249    0.8837469180
     41  H        -0.9642244725   -2.6370616977   -2.2033668741
     42  H        -1.3721165015   -2.0356461264    1.3355860927
     43  H        -3.2215773647   -2.4018472536    2.8217527733
     44  H        -2.6441885753   -0.7457691698    3.2943882939
     45  H        -5.1576156803   -1.6744502420    2.0270525208
     46  H        -4.8065568979    0.0645780667    2.4234448844
     47  H        -4.9925012963   -0.6525626675   -0.1481534895
     48  H        -0.4669989406   -1.0469512326   -2.8670226791
     49  H        -2.1625833417   -1.3024350223   -2.2588857555
     50  H         2.0858234396    4.0402528114    1.0683079839
     51  H         3.2332378991    3.6612957342    2.4056235556
     52  H         1.4971356938    3.1554586139    2.5170844575
     53  H        -0.0582124648    2.8891119567   -1.5494728884
     54  H         0.0068250110    2.9024851905    0.2174945083
     55  H        -0.5679491592    1.0226833981   -1.9837225044
     56  H        -1.5411731540    2.0990016179   -0.3153545399
   Point Group: c1    Number of degrees of freedom:   162


   Energy is  -1508.831199973

              Constraints and their Current Values
                                        Value     Constraint
   Dihedral:        1   2   3   4      161.052      161.053
   Dihedral:        3   4   5   6       -9.474       -9.474
   Dihedral:        4   5   6   7       -9.474       -9.474
   Dihedral:        5   6   7   8     -123.158     -123.158
   Dihedral:        6   7   8   9     -142.105     -142.105
   Dihedral:        7   8   9  10       66.316       66.316
   Dihedral:        8   9  10  11     -142.105     -142.105
   Dihedral:        9  10  11  12       -9.473       -9.474
   Dihedral:       11  12  13  14      161.052      161.053
 Hessian Updated using BFGS Update
**WARNING** Hereditary positive definiteness endangered
**WARNING** Small Scalar Product
 Hessian Update Skipped this cycle

   Using Lagrange Multiplier Algorithm


171 Hessian modes will be used to form the next step
  Hessian Eigenvalues:
    -0.977753   -0.977753   -0.977753   -0.977753   -0.977753   -0.977753
    -0.977753   -0.977753   -0.977753    0.045000    0.045000    0.045000
     0.045000    0.045018    0.045040    0.045539    0.046898    0.048824
     0.050770    0.052826    0.054225    0.057331    0.058055    0.058713
     0.059820    0.060043    0.060310    0.061432    0.061943    0.064029
     0.065633    0.066227    0.066988    0.067995    0.068719    0.070724
     0.071434    0.074044    0.075367    0.075632    0.075770    0.077903
     0.078212    0.081124    0.082107    0.082217    0.083807    0.084066
     0.084477    0.085554    0.086373    0.086800    0.087730    0.088150
     0.089332    0.089343    0.089506    0.089726    0.089761    0.090373
     0.092851    0.093140    0.093496    0.096497    0.096717    0.100189
     0.103539    0.111328    0.111608    0.111903    0.113251    0.113455
     0.116034    0.116240    0.116538    0.117862    0.118486    0.118563
     0.119936    0.123921    0.131594    0.132984    0.140777    0.146276
     0.157606    0.158817    0.160000    0.160000    0.160000    0.160000
     0.160000    0.160000    0.163793    0.172292    0.172434    0.173405
     0.176775    0.201635    0.215771    0.219110    0.236624    0.240324
     0.249334    0.249867    0.250000    0.250000    0.250000    0.250000
     0.250231    0.259874    0.266176    0.266765    0.273174    0.274466
     0.275357    0.275581    0.277067    0.280469    0.290975    0.293266
     0.295766    0.298581    0.308050    0.313319    0.314042    0.320674
     0.322283    0.322430    0.322451    0.322514    0.322598    0.322862
     0.323510    0.323787    0.324233    0.324532    0.324590    0.324598
     0.324604    0.324990    0.326516    0.326947    0.326953    0.327262
     0.327612    0.329776    0.337836    0.363223    0.368958    0.370242
     0.384068    0.384750    0.469892    0.470383    0.475458    0.477427
     0.515954    0.537332    0.935327    0.942781    0.951833    1.022753
     1.022753    1.022753    1.022753    1.022753    1.022753    1.022753
     1.022753    1.022753    1.716956

 Minimum Search - Taking P-RFO Step
 Searching for Lamda that Maximizes Along the Constraint modes Only
 Value Taken    Lamda =   0.98318753


 ********************************************
 ** ERROR IN DETERMINING Lamda IN CONFormD **
 ********************************************



 New Cartesian Coordinates Obtained by Inverse Iteration

 Displacement from previous Coordinates is:  0.000000
 Adding empirical dispersion correction 
 ----------------------------------------------------------------
 Doing -D3(op) with
 s6 =   1.00000
 s8 =   0.78311
 a1 =   0.30000
 a2 =   4.25000
 n  =  10.00000
 -D3 energy without 3body term =     -0.0865988358 hartrees
 ----------------------------------------------------------------
             Standard Nuclear Orientation (Angstroms)
    I     Atom           X                Y                Z
 ----------------------------------------------------------------
    1      O       0.5207512354     0.2223993408     0.2059029605
    2      C      -0.6512585095     0.2612555526    -0.1403477997
    3      C      -1.8412923883     0.0812669626     0.7761762137
    4      C      -3.2001262596     0.5947352481     0.2724206265
    5      C      -3.2516472228     1.0697508182    -1.1627803049
    6      O      -1.9873546745     1.1363465230    -1.6751616690
    7      C      -0.9685257964     0.9584708609    -0.6854035564
    8      C      -0.0276336601     2.1587971026    -0.6779788836
    9      O       1.3221242076     1.7212534321    -0.4552751804
   10      C       1.8621956544     0.9689618571    -1.4459948549
   11      C       2.7388361648    -0.1458373528    -0.9269733357
   12      C       3.0396000281    -0.0856850933     0.5777479942
   13      C       2.1568740470     0.8390697252     1.3915881323
   14      O       2.0075859149     0.7911555231     2.6040061348
   15      O      -0.6859131324    -1.1654099015    -0.8254848263
   16      O       2.7088545749     2.1010699647     1.1934104634
   17      O       1.6238065299     1.1210632930    -2.6371198046
   18      C       2.3626712223     3.2845966931     1.8320868730
   19      C       2.3168140218    -1.6169758249    -1.1069251173
   20      C       3.5594513221    -2.5117501366    -1.0881281310
   21      C       3.9281285846    -2.4533800403     0.3844801093
   22      C       2.7901823325    -1.5784487341     0.9234305179
   23      O       1.7051956330    -1.9561983763     0.1132644688
   24      H       3.6896141641     0.0096751580    -1.4853670007
   25      H       4.0992800078     0.1584110834     0.8245521444
   26      H       1.7300113777    -1.7879642465    -2.0324228427
   27      H       3.2373351138    -3.5494269893    -1.3311818046
   28      H       4.3638382427    -2.2043499390    -1.7907351950
   29      H       3.8400477673    -3.4791105782     0.8073860790
   30      H       4.9351361647    -2.0406904505     0.6096267029
   31      H       2.6616128708    -1.7423965338     2.0154068024
   32      O      -4.2540440947     1.3863163493    -1.7828526724
   33      C      -1.0943056905    -1.5410277774    -2.0972942873
   34      C      -2.2468556188    -1.3630655531     1.1947971262
   35      C      -3.0866752713    -1.3524273462     2.4756116347
   36      C      -4.4104227444    -0.8538232216     1.9390336286
   37      C      -4.0628819887    -0.6698112009     0.4619911664
   38      O      -3.1786521445    -1.7336870422     0.2092501403
   39      H      -1.5601671822     0.6009871114     1.7294852256
   40      H      -3.6016344799     1.4342133249     0.8837469180
   41      H      -0.9642244725    -2.6370616977    -2.2033668741
   42      H      -1.3721165015    -2.0356461264     1.3355860927
   43      H      -3.2215773647    -2.4018472536     2.8217527733
   44      H      -2.6441885753    -0.7457691698     3.2943882939
   45      H      -5.1576156803    -1.6744502420     2.0270525208
   46      H      -4.8065568979     0.0645780667     2.4234448844
   47      H      -4.9925012963    -0.6525626675    -0.1481534895
   48      H      -0.4669989406    -1.0469512326    -2.8670226791
   49      H      -2.1625833417    -1.3024350223    -2.2588857555
   50      H       2.0858234396     4.0402528114     1.0683079839
   51      H       3.2332378991     3.6612957342     2.4056235556
   52      H       1.4971356938     3.1554586139     2.5170844575
   53      H      -0.0582124648     2.8891119567    -1.5494728884
   54      H       0.0068250110     2.9024851905     0.2174945083
   55      H      -0.5679491592     1.0226833981    -1.9837225044
   56      H      -1.5411731540     2.0990016179    -0.3153545399
 ----------------------------------------------------------------
 Molecular Point Group                 C1    NOp =  1
 Largest Abelian Subgroup              C1    NOp =  1
 Nuclear Repulsion Energy =  3666.1340711812 hartrees
 There are      113 alpha and      113 beta electrons
 Applying Cartesian multipole field
    Component          Value
    ---------          -----
     (2,0,0)        1.00000E-11
     (0,2,0)        2.00000E-11
     (0,0,2)       -3.00000E-11
 Nucleus-field energy     =     0.0000000469 hartrees
 Requested basis set is STO-3G
 There are 86 shells and 176 basis functions
 A cutoff of  1.0D-12 yielded   2786 shell pairs
 There are     13313 function pairs
 Smallest overlap matrix eigenvalue = 3.86E-02
 Guess MOs from SCF MO coefficient file
 Reading MOs from coefficient file
 Reading MOs from coefficient file
 A restricted hybrid HF-DFT SCF calculation will be
 performed using Pulay DIIS extrapolation
 Exchange:     0.2000 Hartree-Fock + 0.0800 Slater + 0.7200 B88
 Correlation:  0.1900 VWN1RPA + 0.8100 LYP
 Using SG-1 standard quadrature grid
 Dispersion:   Grimme D3
 SCF converges when DIIS error is below 1.0E-08
 Geometry optimization detected.  Setting ReadMinima to 0
 Setting SaveMinima to 0
 using 48 threads for integral computing
 -------------------------------------------------------
 OpenMP Integral computing Module                
 Release: version 1.0, May 2013, Q-Chem Inc. Pittsburgh 
 -------------------------------------------------------
 -------------------------------------------------------
 OpenMP BLAS3 based DFT computing Module                
 Release: version 1.0, May 2013, Q-Chem Inc. Pittsburgh 
 -------------------------------------------------------
 ---------------------------------------
  Cycle       Energy         DIIS Error
 ---------------------------------------
    1   -1508.8311999732      9.38E-10
    2   -1508.8311999732      5.77E-09 Convergence criterion met
 ---------------------------------------
 SCF time:  CPU 18.11 s  wall 0.38 s
 SCF   energy in the final basis set = -1508.83119997
 Total energy in the final basis set = -1508.83119997
 
 --------------------------------------------------------------
 
                    Orbital Energies (a.u.)
 --------------------------------------------------------------
 
 Alpha MOs
 -- Occupied --
-18.976 -18.963 -18.918 -18.899 -18.890 -18.878 -18.855 -18.840
-18.813 -18.810 -10.186 -10.159 -10.143 -10.129 -10.120 -10.088
-10.075 -10.062 -10.056 -10.053 -10.051 -10.050 -10.037 -10.027
-10.027 -10.022 -10.018 -10.011 -10.009 -10.006  -1.123  -1.084
 -1.039  -1.024  -1.013  -1.007  -1.002  -0.969  -0.904  -0.893
 -0.867  -0.798  -0.772  -0.754  -0.736  -0.727  -0.712  -0.707
 -0.654  -0.652  -0.629  -0.622  -0.601  -0.582  -0.556  -0.542
 -0.537  -0.527  -0.522  -0.515  -0.508  -0.479  -0.473  -0.463
 -0.459  -0.448  -0.435  -0.428  -0.419  -0.416  -0.410  -0.407
 -0.405  -0.391  -0.390  -0.386  -0.381  -0.368  -0.362  -0.360
 -0.354  -0.347  -0.340  -0.339  -0.328  -0.325  -0.318  -0.313
 -0.309  -0.304  -0.302  -0.301  -0.291  -0.283  -0.273  -0.268
 -0.258  -0.237  -0.229  -0.224  -0.223  -0.212  -0.193  -0.180
 -0.172  -0.162  -0.152  -0.143  -0.122  -0.113  -0.100  -0.084
 -0.056
 -- Virtual --
 -0.013   0.071   0.079   0.093   0.118   0.202   0.253   0.260
  0.265   0.299   0.309   0.315   0.325   0.332   0.341   0.346
  0.349   0.356   0.370   0.371   0.374   0.387   0.390   0.396
  0.397   0.404   0.407   0.411   0.419   0.422   0.424   0.430
  0.434   0.439   0.442   0.443   0.454   0.458   0.462   0.465
  0.466   0.472   0.476   0.485   0.491   0.495   0.498   0.499
  0.509   0.514   0.526   0.537   0.556   0.560   0.567   0.580
  0.590   0.600   0.654   0.675   0.719   0.788   1.517
 --------------------------------------------------------------
 
          Ground-State Mulliken Net Atomic Charges

     Atom                 Charge (a.u.)
  ----------------------------------------
      1 O                    -0.193729
      2 C                     0.095245
      3 C                    -0.043785
      4 C                    -0.107143
      5 C                     0.236453
      6 O                    -0.174163
      7 C                    -0.052017
      8 C                    -0.007083
      9 O                    -0.136497
     10 C                     0.242721
     11 C                    -0.077002
     12 C                    -0.070497
     13 C                     0.258957
     14 O                    -0.256708
     15 O                    -0.209332
     16 O                    -0.231649
     17 O                    -0.236022
     18 C                    -0.104232
     19 C                     0.045683
     20 C                    -0.141334
     21 C                    -0.144030
     22 C                     0.040064
     23 O                    -0.197068
     24 H                     0.080612
     25 H                     0.086761
     26 H                     0.086233
     27 H                     0.074219
     28 H                     0.070490
     29 H                     0.073384
     30 H                     0.069574
     31 H                     0.086864
     32 O                    -0.191379
     33 C                    -0.135111
     34 C                     0.046235
     35 C                    -0.145784
     36 C                    -0.142499
     37 C                     0.041094
     38 O                    -0.209447
     39 H                     0.075875
     40 H                     0.087943
     41 H                     0.087916
     42 H                     0.100472
     43 H                     0.075525
     44 H                     0.072582
     45 H                     0.076594
     46 H                     0.070376
     47 H                     0.086665
     48 H                     0.048298
     49 H                     0.065092
     50 H                     0.063929
     51 H                     0.078366
     52 H                     0.075392
     53 H                     0.100254
     54 H                     0.087359
     55 H                     0.223296
     56 H                     0.095989
  ----------------------------------------
  Sum of atomic charges =    -0.000000

 -----------------------------------------------------------------
                    Cartesian Multipole Moments
 -----------------------------------------------------------------
    Charge (ESU x 10^10)
                 0.0000
    Dipole Moment (Debye)
         X      -0.9169      Y       2.0396      Z      -0.0059
       Tot       2.2362
    Quadrupole Moments (Debye-Ang)
        XX    -159.3326     XY      -5.8746     YY    -154.7093
        XZ     -10.1174     YZ       1.8228     ZZ    -168.8249
    Octopole Moments (Debye-Ang^2)
       XXX      45.0821    XXY     -19.2526    XYY       7.6882
       YYY      38.3092    XXZ      27.4544    XYZ      -5.3791
       YYZ       1.8813    XZZ      -8.8879    YZZ     -10.6519
       ZZZ     -10.2418
    Hexadecapole Moments (Debye-Ang^3)
      XXXX   -6840.8213   XXXY      82.2669   XXYY   -1586.2385
      XYYY      26.5144   YYYY   -2406.6772   XXXZ     -83.0494
      XXYZ      38.1599   XYYZ      15.6681   YYYZ      -2.3691
      XXZZ   -1538.1509   XYZZ      20.6378   YYZZ    -723.8251
      XZZZ      40.2312   YZZZ      12.0255   ZZZZ   -2128.1420
 -----------------------------------------------------------------
 Calculating analytic gradient of the SCF energy
 Gradient of SCF Energy
            1           2           3           4           5           6
    1  -0.1688336  -0.4097478   0.0372895   0.0115866   0.0194595   0.0471174
    2   0.1130982   1.4073943   0.0356815  -0.0308036   0.0013256   0.0106723
    3  -0.1564798  -1.0055705  -0.1426945  -0.0269036  -0.0281090   0.1236726
            7           8           9          10          11          12
    1   0.5400709  -0.0545350  -0.0501541  -0.0157639  -0.0668979  -0.0222083
    2  -1.4688624  -0.1719828  -0.0994929   0.0327847  -0.0273445   0.0260928
    3   1.1548365  -0.0038060   0.0305073   0.0110504   0.0106115   0.0104452
           13          14          15          16          17          18
    1  -0.0500778   0.0737627  -0.0138679  -0.0760857   0.0253379   0.0277176
    2  -0.0350845   0.0762135   0.0840395  -0.0474872  -0.0130743  -0.0130244
    3  -0.0518421  -0.1026153  -0.0436412   0.1128812   0.0690811  -0.0233163
           19          20          21          22          23          24
    1   0.0104994  -0.0247692  -0.0379174  -0.0261320   0.0814556   0.0021016
    2  -0.0040574   0.0250779   0.0205131  -0.0054469   0.0287047   0.0040006
    3   0.0655134   0.0364046  -0.0220192  -0.0659186  -0.0185751  -0.0017083
           25          26          27          28          29          30
    1   0.0093485   0.0104287  -0.0048020   0.0061104  -0.0056405   0.0062518
    2  -0.0047328   0.0001379  -0.0091859   0.0018505  -0.0106357   0.0045994
    3   0.0058944  -0.0090338   0.0046556  -0.0048765  -0.0028213   0.0030457
           31          32          33          34          35          36
    1   0.0130590   0.0390842   0.0142073  -0.0664489  -0.0116056   0.0447393
    2  -0.0011967  -0.0094365  -0.0145826   0.0113576   0.0129342  -0.0075303
    3   0.0043812   0.0333272   0.0278973  -0.0305666  -0.0466530  -0.0262722
           37          38          39          40          41          42
    1   0.0636832   0.0053673   0.0021238  -0.0028609  -0.0017242   0.0034978
    2  -0.0217562   0.0612069  -0.0039096   0.0072075   0.0014371   0.0003732
    3   0.0146848   0.0589716   0.0126851  -0.0005949  -0.0007227   0.0150769
           43          44          45          46          47          48
    1  -0.0073346   0.0037176   0.0000893  -0.0022163  -0.0086031   0.0023940
    2  -0.0095258   0.0046617  -0.0123136   0.0071213   0.0053877  -0.0036465
    3  -0.0023941   0.0054103   0.0006074   0.0031037   0.0078515   0.0172798
           49          50          51          52          53          54
    1   0.0060215   0.0002723  -0.0000944  -0.0005736   0.0082869   0.0190831
    2   0.0029861  -0.0063749  -0.0038172  -0.0025862   0.0169819   0.0262104
    3   0.0124670   0.0008029  -0.0040102  -0.0057257  -0.0036421   0.0127559
           55          56
    1  -0.0172497   0.0119798
    2   0.0062957   0.0015434
    3  -0.0065330  -0.0288565
 Max gradient component =       1.469E+00
 RMS gradient           =       2.074E-01
 Gradient time:  CPU 37.01 s  wall 0.78 s
 Geometry Optimization Parameters
   NAtoms,    NIC,     NZ,  NCons,   NDum,   NFix, NCnnct, MaxDiis
       56     577       0       9       0       0       0       0

 Cartesian Hessian Update
 Hessian Updated using BFGS Update
**WARNING** Hereditary positive definiteness endangered
**WARNING** Small Scalar Product
 Hessian Update Skipped this cycle


** CONSTRAINED OPTIMIZATION IN DELOCALIZED INTERNAL COORDINATES **
   Searching for a Minimum

   Optimization Cycle:   3

                       Coordinates (Angstroms)
     ATOM                X               Y               Z
      1  O         0.5207512354    0.2223993408    0.2059029605
      2  C        -0.6512585095    0.2612555526   -0.1403477997
      3  C        -1.8412923883    0.0812669626    0.7761762137
      4  C        -3.2001262596    0.5947352481    0.2724206265
      5  C        -3.2516472228    1.0697508182   -1.1627803049
      6  O        -1.9873546745    1.1363465230   -1.6751616690
      7  C        -0.9685257964    0.9584708609   -0.6854035564
      8  C        -0.0276336601    2.1587971026   -0.6779788836
      9  O         1.3221242076    1.7212534321   -0.4552751804
     10  C         1.8621956544    0.9689618571   -1.4459948549
     11  C         2.7388361648   -0.1458373528   -0.9269733357
     12  C         3.0396000281   -0.0856850933    0.5777479942
     13  C         2.1568740470    0.8390697252    1.3915881323
     14  O         2.0075859149    0.7911555231    2.6040061348
     15  O        -0.6859131324   -1.1654099015   -0.8254848263
     16  O         2.7088545749    2.1010699647    1.1934104634
     17  O         1.6238065299    1.1210632930   -2.6371198046
     18  C         2.3626712223    3.2845966931    1.8320868730
     19  C         2.3168140218   -1.6169758249   -1.1069251173
     20  C         3.5594513221   -2.5117501366   -1.0881281310
     21  C         3.9281285846   -2.4533800403    0.3844801093
     22  C         2.7901823325   -1.5784487341    0.9234305179
     23  O         1.7051956330   -1.9561983763    0.1132644688
     24  H         3.6896141641    0.0096751580   -1.4853670007
     25  H         4.0992800078    0.1584110834    0.8245521444
     26  H         1.7300113777   -1.7879642465   -2.0324228427
     27  H         3.2373351138   -3.5494269893   -1.3311818046
     28  H         4.3638382427   -2.2043499390   -1.7907351950
     29  H         3.8400477673   -3.4791105782    0.8073860790
     30  H         4.9351361647   -2.0406904505    0.6096267029
     31  H         2.6616128708   -1.7423965338    2.0154068024
     32  O        -4.2540440947    1.3863163493   -1.7828526724
     33  C        -1.0943056905   -1.5410277774   -2.0972942873
     34  C        -2.2468556188   -1.3630655531    1.1947971262
     35  C        -3.0866752713   -1.3524273462    2.4756116347
     36  C        -4.4104227444   -0.8538232216    1.9390336286
     37  C        -4.0628819887   -0.6698112009    0.4619911664
     38  O        -3.1786521445   -1.7336870422    0.2092501403
     39  H        -1.5601671822    0.6009871114    1.7294852256
     40  H        -3.6016344799    1.4342133249    0.8837469180
     41  H        -0.9642244725   -2.6370616977   -2.2033668741
     42  H        -1.3721165015   -2.0356461264    1.3355860927
     43  H        -3.2215773647   -2.4018472536    2.8217527733
     44  H        -2.6441885753   -0.7457691698    3.2943882939
     45  H        -5.1576156803   -1.6744502420    2.0270525208
     46  H        -4.8065568979    0.0645780667    2.4234448844
     47  H        -4.9925012963   -0.6525626675   -0.1481534895
     48  H        -0.4669989406   -1.0469512326   -2.8670226791
     49  H        -2.1625833417   -1.3024350223   -2.2588857555
     50  H         2.0858234396    4.0402528114    1.0683079839
     51  H         3.2332378991    3.6612957342    2.4056235556
     52  H         1.4971356938    3.1554586139    2.5170844575
     53  H        -0.0582124648    2.8891119567   -1.5494728884
     54  H         0.0068250110    2.9024851905    0.2174945083
     55  H        -0.5679491592    1.0226833981   -1.9837225044
     56  H        -1.5411731540    2.0990016179   -0.3153545399
   Point Group: c1    Number of degrees of freedom:   162


   Energy is  -1508.831199973

              Constraints and their Current Values
                                        Value     Constraint
   Dihedral:        1   2   3   4      161.052      161.053
   Dihedral:        3   4   5   6       -9.474       -9.474
   Dihedral:        4   5   6   7       -9.474       -9.474
   Dihedral:        5   6   7   8     -123.158     -123.158
   Dihedral:        6   7   8   9     -142.105     -142.105
   Dihedral:        7   8   9  10       66.316       66.316
   Dihedral:        8   9  10  11     -142.105     -142.105
   Dihedral:        9  10  11  12       -9.473       -9.474
   Dihedral:       11  12  13  14      161.052      161.053
 Hessian Updated using BFGS Update
**WARNING** Hereditary positive definiteness endangered
**WARNING** Small Scalar Product
 Hessian Update Skipped this cycle

   Using Lagrange Multiplier Algorithm


171 Hessian modes will be used to form the next step
  Hessian Eigenvalues:
    -0.977753   -0.977753   -0.977753   -0.977753   -0.977753   -0.977753
    -0.977753   -0.977753   -0.977753    0.045000    0.045000    0.045000
     0.045000    0.045018    0.045040    0.045539    0.046898    0.048824
     0.050770    0.052826    0.054225    0.057331    0.058055    0.058713
     0.059820    0.060043    0.060310    0.061432    0.061943    0.064029
     0.065633    0.066227    0.066988    0.067995    0.068719    0.070724
     0.071434    0.074044    0.075367    0.075632    0.075770    0.077903
     0.078212    0.081124    0.082107    0.082217    0.083807    0.084066
     0.084477    0.085554    0.086373    0.086800    0.087730    0.088150
     0.089332    0.089343    0.089506    0.089726    0.089761    0.090373
     0.092851    0.093140    0.093496    0.096497    0.096717    0.100189
     0.103539    0.111328    0.111608    0.111903    0.113251    0.113455
     0.116034    0.116240    0.116538    0.117862    0.118486    0.118563
     0.119936    0.123921    0.131594    0.132984    0.140777    0.146276
     0.157606    0.158817    0.160000    0.160000    0.160000    0.160000
     0.160000    0.160000    0.163793    0.172292    0.172434    0.173405
     0.176775    0.201635    0.215771    0.219110    0.236624    0.240324
     0.249334    0.249867    0.250000    0.250000    0.250000    0.250000
     0.250231    0.259874    0.266176    0.266765    0.273174    0.274466
     0.275357    0.275581    0.277067    0.280469    0.290975    0.293266
     0.295766    0.298581    0.308050    0.313319    0.314042    0.320674
     0.322283    0.322430    0.322451    0.322514    0.322598    0.322862
     0.323510    0.323787    0.324233    0.324532    0.324590    0.324598
     0.324604    0.324990    0.326516    0.326947    0.326953    0.327262
     0.327612    0.329776    0.337836    0.363223    0.368958    0.370242
     0.384068    0.384750    0.469892    0.470383    0.475458    0.477427
     0.515954    0.537332    0.935327    0.942781    0.951833    1.022753
     1.022753    1.022753    1.022753    1.022753    1.022753    1.022753
     1.022753    1.022753    1.716956

 Minimum Search - Taking P-RFO Step
 Searching for Lamda that Maximizes Along the Constraint modes Only
 Value Taken    Lamda =   0.98318752


 ********************************************
 ** ERROR IN DETERMINING Lamda IN CONFormD **
 ********************************************



 New Cartesian Coordinates Obtained by Inverse Iteration

 Displacement from previous Coordinates is:  0.000000
 Adding empirical dispersion correction 
 ----------------------------------------------------------------
 Doing -D3(op) with
 s6 =   1.00000
 s8 =   0.78311
 a1 =   0.30000
 a2 =   4.25000
 n  =  10.00000
 -D3 energy without 3body term =     -0.0865988358 hartrees
 ----------------------------------------------------------------
             Standard Nuclear Orientation (Angstroms)
    I     Atom           X                Y                Z
 ----------------------------------------------------------------
    1      O       0.5207512354     0.2223993408     0.2059029605
    2      C      -0.6512585095     0.2612555526    -0.1403477997
    3      C      -1.8412923883     0.0812669626     0.7761762137
    4      C      -3.2001262596     0.5947352481     0.2724206265
    5      C      -3.2516472228     1.0697508182    -1.1627803049
    6      O      -1.9873546745     1.1363465230    -1.6751616690
    7      C      -0.9685257964     0.9584708609    -0.6854035564
    8      C      -0.0276336601     2.1587971026    -0.6779788836
    9      O       1.3221242076     1.7212534321    -0.4552751804
   10      C       1.8621956544     0.9689618571    -1.4459948549
   11      C       2.7388361648    -0.1458373528    -0.9269733357
   12      C       3.0396000281    -0.0856850933     0.5777479942
   13      C       2.1568740470     0.8390697252     1.3915881323
   14      O       2.0075859149     0.7911555231     2.6040061348
   15      O      -0.6859131324    -1.1654099015    -0.8254848263
   16      O       2.7088545749     2.1010699647     1.1934104634
   17      O       1.6238065299     1.1210632930    -2.6371198046
   18      C       2.3626712223     3.2845966931     1.8320868730
   19      C       2.3168140218    -1.6169758249    -1.1069251173
   20      C       3.5594513221    -2.5117501366    -1.0881281310
   21      C       3.9281285846    -2.4533800403     0.3844801093
   22      C       2.7901823325    -1.5784487341     0.9234305179
   23      O       1.7051956330    -1.9561983763     0.1132644688
   24      H       3.6896141641     0.0096751580    -1.4853670007
   25      H       4.0992800078     0.1584110834     0.8245521444
   26      H       1.7300113777    -1.7879642465    -2.0324228427
   27      H       3.2373351138    -3.5494269893    -1.3311818046
   28      H       4.3638382427    -2.2043499390    -1.7907351950
   29      H       3.8400477673    -3.4791105782     0.8073860790
   30      H       4.9351361647    -2.0406904505     0.6096267029
   31      H       2.6616128708    -1.7423965338     2.0154068024
   32      O      -4.2540440947     1.3863163493    -1.7828526724
   33      C      -1.0943056905    -1.5410277774    -2.0972942873
   34      C      -2.2468556188    -1.3630655531     1.1947971262
   35      C      -3.0866752713    -1.3524273462     2.4756116347
   36      C      -4.4104227444    -0.8538232216     1.9390336286
   37      C      -4.0628819887    -0.6698112009     0.4619911664
   38      O      -3.1786521445    -1.7336870422     0.2092501403
   39      H      -1.5601671822     0.6009871114     1.7294852256
   40      H      -3.6016344799     1.4342133249     0.8837469180
   41      H      -0.9642244725    -2.6370616977    -2.2033668741
   42      H      -1.3721165015    -2.0356461264     1.3355860927
[...]
 -0.354  -0.347  -0.340  -0.339  -0.328  -0.325  -0.318  -0.313
 -0.309  -0.304  -0.302  -0.301  -0.291  -0.283  -0.273  -0.268
 -0.258  -0.237  -0.229  -0.224  -0.223  -0.212  -0.193  -0.180
 -0.172  -0.162  -0.152  -0.143  -0.122  -0.113  -0.100  -0.084
 -0.056
 -- Virtual --
 -0.013   0.071   0.079   0.093   0.118   0.202   0.253   0.260
  0.265   0.299   0.309   0.315   0.325   0.332   0.341   0.346
  0.349   0.356   0.370   0.371   0.374   0.387   0.390   0.396
  0.397   0.404   0.407   0.411   0.419   0.422   0.424   0.430
  0.434   0.439   0.442   0.443   0.454   0.458   0.462   0.465
  0.466   0.472   0.476   0.485   0.491   0.495   0.498   0.499
  0.509   0.514   0.526   0.537   0.556   0.560   0.567   0.580
  0.590   0.600   0.654   0.675   0.719   0.788   1.517
 --------------------------------------------------------------
 
          Ground-State Mulliken Net Atomic Charges

     Atom                 Charge (a.u.)
  ----------------------------------------
      1 O                    -0.193729
      2 C                     0.095245
      3 C                    -0.043785
      4 C                    -0.107143
      5 C                     0.236453
      6 O                    -0.174163
      7 C                    -0.052017
      8 C                    -0.007083
      9 O                    -0.136497
     10 C                     0.242721
     11 C                    -0.077002
     12 C                    -0.070497
     13 C                     0.258957
     14 O                    -0.256708
     15 O                    -0.209332
     16 O                    -0.231649
     17 O                    -0.236022
     18 C                    -0.104232
     19 C                     0.045683
     20 C                    -0.141334
     21 C                    -0.144030
     22 C                     0.040064
     23 O                    -0.197068
     24 H                     0.080612
     25 H                     0.086761
     26 H                     0.086233
     27 H                     0.074219
     28 H                     0.070490
     29 H                     0.073384
     30 H                     0.069574
     31 H                     0.086864
     32 O                    -0.191380
     33 C                    -0.135111
     34 C                     0.046235
     35 C                    -0.145784
     36 C                    -0.142499
     37 C                     0.041094
     38 O                    -0.209447
     39 H                     0.075875
     40 H                     0.087943
     41 H                     0.087916
     42 H                     0.100472
     43 H                     0.075525
     44 H                     0.072582
     45 H                     0.076594
     46 H                     0.070376
     47 H                     0.086665
     48 H                     0.048298
     49 H                     0.065092
     50 H                     0.063929
     51 H                     0.078366
     52 H                     0.075392
     53 H                     0.100254
     54 H                     0.087359
     55 H                     0.223296
     56 H                     0.095989
  ----------------------------------------
  Sum of atomic charges =    -0.000000

 -----------------------------------------------------------------
                    Cartesian Multipole Moments
 -----------------------------------------------------------------
    Charge (ESU x 10^10)
                 0.0000
    Dipole Moment (Debye)
         X      -0.9169      Y       2.0396      Z      -0.0059
       Tot       2.2362
    Quadrupole Moments (Debye-Ang)
        XX    -159.3326     XY      -5.8746     YY    -154.7093
        XZ     -10.1174     YZ       1.8228     ZZ    -168.8249
    Octopole Moments (Debye-Ang^2)
       XXX      45.0821    XXY     -19.2526    XYY       7.6882
       YYY      38.3092    XXZ      27.4544    XYZ      -5.3791
       YYZ       1.8813    XZZ      -8.8879    YZZ     -10.6519
       ZZZ     -10.2418
    Hexadecapole Moments (Debye-Ang^3)
      XXXX   -6840.8214   XXXY      82.2669   XXYY   -1586.2385
      XYYY      26.5144   YYYY   -2406.6772   XXXZ     -83.0495
      XXYZ      38.1599   XYYZ      15.6681   YYYZ      -2.3691
      XXZZ   -1538.1509   XYZZ      20.6378   YYZZ    -723.8251
      XZZZ      40.2312   YZZZ      12.0256   ZZZZ   -2128.1420
 -----------------------------------------------------------------
 Calculating analytic gradient of the SCF energy
 Gradient of SCF Energy
            1           2           3           4           5           6
    1  -0.1688336  -0.4097478   0.0372895   0.0115866   0.0194594   0.0471174
    2   0.1130982   1.4073943   0.0356815  -0.0308036   0.0013256   0.0106723
    3  -0.1564798  -1.0055705  -0.1426945  -0.0269036  -0.0281090   0.1236726
            7           8           9          10          11          12
    1   0.5400709  -0.0545350  -0.0501541  -0.0157639  -0.0668979  -0.0222083
    2  -1.4688624  -0.1719828  -0.0994929   0.0327847  -0.0273445   0.0260928
    3   1.1548365  -0.0038060   0.0305073   0.0110504   0.0106115   0.0104452
           13          14          15          16          17          18
    1  -0.0500778   0.0737627  -0.0138679  -0.0760857   0.0253379   0.0277176
    2  -0.0350845   0.0762135   0.0840395  -0.0474872  -0.0130743  -0.0130244
    3  -0.0518421  -0.1026153  -0.0436412   0.1128812   0.0690811  -0.0233163
           19          20          21          22          23          24
    1   0.0104994  -0.0247692  -0.0379174  -0.0261320   0.0814556   0.0021016
    2  -0.0040574   0.0250779   0.0205131  -0.0054469   0.0287047   0.0040006
    3   0.0655134   0.0364046  -0.0220192  -0.0659186  -0.0185751  -0.0017083
           25          26          27          28          29          30
    1   0.0093485   0.0104287  -0.0048020   0.0061104  -0.0056405   0.0062518
    2  -0.0047328   0.0001379  -0.0091859   0.0018505  -0.0106357   0.0045994
    3   0.0058944  -0.0090338   0.0046556  -0.0048765  -0.0028213   0.0030457
           31          32          33          34          35          36
    1   0.0130590   0.0390842   0.0142073  -0.0664489  -0.0116056   0.0447393
    2  -0.0011967  -0.0094365  -0.0145826   0.0113576   0.0129342  -0.0075303
    3   0.0043812   0.0333272   0.0278973  -0.0305666  -0.0466530  -0.0262722
           37          38          39          40          41          42
    1   0.0636832   0.0053673   0.0021238  -0.0028609  -0.0017242   0.0034978
    2  -0.0217562   0.0612069  -0.0039096   0.0072075   0.0014371   0.0003732
    3   0.0146848   0.0589716   0.0126851  -0.0005949  -0.0007227   0.0150769
           43          44          45          46          47          48
    1  -0.0073346   0.0037176   0.0000893  -0.0022163  -0.0086031   0.0023940
    2  -0.0095258   0.0046617  -0.0123136   0.0071213   0.0053877  -0.0036465
    3  -0.0023941   0.0054103   0.0006074   0.0031037   0.0078515   0.0172798
           49          50          51          52          53          54
    1   0.0060215   0.0002723  -0.0000944  -0.0005736   0.0082869   0.0190831
    2   0.0029861  -0.0063749  -0.0038172  -0.0025862   0.0169819   0.0262104
    3   0.0124670   0.0008029  -0.0040102  -0.0057257  -0.0036421   0.0127559
           55          56
    1  -0.0172497   0.0119798
    2   0.0062957   0.0015434
    3  -0.0065330  -0.0288565
 Max gradient component =       1.469E+00
 RMS gradient           =       2.074E-01
 Gradient time:  CPU 36.04 s  wall 0.77 s
 Geometry Optimization Parameters
   NAtoms,    NIC,     NZ,  NCons,   NDum,   NFix, NCnnct, MaxDiis
       56     577       0       9       0       0       0       0

 Cartesian Hessian Update
 Hessian Updated using BFGS Update
**WARNING** Hereditary positive definiteness endangered
**WARNING** Small Scalar Product
 Hessian Update Skipped this cycle


** CONSTRAINED OPTIMIZATION IN DELOCALIZED INTERNAL COORDINATES **
   Searching for a Minimum

   Optimization Cycle: 100

                       Coordinates (Angstroms)
     ATOM                X               Y               Z
      1  O         0.5207512354    0.2223993408    0.2059029605
      2  C        -0.6512585095    0.2612555526   -0.1403477997
      3  C        -1.8412923883    0.0812669626    0.7761762137
      4  C        -3.2001262596    0.5947352481    0.2724206265
      5  C        -3.2516472228    1.0697508182   -1.1627803049
      6  O        -1.9873546745    1.1363465230   -1.6751616690
      7  C        -0.9685257964    0.9584708609   -0.6854035564
      8  C        -0.0276336601    2.1587971026   -0.6779788836
      9  O         1.3221242076    1.7212534321   -0.4552751804
     10  C         1.8621956544    0.9689618571   -1.4459948549
     11  C         2.7388361648   -0.1458373528   -0.9269733357
     12  C         3.0396000281   -0.0856850933    0.5777479942
     13  C         2.1568740470    0.8390697252    1.3915881323
     14  O         2.0075859149    0.7911555231    2.6040061348
     15  O        -0.6859131324   -1.1654099015   -0.8254848263
     16  O         2.7088545749    2.1010699647    1.1934104634
     17  O         1.6238065299    1.1210632930   -2.6371198046
     18  C         2.3626712223    3.2845966931    1.8320868730
     19  C         2.3168140218   -1.6169758249   -1.1069251173
     20  C         3.5594513221   -2.5117501366   -1.0881281310
     21  C         3.9281285846   -2.4533800403    0.3844801093
     22  C         2.7901823325   -1.5784487341    0.9234305179
     23  O         1.7051956330   -1.9561983763    0.1132644688
     24  H         3.6896141641    0.0096751580   -1.4853670007
     25  H         4.0992800078    0.1584110834    0.8245521444
     26  H         1.7300113777   -1.7879642465   -2.0324228427
     27  H         3.2373351138   -3.5494269893   -1.3311818046
     28  H         4.3638382427   -2.2043499390   -1.7907351950
     29  H         3.8400477673   -3.4791105782    0.8073860790
     30  H         4.9351361647   -2.0406904505    0.6096267029
     31  H         2.6616128708   -1.7423965338    2.0154068024
     32  O        -4.2540440947    1.3863163493   -1.7828526724
     33  C        -1.0943056905   -1.5410277774   -2.0972942873
     34  C        -2.2468556188   -1.3630655531    1.1947971262
     35  C        -3.0866752713   -1.3524273462    2.4756116347
     36  C        -4.4104227444   -0.8538232216    1.9390336286
     37  C        -4.0628819887   -0.6698112009    0.4619911664
     38  O        -3.1786521445   -1.7336870422    0.2092501403
     39  H        -1.5601671822    0.6009871114    1.7294852256
     40  H        -3.6016344799    1.4342133249    0.8837469180
     41  H        -0.9642244725   -2.6370616977   -2.2033668741
     42  H        -1.3721165015   -2.0356461264    1.3355860927
     43  H        -3.2215773647   -2.4018472536    2.8217527733
     44  H        -2.6441885753   -0.7457691698    3.2943882939
     45  H        -5.1576156803   -1.6744502420    2.0270525208
     46  H        -4.8065568979    0.0645780667    2.4234448844
     47  H        -4.9925012963   -0.6525626675   -0.1481534895
     48  H        -0.4669989406   -1.0469512326   -2.8670226791
     49  H        -2.1625833417   -1.3024350223   -2.2588857555
     50  H         2.0858234396    4.0402528114    1.0683079839
     51  H         3.2332378991    3.6612957342    2.4056235556
     52  H         1.4971356938    3.1554586139    2.5170844575
     53  H        -0.0582124648    2.8891119567   -1.5494728884
     54  H         0.0068250110    2.9024851905    0.2174945083
     55  H        -0.5679491592    1.0226833981   -1.9837225044
     56  H        -1.5411731540    2.0990016179   -0.3153545399
   Point Group: c1    Number of degrees of freedom:   162


   Energy is  -1508.831199973

              Constraints and their Current Values
                                        Value     Constraint
   Dihedral:        1   2   3   4      161.052      161.053
   Dihedral:        3   4   5   6       -9.474       -9.474
   Dihedral:        4   5   6   7       -9.474       -9.474
   Dihedral:        5   6   7   8     -123.158     -123.158
   Dihedral:        6   7   8   9     -142.105     -142.105
   Dihedral:        7   8   9  10       66.316       66.316
   Dihedral:        8   9  10  11     -142.105     -142.105
   Dihedral:        9  10  11  12       -9.473       -9.474
   Dihedral:       11  12  13  14      161.052      161.053
 Hessian Updated using BFGS Update
**WARNING** Hereditary positive definiteness endangered
**WARNING** Small Scalar Product
 Hessian Update Skipped this cycle

   Using Lagrange Multiplier Algorithm


171 Hessian modes will be used to form the next step
  Hessian Eigenvalues:
    -0.977753   -0.977753   -0.977753   -0.977753   -0.977753   -0.977753
    -0.977753   -0.977753   -0.977753    0.045000    0.045000    0.045000
     0.045000    0.045018    0.045040    0.045539    0.046898    0.048824
     0.050770    0.052826    0.054225    0.057331    0.058055    0.058713
     0.059820    0.060043    0.060310    0.061432    0.061943    0.064029
     0.065633    0.066227    0.066988    0.067995    0.068719    0.070724
     0.071434    0.074044    0.075367    0.075632    0.075770    0.077903
     0.078212    0.081124    0.082107    0.082217    0.083807    0.084066
     0.084477    0.085554    0.086373    0.086800    0.087730    0.088150
     0.089332    0.089343    0.089506    0.089726    0.089761    0.090373
     0.092851    0.093140    0.093496    0.096497    0.096717    0.100189
     0.103539    0.111328    0.111608    0.111903    0.113251    0.113455
     0.116034    0.116240    0.116538    0.117862    0.118486    0.118563
     0.119936    0.123921    0.131594    0.132984    0.140777    0.146276
     0.157606    0.158817    0.160000    0.160000    0.160000    0.160000
     0.160000    0.160000    0.163793    0.172292    0.172434    0.173405
     0.176775    0.201635    0.215771    0.219110    0.236624    0.240324
     0.249334    0.249867    0.250000    0.250000    0.250000    0.250000
     0.250231    0.259874    0.266176    0.266765    0.273174    0.274466
     0.275357    0.275581    0.277067    0.280469    0.290975    0.293266
     0.295766    0.298581    0.308050    0.313319    0.314042    0.320674
     0.322283    0.322430    0.322451    0.322514    0.322598    0.322862
     0.323510    0.323787    0.324233    0.324532    0.324590    0.324598
     0.324604    0.324990    0.326516    0.326947    0.326953    0.327262
     0.327612    0.329776    0.337836    0.363223    0.368958    0.370242
     0.384068    0.384750    0.469892    0.470383    0.475458    0.477427
     0.515954    0.537332    0.935327    0.942781    0.951833    1.022753
     1.022753    1.022753    1.022753    1.022753    1.022753    1.022753
     1.022753    1.022753    1.716956

 Minimum Search - Taking P-RFO Step
 Searching for Lamda that Maximizes Along the Constraint modes Only
 Value Taken    Lamda =   0.98318753


 ********************************************
 ** ERROR IN DETERMINING Lamda IN CONFormD **
 ********************************************



 New Cartesian Coordinates Obtained by Inverse Iteration

 Displacement from previous Coordinates is:  0.000000
 Adding empirical dispersion correction 
 ----------------------------------------------------------------
 Doing -D3(op) with
 s6 =   1.00000
 s8 =   0.78311
 a1 =   0.30000
 a2 =   4.25000
 n  =  10.00000
 -D3 energy without 3body term =     -0.0865988358 hartrees
 ----------------------------------------------------------------
             Standard Nuclear Orientation (Angstroms)
    I     Atom           X                Y                Z
 ----------------------------------------------------------------
    1      O       0.5207512354     0.2223993408     0.2059029605
    2      C      -0.6512585095     0.2612555526    -0.1403477997
    3      C      -1.8412923883     0.0812669626     0.7761762137
    4      C      -3.2001262596     0.5947352481     0.2724206265
    5      C      -3.2516472228     1.0697508182    -1.1627803049
    6      O      -1.9873546745     1.1363465230    -1.6751616690
    7      C      -0.9685257964     0.9584708609    -0.6854035564
    8      C      -0.0276336601     2.1587971026    -0.6779788836
    9      O       1.3221242076     1.7212534321    -0.4552751804
   10      C       1.8621956544     0.9689618571    -1.4459948549
   11      C       2.7388361648    -0.1458373528    -0.9269733357
   12      C       3.0396000281    -0.0856850933     0.5777479942
   13      C       2.1568740470     0.8390697252     1.3915881323
   14      O       2.0075859149     0.7911555231     2.6040061348
   15      O      -0.6859131324    -1.1654099015    -0.8254848263
   16      O       2.7088545749     2.1010699647     1.1934104634
   17      O       1.6238065299     1.1210632930    -2.6371198046
   18      C       2.3626712223     3.2845966931     1.8320868730
   19      C       2.3168140218    -1.6169758249    -1.1069251173
   20      C       3.5594513221    -2.5117501366    -1.0881281310
   21      C       3.9281285846    -2.4533800403     0.3844801093
   22      C       2.7901823325    -1.5784487341     0.9234305179
   23      O       1.7051956330    -1.9561983763     0.1132644688
   24      H       3.6896141641     0.0096751580    -1.4853670007
   25      H       4.0992800078     0.1584110834     0.8245521444
   26      H       1.7300113777    -1.7879642465    -2.0324228427
   27      H       3.2373351138    -3.5494269893    -1.3311818046
   28      H       4.3638382427    -2.2043499390    -1.7907351950
   29      H       3.8400477673    -3.4791105782     0.8073860790
   30      H       4.9351361647    -2.0406904505     0.6096267029
   31      H       2.6616128708    -1.7423965338     2.0154068024
   32      O      -4.2540440947     1.3863163493    -1.7828526724
   33      C      -1.0943056905    -1.5410277774    -2.0972942873
   34      C      -2.2468556188    -1.3630655531     1.1947971262
   35      C      -3.0866752713    -1.3524273462     2.4756116347
   36      C      -4.4104227444    -0.8538232216     1.9390336286
   37      C      -4.0628819887    -0.6698112009     0.4619911664
   38      O      -3.1786521445    -1.7336870422     0.2092501403
   39      H      -1.5601671822     0.6009871114     1.7294852256
   40      H      -3.6016344799     1.4342133249     0.8837469180
   41      H      -0.9642244725    -2.6370616977    -2.2033668741
   42      H      -1.3721165015    -2.0356461264     1.3355860927
   43      H      -3.2215773647    -2.4018472536     2.8217527733
   44      H      -2.6441885753    -0.7457691698     3.2943882939
   45      H      -5.1576156803    -1.6744502420     2.0270525208
   46      H      -4.8065568979     0.0645780667     2.4234448844
   47      H      -4.9925012963    -0.6525626675    -0.1481534895
   48      H      -0.4669989406    -1.0469512326    -2.8670226791
   49      H      -2.1625833417    -1.3024350223    -2.2588857555
   50      H       2.0858234396     4.0402528114     1.0683079839
   51      H       3.2332378991     3.6612957342     2.4056235556
   52      H       1.4971356938     3.1554586139     2.5170844575
   53      H      -0.0582124648     2.8891119567    -1.5494728884
   54      H       0.0068250110     2.9024851905     0.2174945083
   55      H      -0.5679491592     1.0226833981    -1.9837225044
   56      H      -1.5411731540     2.0990016179    -0.3153545399
 ----------------------------------------------------------------
 Molecular Point Group                 C1    NOp =  1
 Largest Abelian Subgroup              C1    NOp =  1
 Nuclear Repulsion Energy =  3666.1340711812 hartrees
 There are      113 alpha and      113 beta electrons


 *******************************************
 **  MAXIMUM OPTIMIZATION CYCLES REACHED  **
 *******************************************

 Q-Chem fatal error occurred in module 0, line  456, PE  0:

 Maximum optimization cycles reached

