mFile = /opt/software/qchem/qchem-5.0.1//bin/mpi/machines
Process 0 of 1 is on vega02.cac.cornell.edu - thread support 0
initial socket setup ...start
initial socket setup ...done 
now start server 0 ... 
vega02.cac.cornell.edu 10.84.3
Q-Chem Developer Version! Running on 10.84.3.*
                  Welcome to Q-Chem
     A Quantum Leap Into The Future Of Chemistry


 Q-Chem 5.0, Q-Chem, Inc., Pleasanton, CA (2017)

 Yihan Shao,  Zhengting Gan,  E. Epifanovsky,  A. T. B. Gilbert,  M. Wormit,  
 J. Kussmann,  A. W. Lange,  A. Behn,  Jia Deng,  Xintian Feng,  D. Ghosh,  
 M. Goldey,  P. R. Horn,  L. D. Jacobson,  I. Kaliman,  T. Kus,  A. Landau,  
 Jie Liu,  E. I. Proynov,  R. M. Richard,  R. P. Steele,  E. J. Sundstrom,  
 H. L. Woodcock III,  P. M. Zimmerman,  D. Zuev,  B. Albrecht,  E. Alguire,  
 S. A. Baeppler,  Z. Benda,  Y. A. Bernard,  E. J. Berquist,  K. B. Bravaya,  
 D. Casanova,  Chun-Min Chang,  Yunqing Chen,  A. Chien,  K. D. Closser,  
 M. P. Coons,  S. Dasgupta,  M. Diedenhofen,  Hainam Do,  R. G. Edgar,  
 Po-Tung Fang,  S. Fatehi,  Qingguo Feng,  Qinghui Ge,  A. Ghysels,  
 J. Gomes,  J. Gonthier,  A. Gunina,  M. W. D. Hanson-Heine,  
 P. H. P. Harbach,  A. W. Hauser,  J. E. Herr,  E. G. Hohenstein,  
 Z. C. Holden,  Kerwin Hui,  T.-C. Jagau,  Hyunjun Ji,  B. Kaduk,  
 K. Khistyaev,  Jaehoon Kim,  P. Klunzinger,  K. Koh,  D. Kosenkov,  
 T. Kowalczyk,  C. M. Krauter,  A. Kunitsa,  Ka Un Lao,  A. Laurent,  
 K. V. Lawler,  Joonho Lee,  D. Lefrancois,  S. Lehtola,  D. S. Levine,  
 Yi-Pei Li,  You-Sheng Lin,  Fenglai Liu,  E. Livshits,  A. Luenser,  
 P. Manohar,  E. Mansoor,  S. F. Manzer,  Shan-Ping Mao,  Yuezhi Mao,  
 N. Mardirossian,  A. V. Marenich,  L. A. Martinez-Martinez,  S. A. Maurer,  
 N. J. Mayhall,  S. C. McKenzie,  J.-M. Mewes,  A. F. Morrison,  K. Nanda,  
 T. S. Nguyen-Beck,  R. Olivares-Amaya,  J. A. Parkhill,  T. M. Perrine,  
 F. Plasser,  S. Prager,  A. Prociuk,  D. R. Rehn,  F. Rob,  M. Schneider,  
 N. Sergueev,  S. M. Sharada,  S. Sharma,  D. W. Small,  T. Stauch,  
 T. Stein,  Yu-Chuan Su,  A. J. W. Thom,  T. Tsuchimochi,  L. Vogt,  
 O. Vydrov,  M. A. Watson,  J. Wenzel,  M. de Wergifosse,  T. A. Wesolowski,  
 A. White,  J. Witte,  A. Yamada,  Jun Yang,  K. Yao,  S. Yeganeh,  
 S. R. Yost,  Zhi-Qiang You,  A. Zech,  Igor Ying Zhang,  Xing Zhang,  
 Yan Zhao,  Ying Zhu,  B. R. Brooks,  G. K. L. Chan,  C. J. Cramer,  
 M. S. Gordon,  W. J. Hehre,  A. Klamt,  M. W. Schmidt,  C. D. Sherrill,  
 D. G. Truhlar,  A. Aspuru-Guzik,  R. Baer,  A. T. Bell,  N. A. Besley,  
 Jeng-Da Chai,  A. Dreuw,  B. D. Dunietz,  T. R. Furlani,  Chao-Ping Hsu,  
 Yousung Jung,  Jing Kong,  D. S. Lambrecht,  WanZhen Liang,  C. Ochsenfeld,  
 V. A. Rassolov,  L. V. Slipchenko,  J. E. Subotnik,  T. Van Voorhis,  
 J. M. Herbert,  A. I. Krylov,  P. M. W. Gill,  M. Head-Gordon

 Contributors to earlier versions of Q-Chem not listed above: 
 R. D. Adamson,  B. Austin,  J. Baker,  G. J. O. Beran,  K. Brandhorst,  
 S. T. Brown,  E. F. C. Byrd,  A. K. Chakraborty,  C.-L. Cheng,  
 Siu Hung Chien,  D. M. Chipman,  D. L. Crittenden,  H. Dachsel,  
 R. A. DiStasio Jr.,  R. J. Doerksen,  A. D. Dutoi,  L. Fusti-Molnar,  
 W. A. Goddard III,  A. Golubeva-Zadorozhnaya,  S. R. Gwaltney,  G. Hawkins,  
 A. Heyden,  S. Hirata,  G. Kedziora,  F. J. Keil,  C. Kelley,  Jihan Kim,  
 R. A. King,  R. Z. Khaliullin,  P. P. Korambath,  W. Kurlancheek,  
 A. M. Lee,  M. S. Lee,  S. V. Levchenko,  Ching Yeh Lin,  D. Liotard,  
 R. C. Lochan,  I. Lotan,  P. E. Maslen,  N. Nair,  D. P. O'Neill,  
 D. Neuhauser,  E. Neuscamman,  C. M. Oana,  R. Olson,  B. Peters,  
 R. Peverati,  P. A. Pieniazek,  Y. M. Rhee,  J. Ritchie,  M. A. Rohrdanz,  
 E. Rosta,  N. J. Russ,  H. F. Schaefer III,  N. E. Schultz,  N. Shenvi,  
 A. C. Simmonett,  A. Sodt,  D. Stuck,  K. S. Thanthiriwatte,  V. Vanovschi,  
 Tao Wang,  A. Warshel,  C. F. Williams,  Q. Wu,  X. Xu,  W. Zhang

 Please cite Q-Chem as follows:
 Y. Shao et al., Mol. Phys. 113, 184-215 (2015)
 DOI: 10.1080/00268976.2014.952696

 Q-Chem 5.0.1 for Intel X86 EM64T Linux

 Parts of Q-Chem use Armadillo 5.200.1 (Boston Tea Smuggler).
 http://arma.sourceforge.net/

 Q-Chem begins on Sat Jan 13 13:57:41 2018  

Host: vega02.cac.cornell.edu
0

     Scratch files written to /scratch/jj585/SOT1001/0098c.save//
 Parallel job on  1  processors

Checking the input file for inconsistencies... 	...done.

--------------------------------------------------------------
User input:
--------------------------------------------------------------
$molecule
0  1
O -3.94934 -3.66094 2.70899
C -3.26408 -4.56952 2.26188
C -3.36658 -6.02376 2.66595
C -2.63225 -7.05037 1.78806
C -1.73188 -6.49278 0.70801
O -2.3876 -5.51421 0.01673
C -1.50385 -4.61515 -0.66146
C -1.11985 -5.18332 -2.02376
O -2.12207 -6.11177 -2.46695
C -1.81575 -7.42268 -2.30313
C -1.39415 -8.0935 -3.58878
C -0.2277 -7.41421 -4.32108
C 0.56469 -6.40786 -3.51109
O 1.76677 -6.461 -3.29487
O -1.97231 -4.17447 2.06135
O 0.29763 -5.2057 -4.12784
O -2.44838 -8.07757 -1.4897
C 1.09752 -4.06617 -4.18639
C -0.80491 -9.51163 -3.40059
C -0.9818 -10.30896 -4.69107
C 0.00774 -9.60367 -5.59521
C 0.66095 -8.64396 -4.59153
O 0.58932 -9.32649 -3.36407
H -2.31 -8.17114 -4.21854
H -0.59505 -6.95388 -5.2696
H -1.24419 -10.07214 -2.5472
H -0.60497 -11.33697 -4.48541
H -2.01927 -10.37467 -5.08354
H 0.7385 -10.35531 -5.96819
H -0.43964 -9.04943 -6.44845
H 1.67985 -8.36537 -4.93999
O -0.52391 -6.69821 0.64882
C -1.51392 -2.86829 2.11173
C -2.69823 -6.2994 4.02766
C -3.30155 -7.55285 4.6584
C -2.71524 -8.6276 3.7666
C -1.80899 -7.77995 2.86657
O -1.39653 -6.72384 3.69975
H -4.45492 -6.2487 2.73322
H -3.34998 -7.72365 1.26948
H -1.69114 -2.43738 3.12017
H -2.77095 -5.44105 4.73127
H -2.857 -7.65497 5.6744
H -4.40968 -7.55553 4.74121
H -2.10585 -9.31254 4.3973
H -3.45444 -9.21138 3.1764
H -1.00203 -8.41272 2.43655
H -2.02799 -2.25197 1.34364
H -0.4225 -2.85446 1.91483
H 0.5386 -3.18868 -3.80352
H 1.36381 -3.86682 -5.24432
H 2.03238 -4.15618 -3.59428
H -1.04067 -4.28848 -2.66341
H -0.22679 -5.6741 -1.59048
H -0.65438 -4.20879 -0.06602
H -2.15314 -3.73805 -0.87825
$end

$opt
CONSTRAINT
tors           1           2           3           4    +167.493
tors           3           4           5           6     -47.368
tors           4           5           6           7    +158.333
tors           5           6           7           8     +85.263
tors           6           7           8           9     +23.719
tors           7           8           9          10    -101.041
tors           8           9          10          11    -103.033
tors           9          10          11          12     +55.099
tors          11          12          13          14    +122.179
ENDCONSTRAINT
$end

$rem
JOBTYPE                   OPT
METHOD                    B3LYP
DFT_D                     d3_op
BASIS                     STO-3G
GEOM_OPT_MAX_CYCLES       100
GEOM_OPT_TOL_GRADIENT     300
GEOM_OPT_TOL_DISPLACEMENT 1200
GEOM_OPT_TOL_ENERGY       100
SYMMETRY                  False
THRESH                    12
SCF_CONVERGENCE           8
MAX_SUB_FILE_NUM          128
MEM_STATIC                400
MEM_TOTAL                 4000
$end
--------------------------------------------------------------
 Adding empirical dispersion correction 
 ----------------------------------------------------------------
 Doing -D3(op) with
 s6 =   1.00000
 s8 =   0.78311
 a1 =   0.30000
 a2 =   4.25000
 n  =  10.00000
 -D3 energy without 3body term =     -0.0749987106 hartrees
 ----------------------------------------------------------------
             Standard Nuclear Orientation (Angstroms)
    I     Atom           X                Y                Z
 ----------------------------------------------------------------
    1      O       4.6778114230    -1.7206372576    -1.4900985331
    2      C       3.8173409295    -1.0614993601    -0.9242946820
    3      C       3.8590808603     0.4359709059    -0.7135024305
    4      C       2.5612230529     1.1165028829    -0.2484208967
    5      C       1.4161976700     0.2013032567     0.1249519253
    6      O       1.2488064680    -0.7500834351    -0.8405943190
    7      C       0.5593372256    -1.9135299050    -0.3712446648
    8      C      -0.9485505487    -1.7014709576    -0.4574995293
    9      O      -1.2466273432    -0.7033149006    -1.4462949670
   10      C      -1.5244815584     0.5325556834    -0.9619656393
   11      C      -3.0006309549     0.8511071953    -0.9742068964
   12      C      -3.8881570827    -0.1646131980    -0.2400997845
   13      C      -3.1671079379    -1.1274440999     0.6817195144
   14      O      -3.3852058619    -1.2619630931     1.8770894197
   15      O       3.3012093742    -1.7248047317     0.1520791926
   16      O      -3.3412110513    -2.3532672907     0.0784485285
   17      O      -0.7354676695     1.4394543639    -1.1758858588
   18      C      -3.3796008518    -3.6130461031     0.6728089433
   19      C      -3.3773801986     2.1414066913    -0.2081134500
   20      C      -4.6892976176     2.6940260802    -0.7611490077
   21      C      -5.6675675256     1.6536286173    -0.2565168232
   22      C      -4.7354140071     0.7993351302     0.6131800127
   23      O      -3.7641159344     1.7065014605     1.0728161866
   24      H      -3.2866270276     0.9777667132    -2.0435854367
   25      H      -4.5141220752    -0.7210816230    -0.9783752357
   26      H      -2.5932548520     2.9285600774    -0.2389332187
   27      H      -4.8826257147     3.6522227797    -0.2267476824
   28      H      -4.7159046697     2.8779043372    -1.8566741591
   29      H      -6.4369708263     2.1673261060     0.3617229350
   30      H      -6.1568963345     1.0402236205    -1.0436895909
   31      H      -5.3237512780     0.2712773787     1.3956173818
   32      O       0.9079596014     0.1592591296     1.2406682060
   33      C       3.5172271599    -3.0594823363     0.4533062446
   34      C       4.8059869082     0.8372676007     0.4350850305
   35      C       5.2708902879     2.2797749236     0.2453421952
   36      C       3.9979151542     3.0319736513     0.5738016316
   37      C       3.0864486614     1.8710440212     0.9877156471
   38      O       3.9678315869     0.9366181524     1.5619045799
   39      H       4.2281664320     0.8713412309    -1.6694499881
   40      H       2.1627064742     1.8006382689    -1.0297728261
   41      H       4.6002357216    -3.2466407486     0.6148790587
   42      H       5.6826642503     0.1600591311     0.5348120554
   43      H       6.0211074592     2.4897285490     1.0412083070
   44      H       5.7157392705     2.5078717806    -0.7470780696
   45      H       4.1983753518     3.6977235966     1.4426365902
   46      H       3.5635909228     3.6201967197    -0.2634007646
   47      H       2.2691387263     2.2448867456     1.6425023317
   48      H       3.1429858242    -3.7036494928    -0.3707524017
   49      H       2.9769605665    -3.3171305350     1.3870556269
   50      H      -2.6274573329    -4.2785146817     0.2033396673
   51      H      -4.3813578543    -4.0591284514     0.5074000013
   52      H      -3.1756973832    -3.5891261297     1.7639141088
   53      H      -1.3352260057    -2.7012730606    -0.7164166324
   54      H      -0.9743400722    -1.3143461552     0.5796224588
   55      H       0.9176692178    -2.3507637190     0.5888080938
   56      H       0.7962087036    -2.6770357011    -1.1450861346
 ----------------------------------------------------------------
 Molecular Point Group                 C1    NOp =  1
 Largest Abelian Subgroup              C1    NOp =  1
 Nuclear Repulsion Energy =  3330.4202133134 hartrees
 There are      113 alpha and      113 beta electrons
 Requested basis set is STO-3G
 There are 86 shells and 176 basis functions

 Total QAlloc Memory Limit   4000 MB
 Mega-Array Size       392 MB
 MEM_STATIC part       400 MB
 A cutoff of  1.0D-12 yielded   2295 shell pairs
 There are     11037 function pairs
 
 -------------------------------------------------------
 OpenMP Integral Computing Module                       
 Release: version 1.0, May 2013, Q-Chem Inc. Pittsburgh 
 -------------------------------------------------------
 Integral Job Info:
 Integral job number is                      11
 Integral operator is                         1
 short-range coefficients                     0
 long-range coefficients              100000000
 Omega coefficients                           0
 if combine SR and LR in K                    0
 Integral screening is                        0
 Integral computing path is                   2
 max size of driver memory is            800000
 size of driver memory is                 45569
 size of scratch memory is              1046100
 max col of scratch BK array                289
 max len of scratch array in speh3           22
 max len of scratch index in speh4            8
 max int batch size is                      520
 min int batch size is                       52
 fixed nKL is                                52
 max L of basis functions is                  1
 order of int derivative is                   0
 number of shells is                         86
 number of basis is                         176
 number of cartesian basis is               176
 number of contracted shell pairs          2295
 number of primitive shell pairs          11797
 maxK2 (contraction) of shell pair            9
 max number of K2 of shell pair               1
 max number of CS2 of shell pair            317
 max number of PS2 of shell pair           1362
 mem total for path MDJ                   58218
 -------------------------------------------------------
 Smallest overlap matrix eigenvalue = 1.93E-01

 Scale SEOQF with 1.000000e-02/1.000000e-01/1.000000e-01

 Standard Electronic Orientation quadrupole field applied
 Nucleus-field energy     =     0.0000000428 hartrees
 Guess from superposition of atomic densities
 Warning:  Energy on first SCF cycle will be non-variational
 A restricted hybrid HF-DFT SCF calculation will be
 performed using Pulay DIIS extrapolation
 Exchange:     0.2000 Hartree-Fock + 0.0800 Slater + 0.7200 B88
 Correlation:  0.1900 VWN1RPA + 0.8100 LYP
 Using SG-1 standard quadrature grid
 Dispersion:   Grimme D3
 SCF converges when DIIS error is below 1.0E-08
 using 48 threads for integral computing
 -------------------------------------------------------
 OpenMP Integral computing Module                
 Release: version 1.0, May 2013, Q-Chem Inc. Pittsburgh 
 -------------------------------------------------------
 -------------------------------------------------------
 OpenMP BLAS3 based DFT computing Module                
 Release: version 1.0, May 2013, Q-Chem Inc. Pittsburgh 
 -------------------------------------------------------
 ---------------------------------------
  Cycle       Energy         DIIS Error
 ---------------------------------------
    1   -1509.4639200317      8.29E-02
    2   -1509.4518596388      1.06E-02
    3   -1507.2565160087      2.61E-02
    4   -1509.9270102523      4.34E-03
    5   -1510.0010700841      1.57E-03
    6   -1510.0095085211      8.06E-04
    7   -1510.0123722339      1.60E-04
    8   -1510.0124733836      5.11E-05
    9   -1510.0124790645      3.63E-05
   10   -1510.0124846832      4.98E-06
   11   -1510.0124847916      1.57E-06
   12   -1510.0124848003      7.78E-07
   13   -1510.0124848029      1.94E-07
   14   -1510.0124848031      4.51E-08
   15   -1510.0124848031      1.18E-08
   16   -1510.0124848032      3.57E-09 Convergence criterion met
 ---------------------------------------
 SCF time:  CPU 124.01 s  wall 2.66 s
 SCF   energy in the final basis set = -1510.01248480
 Total energy in the final basis set = -1510.01248480
 
 --------------------------------------------------------------
 
                    Orbital Energies (a.u.)
 --------------------------------------------------------------
 
 Alpha MOs
 -- Occupied --
-18.939 -18.931 -18.911 -18.906 -18.899 -18.898 -18.894 -18.869
-18.860 -18.849 -10.125 -10.113 -10.105 -10.104 -10.079 -10.075
-10.075 -10.070 -10.067 -10.067 -10.065 -10.060 -10.046 -10.039
-10.036 -10.028 -10.019 -10.016 -10.014 -10.011  -1.056  -1.047
 -1.042  -1.030  -1.025  -1.019  -0.968  -0.946  -0.938  -0.932
 -0.786  -0.779  -0.748  -0.743  -0.732  -0.722  -0.716  -0.682
 -0.673  -0.627  -0.609  -0.591  -0.565  -0.550  -0.539  -0.532
 -0.525  -0.519  -0.510  -0.490  -0.485  -0.478  -0.469  -0.459
 -0.452  -0.443  -0.439  -0.435  -0.427  -0.421  -0.417  -0.411
 -0.405  -0.395  -0.386  -0.382  -0.376  -0.372  -0.364  -0.358
 -0.353  -0.351  -0.349  -0.339  -0.333  -0.330  -0.322  -0.320
 -0.310  -0.308  -0.303  -0.302  -0.298  -0.289  -0.283  -0.278
 -0.269  -0.246  -0.239  -0.236  -0.231  -0.221  -0.217  -0.185
 -0.173  -0.166  -0.159  -0.156  -0.152  -0.149  -0.145  -0.138
 -0.130
 -- Virtual --
  0.055   0.071   0.094   0.119   0.237   0.249   0.263   0.296
  0.298   0.307   0.324   0.328   0.329   0.334   0.342   0.347
  0.353   0.365   0.370   0.385   0.387   0.391   0.393   0.398
  0.401   0.404   0.407   0.413   0.415   0.420   0.424   0.428
  0.429   0.436   0.440   0.445   0.446   0.450   0.456   0.466
  0.469   0.470   0.473   0.479   0.485   0.491   0.494   0.498
  0.501   0.511   0.518   0.524   0.537   0.545   0.551   0.570
  0.570   0.583   0.588   0.648   0.679   0.681   0.698
 --------------------------------------------------------------
 
          Ground-State Mulliken Net Atomic Charges

     Atom                 Charge (a.u.)
  ----------------------------------------
      1 O                    -0.236748
      2 C                     0.236694
      3 C                    -0.077655
      4 C                    -0.082669
      5 C                     0.242084
      6 O                    -0.182103
      7 C                    -0.037736
      8 C                    -0.045694
      9 O                    -0.203841
     10 C                     0.246069
     11 C                    -0.085236
     12 C                    -0.073499
     13 C                     0.222348
     14 O                    -0.216813
     15 O                    -0.218592
     16 O                    -0.218298
     17 O                    -0.193687
     18 C                    -0.109830
     19 C                     0.036517
     20 C                    -0.142074
     21 C                    -0.144511
     22 C                     0.041682
     23 O                    -0.210094
     24 H                     0.089871
     25 H                     0.095748
     26 H                     0.089696
     27 H                     0.075463
     28 H                     0.071796
     29 H                     0.077669
     30 H                     0.071141
     31 H                     0.088579
     32 O                    -0.233241
     33 C                    -0.098721
     34 C                     0.040779
     35 C                    -0.141663
     36 C                    -0.143896
     37 C                     0.040204
     38 O                    -0.208455
     39 H                     0.088819
     40 H                     0.089810
     41 H                     0.085692
     42 H                     0.084778
     43 H                     0.075780
     44 H                     0.073311
     45 H                     0.074987
     46 H                     0.072531
     47 H                     0.091801
     48 H                     0.082315
     49 H                     0.089718
     50 H                     0.076944
     51 H                     0.087454
     52 H                     0.091357
     53 H                     0.104149
     54 H                     0.104514
     55 H                     0.090620
     56 H                     0.074131
  ----------------------------------------
  Sum of atomic charges =    -0.000000

 -----------------------------------------------------------------
                    Cartesian Multipole Moments
 -----------------------------------------------------------------
    Charge (ESU x 10^10)
                -0.0000
    Dipole Moment (Debye)
         X      -2.0594      Y      -0.9943      Z      -1.6090
       Tot       2.7962
    Quadrupole Moments (Debye-Ang)
        XX    -151.3094     XY       6.6619     YY    -146.1431
        XZ       8.8759     YZ      -6.1110     ZZ    -171.4815
    Octopole Moments (Debye-Ang^2)
       XXX     -64.2403    XXY      27.0631    XYY      -2.0055
       YYY     -61.6146    XXZ      -2.3344    XYZ      -9.2352
       YYZ      13.3600    XZZ      -3.9474    YZZ      -1.1313
       ZZZ      -8.7000
    Hexadecapole Moments (Debye-Ang^3)
      XXXX  -11658.8901   XXXY     137.9683   XXYY   -2465.2086
      XYYY      19.1588   YYYY   -3234.7848   XXXZ     146.3889
      XXYZ    -103.6435   XYYZ      23.3214   YYYZ      -4.3915
      XXZZ   -2253.0363   XYZZ      11.5921   YYZZ    -711.3716
      XZZZ       1.6387   YZZZ      -2.6710   ZZZZ    -899.9240
 -----------------------------------------------------------------
 Calculating analytic gradient of the SCF energy
 Gradient of SCF Energy
            1           2           3           4           5           6
    1  -0.0534804  -0.0348405   0.0127394   0.0154414  -0.0261739  -0.0119346
    2   0.0244055   0.0259692  -0.0159049  -0.0409796  -0.0018635   0.0063421
    3   0.0846874  -0.0323876   0.0494107   0.0409735  -0.0213148   0.0460170
            7           8           9          10          11          12
    1  -0.0341312  -0.0355995  -0.0060133   0.0253946   0.0243584   0.0129560
    2   0.0526685   0.0007634   0.0737189  -0.0313898  -0.0052143  -0.0114253
    3   0.0442523  -0.0341287   0.0283705   0.0209230   0.0096214   0.0512175
           13          14          15          16          17          18
    1   0.0721498  -0.0230025   0.0873518  -0.0005454  -0.0592697  -0.0079303
    2   0.0542940  -0.0481903  -0.0693977   0.0199813  -0.0559653   0.0243707
    3  -0.0149143  -0.1142763  -0.0777991   0.1325780  -0.0103465  -0.0382326
           19          20          21          22          23          24
    1  -0.0390429   0.0103375   0.0451272   0.0519806  -0.0288945  -0.0024329
    2  -0.0444065  -0.0449380   0.0060633   0.0431164  -0.0206172   0.0063668
    3   0.0408498   0.0265650   0.0112805  -0.0235196  -0.0795395  -0.0055533
           25          26          27          28          29          30
    1  -0.0087869  -0.0042848  -0.0014629  -0.0022435  -0.0015178  -0.0010873
    2   0.0028677   0.0078634   0.0044223   0.0021527   0.0129573  -0.0075850
    3  -0.0109125  -0.0104761   0.0105062  -0.0077675   0.0043453  -0.0042675
           31          32          33          34          35          36
    1  -0.0122073   0.0344229  -0.0216913  -0.0585655  -0.0469751   0.0088410
    2  -0.0040636   0.0015431   0.0439875   0.0300739  -0.0196390  -0.0479268
    3  -0.0064050  -0.0433031   0.0136285   0.0219375   0.0124840   0.0030879
           37          38          39          40          41          42
    1   0.0585598  -0.0035250   0.0044511  -0.0058770  -0.0025510   0.0087897
    2  -0.0432922   0.0405967   0.0023783  -0.0000597   0.0080337   0.0040940
    3  -0.0090553  -0.0767627  -0.0050566  -0.0027928   0.0017684  -0.0086388
           43          44          45          46          47          48
    1   0.0007965   0.0034703   0.0092325  -0.0055299  -0.0032270  -0.0039165
    2   0.0013077   0.0029298   0.0011684   0.0023779   0.0136422   0.0089522
    3   0.0114245  -0.0068944   0.0088080  -0.0064717  -0.0054304  -0.0015206
           49          50          51          52          53          54
    1   0.0015812  -0.0021609   0.0020370   0.0016703   0.0177362   0.0423596
    2  -0.0041397   0.0023710   0.0010230   0.0000337  -0.0068228   0.0044712
    3   0.0006267   0.0017605  -0.0007004  -0.0030489  -0.0084576  -0.0033514
           55          56
    1   0.0059710  -0.0088545
    2  -0.0130899  -0.0003966
    3  -0.0023646  -0.0014338
 Max gradient component =       1.326E-01
 RMS gradient           =       3.178E-02
 Gradient time:  CPU 33.04 s  wall 0.71 s
 Geometry Optimization Parameters
   NAtoms,    NIC,     NZ,  NCons,   NDum,   NFix, NCnnct, MaxDiis
       56     458       0       9       0       0       0       0


** CONSTRAINED OPTIMIZATION IN DELOCALIZED INTERNAL COORDINATES **
   Searching for a Minimum

   Optimization Cycle:   1

                       Coordinates (Angstroms)
     ATOM                X               Y               Z
      1  O         4.6778114230   -1.7206372576   -1.4900985331
      2  C         3.8173409295   -1.0614993601   -0.9242946820
      3  C         3.8590808603    0.4359709059   -0.7135024305
      4  C         2.5612230529    1.1165028829   -0.2484208967
      5  C         1.4161976700    0.2013032567    0.1249519253
      6  O         1.2488064680   -0.7500834351   -0.8405943190
      7  C         0.5593372256   -1.9135299050   -0.3712446648
      8  C        -0.9485505487   -1.7014709576   -0.4574995293
      9  O        -1.2466273432   -0.7033149006   -1.4462949670
     10  C        -1.5244815584    0.5325556834   -0.9619656393
     11  C        -3.0006309549    0.8511071953   -0.9742068964
     12  C        -3.8881570827   -0.1646131980   -0.2400997845
     13  C        -3.1671079379   -1.1274440999    0.6817195144
     14  O        -3.3852058619   -1.2619630931    1.8770894197
     15  O         3.3012093742   -1.7248047317    0.1520791926
     16  O        -3.3412110513   -2.3532672907    0.0784485285
     17  O        -0.7354676695    1.4394543639   -1.1758858588
     18  C        -3.3796008518   -3.6130461031    0.6728089433
     19  C        -3.3773801986    2.1414066913   -0.2081134500
     20  C        -4.6892976176    2.6940260802   -0.7611490077
     21  C        -5.6675675256    1.6536286173   -0.2565168232
     22  C        -4.7354140071    0.7993351302    0.6131800127
     23  O        -3.7641159344    1.7065014605    1.0728161866
     24  H        -3.2866270276    0.9777667132   -2.0435854367
     25  H        -4.5141220752   -0.7210816230   -0.9783752357
     26  H        -2.5932548520    2.9285600774   -0.2389332187
     27  H        -4.8826257147    3.6522227797   -0.2267476824
     28  H        -4.7159046697    2.8779043372   -1.8566741591
     29  H        -6.4369708263    2.1673261060    0.3617229350
     30  H        -6.1568963345    1.0402236205   -1.0436895909
     31  H        -5.3237512780    0.2712773787    1.3956173818
     32  O         0.9079596014    0.1592591296    1.2406682060
     33  C         3.5172271599   -3.0594823363    0.4533062446
     34  C         4.8059869082    0.8372676007    0.4350850305
     35  C         5.2708902879    2.2797749236    0.2453421952
     36  C         3.9979151542    3.0319736513    0.5738016316
     37  C         3.0864486614    1.8710440212    0.9877156471
     38  O         3.9678315869    0.9366181524    1.5619045799
     39  H         4.2281664320    0.8713412309   -1.6694499881
     40  H         2.1627064742    1.8006382689   -1.0297728261
     41  H         4.6002357216   -3.2466407486    0.6148790587
     42  H         5.6826642503    0.1600591311    0.5348120554
     43  H         6.0211074592    2.4897285490    1.0412083070
     44  H         5.7157392705    2.5078717806   -0.7470780696
     45  H         4.1983753518    3.6977235966    1.4426365902
     46  H         3.5635909228    3.6201967197   -0.2634007646
     47  H         2.2691387263    2.2448867456    1.6425023317
     48  H         3.1429858242   -3.7036494928   -0.3707524017
     49  H         2.9769605665   -3.3171305350    1.3870556269
     50  H        -2.6274573329   -4.2785146817    0.2033396673
     51  H        -4.3813578543   -4.0591284514    0.5074000013
     52  H        -3.1756973832   -3.5891261297    1.7639141088
     53  H        -1.3352260057   -2.7012730606   -0.7164166324
     54  H        -0.9743400722   -1.3143461552    0.5796224588
     55  H         0.9176692178   -2.3507637190    0.5888080938
     56  H         0.7962087036   -2.6770357011   -1.1450861346
   Point Group: c1    Number of degrees of freedom:   162


   Energy is  -1510.012484803

              Constraints and their Current Values
                                        Value     Constraint
   Dihedral:        1   2   3   4      167.493      167.493
   Dihedral:        3   4   5   6      -47.369      -47.368
   Dihedral:        4   5   6   7      158.333      158.333
   Dihedral:        5   6   7   8       85.263       85.263
   Dihedral:        6   7   8   9       23.718       23.719
   Dihedral:        7   8   9  10     -101.041     -101.041
   Dihedral:        8   9  10  11     -103.033     -103.033
   Dihedral:        9  10  11  12       55.099       55.099
   Dihedral:       11  12  13  14      122.179      122.179

 Attempting to Generate Delocalized Internal Coordinates

   Using Lagrange Multiplier Algorithm


171 Hessian modes will be used to form the next step
  Hessian Eigenvalues:
    -0.977753   -0.977753   -0.977753   -0.977753   -0.977753   -0.977753
    -0.977753   -0.977753   -0.977753    0.045000    0.045000    0.045000
     0.045000    0.045571    0.045617    0.045873    0.048863    0.048884
     0.050770    0.051166    0.054699    0.057839    0.060000    0.060018
     0.062711    0.063388    0.066985    0.067026    0.067999    0.068564
     0.071077    0.071355    0.073094    0.074237    0.075036    0.075876
     0.075957    0.077061    0.077194    0.082517    0.082571    0.083450
     0.083882    0.084228    0.084491    0.085610    0.085985    0.086246
     0.086639    0.086890    0.088483    0.088842    0.089066    0.089232
     0.089804    0.089940    0.093462    0.093752    0.093988    0.096602
     0.096727    0.110849    0.111561    0.111612    0.112080    0.114515
     0.115569    0.115738    0.116268    0.116989    0.117346    0.119057
     0.119316    0.123215    0.131041    0.131896    0.132448    0.139615
     0.140459    0.160000    0.160000    0.160000    0.160000    0.160000
     0.160000    0.171259    0.171939    0.172412    0.172827    0.205683
     0.215041    0.219794    0.226978    0.227684    0.239611    0.240062
     0.243873    0.250000    0.250000    0.250000    0.250000    0.250000
     0.250000    0.250000    0.250000    0.258197    0.258853    0.266746
     0.267417    0.279005    0.279009    0.281779    0.284229    0.295132
     0.295694    0.298743    0.308053    0.310698    0.310866    0.313324
     0.319229    0.321610    0.321671    0.321752    0.322123    0.322451
     0.323074    0.323165    0.323262    0.323504    0.323585    0.323620
     0.323913    0.324361    0.324426    0.324456    0.324709    0.324767
     0.325058    0.325076    0.325734    0.326928    0.327068    0.327499
     0.328857    0.333747    0.368083    0.369116    0.383110    0.384246
     0.401010    0.407709    0.467187    0.481647    0.496035    0.517904
     0.518255    0.537326    0.924573    0.941950    0.942725    0.949544
     1.022753    1.022753    1.022753    1.022753    1.022753    1.022753
     1.022753    1.022753    1.022753

 Minimum Search - Taking P-RFO Step
 Searching for Lamda that Maximizes Along the Constraint modes Only
 Value Taken    Lamda =   0.00950912
 Searching for Lamda that Minimizes Along All other modes
 Value Taken    Lamda =  -0.26708705
 Calculated Step too Large.  Step scaled by  0.434344
 Step Taken.  Stepsize is  0.300000

                             Maximum     Tolerance    Cnvgd?
         Gradient            0.128467       0.000300      NO
         Displacement        0.101467       0.001200      NO
         Energy change     *********       0.000001      NO


 New Cartesian Coordinates Obtained by Inverse Iteration

 Displacement from previous Coordinates is:  2.962964
 Adding empirical dispersion correction 
 ----------------------------------------------------------------
 Doing -D3(op) with
 s6 =   1.00000
 s8 =   0.78311
 a1 =   0.30000
 a2 =   4.25000
 n  =  10.00000
 -D3 energy without 3body term =     -0.0728858274 hartrees
 ----------------------------------------------------------------
             Standard Nuclear Orientation (Angstroms)
    I     Atom           X                Y                Z
 ----------------------------------------------------------------
    1      O       4.8940588897    -1.6127781990    -1.5502287709
    2      C       3.9812005242    -1.0144080780    -0.9622029968
    3      C       3.9353379728     0.4947903121    -0.7355444050
    4      C       2.5984127482     1.1190320597    -0.2469898017
    5      C       1.4743173542     0.1454767608     0.1146925379
    6      O       1.3306978426    -0.8070696360    -0.8777036311
    7      C       0.6780735752    -2.0076276654    -0.4123173049
    8      C      -0.8662648926    -1.8575836469    -0.4792481405
    9      O      -1.2058816452    -0.8535669554    -1.4605013774
   10      C      -1.5374219624     0.4065044543    -0.9949092297
   11      C      -3.0375597835     0.7667926314    -0.9784138757
   12      C      -4.0228311022    -0.1778692517    -0.2157738497
   13      C      -3.4177324358    -1.2074264521     0.7407675426
   14      O      -3.6802444119    -1.3030195433     1.9509050255
   15      O       3.4786236857    -1.6963709302     0.1337277012
   16      O      -3.6804758993    -2.4242819039     0.0959199630
   17      O      -0.7350359708     1.3193706904    -1.2181841677
   18      C      -3.8378950786    -3.6651505531     0.7394461689
   19      C      -3.3237592133     2.0998956107    -0.2127418559
   20      C      -4.6070510786     2.7474786564    -0.7716818256
   21      C      -5.6683793169     1.7818380754    -0.2510124564
   22      C      -4.7974372161     0.8613482091     0.6363641160
   23      O      -3.7397673217     1.7034999209     1.0959784548
   24      H      -3.3199945196     0.8945899000    -2.0458889185
   25      H      -4.6792748429    -0.6922871527    -0.9517308927
   26      H      -2.4844966392     2.8256494559    -0.2562398147
   27      H      -4.7267856081     3.7214531372    -0.2518290808
   28      H      -4.6213207724     2.9195973422    -1.8661749584
   29      H      -6.3966585746     2.3515304721     0.3613412378
   30      H      -6.2018556649     1.2024473353    -1.0310259129
   31      H      -5.4227543774     0.3873329179     1.4225692081
   32      O       0.9555489953     0.0636197741     1.2347791804
   33      C       3.7999906180    -3.0351651040     0.3999094503
   34      C       4.8763528288     0.9189772345     0.4312185260
   35      C       5.2780819205     2.3978665028     0.2572942070
   36      C       3.9605349738     3.0952259275     0.6043853831
   37      C       3.0941468476     1.8794257084     1.0117513610
   38      O       4.0282507783     0.9616069565     1.5788460769
   39      H       4.2802829779     0.9610451340    -1.6828413501
   40      H       2.1717663104     1.7979331907    -1.0157166372
   41      H       4.8948554961    -3.1549354619     0.5550038437
   42      H       5.7786190930     0.2770943873     0.5198940435
   43      H       6.0220812151     2.6305975325     1.0477700380
   44      H       5.7059990267     2.6565040461    -0.7315353697
   45      H       4.1300387926     3.7580503678     1.4774354197
   46      H       3.4993521836     3.6724112949    -0.2217836101
   47      H       2.2633010177     2.2016307551     1.6744159600
   48      H       3.4739855818    -3.6952380873    -0.4334445875
   49      H       3.2815885771    -3.3476172778     1.3289841536
   50      H      -3.1301004559    -4.4077363555     0.3155690044
   51      H      -4.8689717831    -4.0353213935     0.5617696556
   52      H      -3.6626335187    -3.6162443742     1.8357410783
   53      H      -1.2359296315    -2.8614752524    -0.7439416630
   54      H      -0.9456460297    -1.4798701742     0.5596807522
   55      H       1.0565646465    -2.4341466456     0.5425326401
   56      H       0.9478629876    -2.7518168451    -1.1944999936
 ----------------------------------------------------------------
 Molecular Point Group                 C1    NOp =  1
 Largest Abelian Subgroup              C1    NOp =  1
 Nuclear Repulsion Energy =  3268.1699426854 hartrees
 There are      113 alpha and      113 beta electrons
 Applying Cartesian multipole field
    Component          Value
    ---------          -----
     (2,0,0)        1.00000E-12
     (0,2,0)        2.00000E-11
     (0,0,2)       -3.00000E-11
 Nucleus-field energy     =     0.0000000439 hartrees
 Requested basis set is STO-3G
 There are 86 shells and 176 basis functions
 A cutoff of  1.0D-12 yielded   2247 shell pairs
 There are     10818 function pairs
 Smallest overlap matrix eigenvalue = 1.99E-01
 Guess MOs from SCF MO coefficient file
 Reading MOs from coefficient file
 Reading MOs from coefficient file
 A restricted hybrid HF-DFT SCF calculation will be
 performed using Pulay DIIS extrapolation
 Exchange:     0.2000 Hartree-Fock + 0.0800 Slater + 0.7200 B88
 Correlation:  0.1900 VWN1RPA + 0.8100 LYP
 Using SG-1 standard quadrature grid
 Dispersion:   Grimme D3
 SCF converges when DIIS error is below 1.0E-08
 Geometry optimization detected.  Setting ReadMinima to 0
 Setting SaveMinima to 0
 using 48 threads for integral computing
 -------------------------------------------------------
 OpenMP Integral computing Module                
 Release: version 1.0, May 2013, Q-Chem Inc. Pittsburgh 
 -------------------------------------------------------
 -------------------------------------------------------
 OpenMP BLAS3 based DFT computing Module                
 Release: version 1.0, May 2013, Q-Chem Inc. Pittsburgh 
 -------------------------------------------------------
 ---------------------------------------
  Cycle       Energy         DIIS Error
 ---------------------------------------
    1   -1509.9276841532      4.47E-03
    2   -1510.0938564615      7.76E-04
    3   -1510.0900938787      1.25E-03
    4   -1510.0964122986      3.20E-04
    5   -1510.0968664648      7.46E-05
    6   -1510.0968883546      3.41E-05
    7   -1510.0968927246      1.93E-05
    8   -1510.0968943953      4.04E-06
    9   -1510.0968944568      2.31E-06
   10   -1510.0968944804      6.77E-07
   11   -1510.0968944832      2.33E-07
   12   -1510.0968944836      6.80E-08
   13   -1510.0968944836      5.11E-08
   14   -1510.0968944837      1.32E-08
   15   -1510.0968944838      2.12E-09 Convergence criterion met
 ---------------------------------------
 SCF time:  CPU 111.31 s  wall 2.33 s
 SCF   energy in the final basis set = -1510.09689448
 Total energy in the final basis set = -1510.09689448
 
 --------------------------------------------------------------
 
                    Orbital Energies (a.u.)
 --------------------------------------------------------------
 
 Alpha MOs
 -- Occupied --
-18.936 -18.924 -18.916 -18.913 -18.898 -18.895 -18.893 -18.872
-18.860 -18.852 -10.120 -10.106 -10.101 -10.099 -10.080 -10.072
-10.072 -10.067 -10.066 -10.064 -10.063 -10.058 -10.047 -10.038
-10.038 -10.029 -10.019 -10.016 -10.014 -10.012  -1.040  -1.033
 -1.029  -1.019  -1.009  -1.004  -0.956  -0.938  -0.934  -0.929
 -0.777  -0.772  -0.740  -0.736  -0.724  -0.716  -0.711  -0.675
 -0.668  -0.623  -0.605  -0.588  -0.558  -0.546  -0.537  -0.531
 -0.522  -0.516  -0.503  -0.484  -0.478  -0.471  -0.464  -0.452
 -0.447  -0.438  -0.432  -0.428  -0.422  -0.419  -0.414  -0.408
 -0.403  -0.391  -0.382  -0.378  -0.369  -0.367  -0.362  -0.356
 -0.349  -0.349  -0.346  -0.338  -0.333  -0.330  -0.322  -0.314
 -0.308  -0.306  -0.301  -0.299  -0.296  -0.286  -0.281  -0.278
 -0.268  -0.244  -0.238  -0.233  -0.231  -0.226  -0.222  -0.182
 -0.168  -0.166  -0.160  -0.158  -0.151  -0.148  -0.145  -0.144
 -0.134
 -- Virtual --
  0.054   0.067   0.089   0.115   0.230   0.245   0.258   0.288
  0.292   0.297   0.311   0.317   0.324   0.330   0.336   0.347
  0.349   0.360   0.361   0.374   0.377   0.383   0.387   0.389
  0.397   0.399   0.402   0.409   0.413   0.416   0.417   0.420
  0.424   0.428   0.434   0.435   0.438   0.441   0.447   0.455
  0.460   0.465   0.467   0.469   0.478   0.483   0.486   0.488
  0.489   0.499   0.503   0.508   0.519   0.534   0.536   0.559
  0.561   0.566   0.573   0.623   0.646   0.657   0.678
 --------------------------------------------------------------
 
          Ground-State Mulliken Net Atomic Charges

     Atom                 Charge (a.u.)
  ----------------------------------------
      1 O                    -0.229107
      2 C                     0.225223
      3 C                    -0.076513
      4 C                    -0.080750
      5 C                     0.234810
      6 O                    -0.177866
      7 C                    -0.039287
      8 C                    -0.044961
      9 O                    -0.200574
     10 C                     0.235920
     11 C                    -0.082529
     12 C                    -0.073109
     13 C                     0.209149
     14 O                    -0.208848
     15 O                    -0.206914
     16 O                    -0.205224
     17 O                    -0.191111
     18 C                    -0.114848
     19 C                     0.032513
     20 C                    -0.142898
     21 C                    -0.145221
     22 C                     0.037008
     23 O                    -0.202129
     24 H                     0.089248
     25 H                     0.095569
     26 H                     0.090190
     27 H                     0.076086
     28 H                     0.072416
     29 H                     0.077682
     30 H                     0.071752
     31 H                     0.089123
     32 O                    -0.228613
     33 C                    -0.104813
     34 C                     0.037124
     35 C                    -0.142443
     36 C                    -0.144410
     37 C                     0.036287
     38 O                    -0.201397
     39 H                     0.088176
     40 H                     0.089501
     41 H                     0.085798
     42 H                     0.084336
     43 H                     0.075930
     44 H                     0.073811
     45 H                     0.075362
     46 H                     0.073072
     47 H                     0.091755
     48 H                     0.082840
     49 H                     0.090102
     50 H                     0.079274
     51 H                     0.086371
     52 H                     0.092828
     53 H                     0.098077
     54 H                     0.100133
     55 H                     0.090607
     56 H                     0.075492
  ----------------------------------------
  Sum of atomic charges =     0.000000

 -----------------------------------------------------------------
                    Cartesian Multipole Moments
 -----------------------------------------------------------------
    Charge (ESU x 10^10)
                 0.0000
    Dipole Moment (Debye)
         X      -2.0710      Y      -0.9619      Z      -1.5206
       Tot       2.7434
    Quadrupole Moments (Debye-Ang)
        XX    -150.5396     XY       6.2038     YY    -144.6348
        XZ       8.9319     YZ      -6.0287     ZZ    -171.7252
    Octopole Moments (Debye-Ang^2)
       XXX     -74.6128    XXY      24.2717    XYY      -0.0567
       YYY     -59.5366    XXZ       0.0853    XYZ      -7.6838
       YYZ      13.1217    XZZ      -5.1039    YZZ       0.9576
       ZZZ      -7.7381
    Hexadecapole Moments (Debye-Ang^3)
      XXXX  -12240.5634   XXXY      80.4950   XXYY   -2542.7061
      XYYY     -44.9245   YYYY   -3320.4690   XXXZ     216.2835
      XXYZ    -113.8907   XYYZ      28.9828   YYYZ     -11.9043
      XXZZ   -2377.1735   XYZZ     -12.6880   YYZZ    -734.0624
      XZZZ      54.4888   YZZZ      -9.2668   ZZZZ    -938.8726
 -----------------------------------------------------------------
 Calculating analytic gradient of the SCF energy
 Gradient of SCF Energy
            1           2           3           4           5           6
    1  -0.0238581  -0.0458612   0.0144864   0.0143975  -0.0213067  -0.0097548
    2   0.0084846   0.0278535  -0.0122881  -0.0295463   0.0040560   0.0020378
    3   0.0569395  -0.0278652   0.0357113   0.0328726  -0.0253712   0.0324569
            7           8           9          10          11          12
    1  -0.0194908  -0.0300278   0.0046642   0.0132867   0.0151798  -0.0034479
    2   0.0407698  -0.0127981   0.0504151  -0.0232573   0.0023462  -0.0158709
    3   0.0410768  -0.0365811   0.0214539   0.0208364  -0.0034341   0.0433237
           13          14          15          16          17          18
    1   0.0704041  -0.0294766   0.0715935  -0.0172845  -0.0357938  -0.0063931
    2   0.0528312  -0.0368628  -0.0529228   0.0046455  -0.0346801   0.0240673
    3  -0.0216412  -0.0656777  -0.0545002   0.1026794  -0.0121953  -0.0344390
           19          20          21          22          23          24
    1  -0.0282957   0.0039048   0.0310531   0.0416515  -0.0219213   0.0003190
    2  -0.0306290  -0.0327705   0.0021240   0.0258282  -0.0137129   0.0053126
    3   0.0333793   0.0180778   0.0074338  -0.0146941  -0.0536239  -0.0039023
           25          26          27          28          29          30
    1  -0.0055928  -0.0040541  -0.0008084  -0.0020049   0.0005649  -0.0012702
    2   0.0032969   0.0072807   0.0026382   0.0023930   0.0103328  -0.0057201
    3  -0.0082564  -0.0105885   0.0084807  -0.0052028   0.0028717  -0.0027166
           31          32          33          34          35          36
    1  -0.0119958   0.0236065  -0.0206636  -0.0437365  -0.0310967   0.0064449
    2  -0.0026233   0.0008627   0.0360038   0.0167922  -0.0152184  -0.0316025
    3  -0.0068183  -0.0241425   0.0126279   0.0185223   0.0068197   0.0011584
           37          38          39          40          41          42
    1   0.0438216  -0.0047643   0.0038002  -0.0054739  -0.0013618   0.0073676
    2  -0.0314441   0.0298506   0.0011219  -0.0011383   0.0052006   0.0045766
    3  -0.0045174  -0.0535054  -0.0037179  -0.0019223   0.0019809  -0.0083346
           43          44          45          46          47          48
    1  -0.0001632   0.0030900   0.0075481  -0.0044564  -0.0031974  -0.0034689
    2   0.0004639   0.0027359   0.0003996   0.0015993   0.0124529   0.0054766
    3   0.0088206  -0.0042740   0.0063626  -0.0040848  -0.0055917  -0.0014000
           49          50          51          52          53          54
    1   0.0016654  -0.0009718   0.0013513   0.0016455   0.0189725   0.0381119
    2  -0.0039739   0.0008030  -0.0001187  -0.0015173  -0.0020258   0.0080215
    3   0.0008551   0.0013638  -0.0003783  -0.0011835  -0.0074072  -0.0026695
           55          56
    1   0.0049400  -0.0058779
    2  -0.0116985  -0.0006546
    3  -0.0040642  -0.0014041
 Max gradient component =       1.027E-01
 RMS gradient           =       2.403E-02
 Gradient time:  CPU 32.13 s  wall 0.68 s
 Geometry Optimization Parameters
   NAtoms,    NIC,     NZ,  NCons,   NDum,   NFix, NCnnct, MaxDiis
       56     458       0       9       0       0       0       0

 Cartesian Hessian Update
 Hessian Updated using BFGS Update


** CONSTRAINED OPTIMIZATION IN DELOCALIZED INTERNAL COORDINATES **
   Searching for a Minimum

   Optimization Cycle:   2

                       Coordinates (Angstroms)
     ATOM                X               Y               Z
      1  O         4.8940588897   -1.6127781990   -1.5502287709
      2  C         3.9812005242   -1.0144080780   -0.9622029968
      3  C         3.9353379728    0.4947903121   -0.7355444050
      4  C         2.5984127482    1.1190320597   -0.2469898017
      5  C         1.4743173542    0.1454767608    0.1146925379
      6  O         1.3306978426   -0.8070696360   -0.8777036311
      7  C         0.6780735752   -2.0076276654   -0.4123173049
      8  C        -0.8662648926   -1.8575836469   -0.4792481405
      9  O        -1.2058816452   -0.8535669554   -1.4605013774
     10  C        -1.5374219624    0.4065044543   -0.9949092297
     11  C        -3.0375597835    0.7667926314   -0.9784138757
     12  C        -4.0228311022   -0.1778692517   -0.2157738497
     13  C        -3.4177324358   -1.2074264521    0.7407675426
     14  O        -3.6802444119   -1.3030195433    1.9509050255
     15  O         3.4786236857   -1.6963709302    0.1337277012
     16  O        -3.6804758993   -2.4242819039    0.0959199630
     17  O        -0.7350359708    1.3193706904   -1.2181841677
     18  C        -3.8378950786   -3.6651505531    0.7394461689
     19  C        -3.3237592133    2.0998956107   -0.2127418559
     20  C        -4.6070510786    2.7474786564   -0.7716818256
     21  C        -5.6683793169    1.7818380754   -0.2510124564
     22  C        -4.7974372161    0.8613482091    0.6363641160
     23  O        -3.7397673217    1.7034999209    1.0959784548
     24  H        -3.3199945196    0.8945899000   -2.0458889185
     25  H        -4.6792748429   -0.6922871527   -0.9517308927
     26  H        -2.4844966392    2.8256494559   -0.2562398147
     27  H        -4.7267856081    3.7214531372   -0.2518290808
     28  H        -4.6213207724    2.9195973422   -1.8661749584
     29  H        -6.3966585746    2.3515304721    0.3613412378
     30  H        -6.2018556649    1.2024473353   -1.0310259129
     31  H        -5.4227543774    0.3873329179    1.4225692081
     32  O         0.9555489953    0.0636197741    1.2347791804
     33  C         3.7999906180   -3.0351651040    0.3999094503
     34  C         4.8763528288    0.9189772345    0.4312185260
     35  C         5.2780819205    2.3978665028    0.2572942070
     36  C         3.9605349738    3.0952259275    0.6043853831
     37  C         3.0941468476    1.8794257084    1.0117513610
     38  O         4.0282507783    0.9616069565    1.5788460769
     39  H         4.2802829779    0.9610451340   -1.6828413501
     40  H         2.1717663104    1.7979331907   -1.0157166372
     41  H         4.8948554961   -3.1549354619    0.5550038437
     42  H         5.7786190930    0.2770943873    0.5198940435
     43  H         6.0220812151    2.6305975325    1.0477700380
     44  H         5.7059990267    2.6565040461   -0.7315353697
     45  H         4.1300387926    3.7580503678    1.4774354197
     46  H         3.4993521836    3.6724112949   -0.2217836101
     47  H         2.2633010177    2.2016307551    1.6744159600
     48  H         3.4739855818   -3.6952380873   -0.4334445875
     49  H         3.2815885771   -3.3476172778    1.3289841536
     50  H        -3.1301004559   -4.4077363555    0.3155690044
     51  H        -4.8689717831   -4.0353213935    0.5617696556
     52  H        -3.6626335187   -3.6162443742    1.8357410783
     53  H        -1.2359296315   -2.8614752524   -0.7439416630
     54  H        -0.9456460297   -1.4798701742    0.5596807522
     55  H         1.0565646465   -2.4341466456    0.5425326401
     56  H         0.9478629876   -2.7518168451   -1.1944999936
   Point Group: c1    Number of degrees of freedom:   162


   Energy is  -1510.096894484

              Constraints and their Current Values
                                        Value     Constraint
   Dihedral:        1   2   3   4      167.619      167.493
   Dihedral:        3   4   5   6      -47.307      -47.368
   Dihedral:        4   5   6   7      158.246      158.333
   Dihedral:        5   6   7   8       85.314       85.263
   Dihedral:        6   7   8   9       23.656       23.719
   Dihedral:        7   8   9  10     -100.982     -101.041
   Dihedral:        8   9  10  11     -102.875     -103.033
   Dihedral:        9  10  11  12       55.102       55.099
   Dihedral:       11  12  13  14      122.410      122.179
 Hessian Updated using BFGS Update

   Using Lagrange Multiplier Algorithm


159 Hessian modes will be used to form the next step
  Hessian Eigenvalues:
    -0.977754   -0.977753   -0.977753   -0.977753   -0.977753   -0.977753
    -0.977753   -0.977753   -0.951259    0.044915    0.045002    0.045574
     0.045611    0.045845    0.048859    0.048891    0.050685    0.051340
     0.054405    0.055549    0.059998    0.060099    0.062720    0.063924
     0.066987    0.067031    0.067950    0.068351    0.070823    0.071109
     0.072230    0.073954    0.074499    0.075897    0.075958    0.077063
     0.077646    0.082505    0.082564    0.083454    0.083952    0.084239
     0.084748    0.085611    0.086223    0.086539    0.086621    0.087381
     0.088403    0.088982    0.089185    0.089473    0.089790    0.089964
     0.092936    0.093758    0.094104    0.096599    0.096762    0.108336
     0.111584    0.111617    0.112077    0.114513    0.115568    0.115738
     0.116846    0.117131    0.117550    0.119263    0.119671    0.123216
     0.131020    0.131863    0.132437    0.139958    0.149324    0.159571
     0.160132    0.170465    0.171877    0.172673    0.175847    0.206064
     0.214364    0.216331    0.220023    0.227259    0.229620    0.239845
     0.240290    0.243876    0.257261    0.258260    0.266247    0.267260
     0.271062    0.278495    0.280380    0.282374    0.286689    0.295366
     0.296493    0.303696    0.306866    0.310523    0.310865    0.319142
     0.321503    0.321650    0.321700    0.322051    0.322410    0.322950
     0.323129    0.323261    0.323489    0.323569    0.323613    0.323899
     0.324260    0.324413    0.324435    0.324653    0.324747    0.325050
     0.325070    0.325727    0.326925    0.327064    0.327486    0.328841
     0.333638    0.347015    0.368079    0.369116    0.383252    0.400654
     0.406832    0.457693    0.471596    0.484383    0.508252    0.517955
     0.526489    0.701452    0.912153    0.929931    0.942294    0.948224
     1.022753    1.022753    1.022753    1.022753    1.022753    1.022753
     1.022753    1.022753    1.250223

 Minimum Search - Taking P-RFO Step
 Searching for Lamda that Maximizes Along the Constraint modes Only
 Value Taken    Lamda =   0.00391846
 Searching for Lamda that Minimizes Along All other modes
 Value Taken    Lamda =  -0.16761243
 Calculated Step too Large.  Step scaled by  0.405699
 Step Taken.  Stepsize is  0.300000

                             Maximum     Tolerance    Cnvgd?
         Gradient            0.086127       0.000300      NO
         Displacement        0.096592       0.001200      NO
         Energy change     -0.084410       0.000001      NO


 New Cartesian Coordinates Obtained by Inverse Iteration

 Displacement from previous Coordinates is:  1.460079
 Adding empirical dispersion correction 
 ----------------------------------------------------------------
 Doing -D3(op) with
 s6 =   1.00000
 s8 =   0.78311
 a1 =   0.30000
 a2 =   4.25000
 n  =  10.00000
 -D3 energy without 3body term =     -0.0730673821 hartrees
 ----------------------------------------------------------------
             Standard Nuclear Orientation (Angstroms)
    I     Atom           X                Y                Z
 ----------------------------------------------------------------
    1      O       4.9074123615    -1.6878598512    -1.5252002595
    2      C       3.9887373385    -1.0689337741    -0.9362655536
    3      C       3.9550060045     0.4590868211    -0.7353900077
    4      C       2.6176345070     1.1171193368    -0.2495780044
    5      C       1.4638981243     0.1529869641     0.1156406351
    6      O       1.3053638855    -0.8126394967    -0.8881900907
    7      C       0.6238671179    -2.0043901926    -0.4047099906
    8      C      -0.9416409063    -1.8301318869    -0.4703367462
    9      O      -1.2630650082    -0.8262789915    -1.4703159609
   10      C      -1.5739568623     0.4581152641    -0.9882062610
   11      C      -3.0882074151     0.8179226581    -0.9855516678
   12      C      -4.0608899765    -0.1531991063    -0.2255439356
   13      C      -3.4065742917    -1.2011071892     0.7133064904
   14      O      -3.6382196659    -1.3277029133     1.9438839512
   15      O       3.4357140281    -1.7072300034     0.1868900734
   16      O      -3.5583721125    -2.4290078132     0.0052440906
   17      O      -0.7463489234     1.3741556141    -1.1835148051
   18      C      -3.5889780035    -3.6732175077     0.6984077738
   19      C      -3.3915910788     2.1537975688    -0.2057282600
   20      C      -4.6977156360     2.7820860160    -0.7760078625
   21      C      -5.7547415905     1.7808749989    -0.2551933479
   22      C      -4.8642904999     0.8675419867     0.6462092704
   23      O      -3.8085544579     1.7396926243     1.1205490999
   24      H      -3.3692336542     0.9490867946    -2.0504682008
   25      H      -4.6982101179    -0.6766555789    -0.9656091508
   26      H      -2.5584462401     2.8853517339    -0.2360705671
   27      H      -4.8396645474     3.7519469060    -0.2620020416
   28      H      -4.7072267175     2.9525759397    -1.8675865861
   29      H      -6.4994927460     2.3266050131     0.3523253057
   30      H      -6.2690644716     1.1950273082    -1.0386715809
   31      H      -5.4721536534     0.3760577800     1.4327917454
   32      O       0.9200170635     0.0823350674     1.2354816572
   33      C       3.7712387653    -3.0688943779     0.4309477942
   34      C       4.9092887582     0.8794307625     0.4440834878
   35      C       5.3345036399     2.3645211569     0.2466163619
   36      C       4.0120466782     3.0933082503     0.5856201584
   37      C       3.1185622340     1.8860258107     1.0156417619
   38      O       4.0489475825     0.9462198002     1.6071619902
   39      H       4.3100596796     0.9096614096    -1.6832330681
   40      H       2.2076701586     1.7957841049    -1.0252820043
   41      H       4.8662672572    -3.1938862587     0.5864548656
   42      H       5.7956942553     0.2204384542     0.5465315933
   43      H       6.0818047442     2.5991668200     1.0282416596
   44      H       5.7640797100     2.5993443718    -0.7437875567
   45      H       4.1843520426     3.7676056646     1.4445074195
   46      H       3.5627208387     3.6617934215    -0.2486402276
   47      H       2.2903183679     2.2189272674     1.6736473331
   48      H       3.4532608925    -3.7268591466    -0.4079063658
   49      H       3.2489059981    -3.3889268520     1.3543996957
   50      H      -2.8127989523    -4.3562869302     0.2923884557
   51      H      -4.5805947803    -4.1478526066     0.5419131706
   52      H      -3.4160559585    -3.5669823958     1.7914432681
   53      H      -1.3581819890    -2.8217790749    -0.7204246054
   54      H      -1.0777741804    -1.4354024046     0.5579913712
   55      H       0.9892828822    -2.4156433280     0.5602307754
   56      H       0.8911572355    -2.7621161954    -1.1745502956
 ----------------------------------------------------------------
 Molecular Point Group                 C1    NOp =  1
 Largest Abelian Subgroup              C1    NOp =  1
 Nuclear Repulsion Energy =  3250.8270165347 hartrees
 There are      113 alpha and      113 beta electrons
 Applying Cartesian multipole field
    Component          Value
    ---------          -----
     (2,0,0)        1.00000E-12
     (0,2,0)        2.00000E-11
     (0,0,2)       -3.00000E-11
 Nucleus-field energy     =     0.0000000447 hartrees
 Requested basis set is STO-3G
 There are 86 shells and 176 basis functions
 A cutoff of  1.0D-12 yielded   2235 shell pairs
 There are     10740 function pairs
 Smallest overlap matrix eigenvalue = 2.05E-01
 Guess MOs from SCF MO coefficient file
 Reading MOs from coefficient file
 Reading MOs from coefficient file
 A restricted hybrid HF-DFT SCF calculation will be
 performed using Pulay DIIS extrapolation
 Exchange:     0.2000 Hartree-Fock + 0.0800 Slater + 0.7200 B88
 Correlation:  0.1900 VWN1RPA + 0.8100 LYP
 Using SG-1 standard quadrature grid
 Dispersion:   Grimme D3
 SCF converges when DIIS error is below 1.0E-08
 Geometry optimization detected.  Setting ReadMinima to 0
 Setting SaveMinima to 0
 using 48 threads for integral computing
 -------------------------------------------------------
 OpenMP Integral computing Module                
 Release: version 1.0, May 2013, Q-Chem Inc. Pittsburgh 
 -------------------------------------------------------
 -------------------------------------------------------
 OpenMP BLAS3 based DFT computing Module                
 Release: version 1.0, May 2013, Q-Chem Inc. Pittsburgh 
 -------------------------------------------------------
 ---------------------------------------
  Cycle       Energy         DIIS Error
 ---------------------------------------
    1   -1510.0036031264      3.14E-03
    2   -1510.1464992907      8.89E-04
    3   -1510.1385661265      1.64E-03
    4   -1510.1497354995      2.91E-04
    5   -1510.1501177578      7.94E-05
    6   -1510.1501412171      4.25E-05
    7   -1510.1501490566      1.31E-05
    8   -1510.1501498193      4.61E-06
    9   -1510.1501498969      2.52E-06
   10   -1510.1501499255      6.05E-07
   11   -1510.1501499278      2.42E-07
   12   -1510.1501499281      9.12E-08
   13   -1510.1501499282      6.68E-08
   14   -1510.1501499283      9.68E-09 Convergence criterion met
 ---------------------------------------
 SCF time:  CPU 103.44 s  wall 2.16 s
 SCF   energy in the final basis set = -1510.15014993
 Total energy in the final basis set = -1510.15014993
 
 --------------------------------------------------------------
 
                    Orbital Energies (a.u.)
 --------------------------------------------------------------
 
 Alpha MOs
 -- Occupied --
-18.931 -18.921 -18.919 -18.918 -18.897 -18.897 -18.892 -18.876
-18.859 -18.856 -10.115 -10.102 -10.096 -10.095 -10.077 -10.069
-10.068 -10.066 -10.063 -10.062 -10.062 -10.057 -10.047 -10.039
-10.037 -10.030 -10.020 -10.017 -10.014 -10.012  -1.029  -1.023
 -1.019  -1.008  -0.995  -0.989  -0.949  -0.931  -0.931  -0.925
 -0.773  -0.766  -0.734  -0.729  -0.716  -0.711  -0.705  -0.671
 -0.664  -0.618  -0.602  -0.586  -0.556  -0.544  -0.537  -0.530
 -0.520  -0.512  -0.495  -0.479  -0.474  -0.466  -0.459  -0.448
 -0.441  -0.434  -0.429  -0.425  -0.420  -0.414  -0.410  -0.403
 -0.398  -0.388  -0.378  -0.373  -0.364  -0.363  -0.358  -0.353
 -0.348  -0.345  -0.342  -0.337  -0.332  -0.330  -0.321  -0.313
 -0.307  -0.305  -0.302  -0.298  -0.292  -0.284  -0.279  -0.275
 -0.265  -0.243  -0.238  -0.233  -0.232  -0.232  -0.228  -0.180
 -0.170  -0.165  -0.161  -0.157  -0.150  -0.149  -0.146  -0.143
 -0.137
 -- Virtual --
  0.051   0.064   0.085   0.112   0.226   0.242   0.254   0.280
  0.284   0.289   0.300   0.306   0.315   0.328   0.333   0.343
  0.345   0.353   0.357   0.363   0.367   0.371   0.375   0.378
  0.389   0.395   0.399   0.403   0.406   0.410   0.414   0.416
  0.419   0.423   0.426   0.426   0.429   0.436   0.443   0.447
  0.451   0.457   0.460   0.460   0.468   0.471   0.473   0.478
  0.484   0.488   0.491   0.497   0.508   0.524   0.526   0.547
  0.554   0.556   0.562   0.601   0.624   0.637   0.661
 --------------------------------------------------------------
 
          Ground-State Mulliken Net Atomic Charges

     Atom                 Charge (a.u.)
  ----------------------------------------
      1 O                    -0.222336
      2 C                     0.215134
      3 C                    -0.076079
      4 C                    -0.079088
      5 C                     0.227573
      6 O                    -0.174732
      7 C                    -0.043001
      8 C                    -0.042257
      9 O                    -0.197749
     10 C                     0.227206
     11 C                    -0.081579
     12 C                    -0.073128
     13 C                     0.200398
     14 O                    -0.202720
     15 O                    -0.193935
     16 O                    -0.195429
     17 O                    -0.184805
     18 C                    -0.121541
     19 C                     0.028822
     20 C                    -0.143564
     21 C                    -0.145538
     22 C                     0.032704
     23 O                    -0.195077
     24 H                     0.089561
     25 H                     0.094776
     26 H                     0.089994
     27 H                     0.076614
     28 H                     0.073112
     29 H                     0.078194
     30 H                     0.072552
     31 H                     0.089111
     32 O                    -0.224075
     33 C                    -0.111820
     34 C                     0.033114
     35 C                    -0.143246
     36 C                    -0.144937
     37 C                     0.032266
     38 O                    -0.194195
     39 H                     0.087364
     40 H                     0.089099
     41 H                     0.086149
     42 H                     0.083825
     43 H                     0.076163
     44 H                     0.074291
     45 H                     0.075785
     46 H                     0.073643
     47 H                     0.091671
     48 H                     0.083383
     49 H                     0.089655
     50 H                     0.078068
     51 H                     0.085981
     52 H                     0.095535
     53 H                     0.098173
     54 H                     0.095219
     55 H                     0.089870
     56 H                     0.075826
  ----------------------------------------
  Sum of atomic charges =    -0.000000

 -----------------------------------------------------------------
                    Cartesian Multipole Moments
 -----------------------------------------------------------------
    Charge (ESU x 10^10)
                -0.0000
    Dipole Moment (Debye)
         X      -2.0785      Y      -0.8688      Z      -1.5197
       Tot       2.7174
    Quadrupole Moments (Debye-Ang)
        XX    -149.5619     XY       5.8537     YY    -144.6987
        XZ       8.6200     YZ      -6.3952     ZZ    -171.6048
    Octopole Moments (Debye-Ang^2)
       XXX     -71.0268    XXY      27.2957    XYY       1.6350
       YYY     -59.2413    XXZ      -2.1783    XYZ      -7.2207
       YYZ      12.8918    XZZ      -4.2030    YZZ       0.9760
       ZZZ      -8.2341
    Hexadecapole Moments (Debye-Ang^3)
      XXXX  -12293.3039   XXXY     117.9327   XXYY   -2571.8488
      XYYY       6.3608   YYYY   -3349.7018   XXXZ     186.0222
      XXYZ    -117.3913   XYYZ      26.2322   YYYZ     -13.9225
      XXZZ   -2387.3398   XYZZ       4.3840   YYZZ    -740.7238
      XZZZ      24.3201   YZZZ     -10.3301   ZZZZ    -933.8311
 -----------------------------------------------------------------
 Calculating analytic gradient of the SCF energy
 Gradient of SCF Energy
            1           2           3           4           5           6
    1   0.0003794  -0.0502416   0.0129184   0.0122328  -0.0156299  -0.0069983
    2  -0.0006926   0.0265446  -0.0076910  -0.0194205   0.0094619  -0.0016030
    3   0.0338853  -0.0257291   0.0230863   0.0250981  -0.0273575   0.0187974
            7           8           9          10          11          12
    1  -0.0064958  -0.0387075   0.0061243   0.0007066   0.0090858  -0.0076170
    2   0.0307231  -0.0152051   0.0332573  -0.0267894  -0.0008357  -0.0124667
    3   0.0362052  -0.0298631   0.0144036   0.0288573  -0.0119834   0.0282385
           13          14          15          16          17          18
    1   0.0744040  -0.0283673   0.0488914  -0.0112558  -0.0165230  -0.0059017
    2   0.0525084  -0.0308473  -0.0383918  -0.0083390  -0.0111857   0.0192167
    3  -0.0300146  -0.0244606  -0.0321102   0.0690209  -0.0160009  -0.0272532
           19          20          21          22          23          24
    1  -0.0143683   0.0036584   0.0147175   0.0255564  -0.0134719   0.0003681
    2  -0.0202830  -0.0186001   0.0001160   0.0169631  -0.0085216   0.0051171
    3   0.0253004   0.0071789   0.0045743  -0.0059875  -0.0317092  -0.0021168
           25          26          27          28          29          30
    1  -0.0024563  -0.0037811  -0.0000251  -0.0017523   0.0013432  -0.0007446
    2   0.0044270   0.0056769   0.0007202   0.0028973   0.0073887  -0.0039034
    3  -0.0062039  -0.0096022   0.0061306  -0.0025672   0.0013782  -0.0007426
           31          32          33          34          35          36
    1  -0.0099865   0.0132192  -0.0156467  -0.0281096  -0.0170754   0.0016935
    2  -0.0024222  -0.0016218   0.0275889   0.0079961  -0.0087800  -0.0161195
    3  -0.0070358  -0.0067816   0.0093506   0.0145095   0.0013251   0.0000883
           37          38          39          40          41          42
    1   0.0270737  -0.0029700   0.0030590  -0.0047448   0.0001143   0.0059935
    2  -0.0225636   0.0176355  -0.0000464  -0.0017174   0.0025730   0.0042799
    3   0.0005244  -0.0316073  -0.0020229  -0.0012461   0.0018788  -0.0077522
           43          44          45          46          47          48
    1  -0.0012517   0.0028713   0.0057920  -0.0031642  -0.0023090  -0.0023271
    2  -0.0002107   0.0020774  -0.0006975   0.0010120   0.0108249   0.0023533
    3   0.0060629  -0.0016674   0.0038319  -0.0017385  -0.0059059  -0.0013069
           49          50          51          52          53          54
    1   0.0012976  -0.0001160   0.0002632   0.0016117   0.0119870   0.0261122
    2  -0.0033807  -0.0004936  -0.0004503  -0.0025498  -0.0039563   0.0097543
    3   0.0008272   0.0010913  -0.0002230   0.0005273  -0.0053173  -0.0000192
           55          56
    1   0.0037559  -0.0031917
    2  -0.0109370  -0.0003909
    3  -0.0045096  -0.0013364
 Max gradient component =       7.440E-02
 RMS gradient           =       1.769E-02
 Gradient time:  CPU 31.11 s  wall 0.66 s
 Geometry Optimization Parameters
   NAtoms,    NIC,     NZ,  NCons,   NDum,   NFix, NCnnct, MaxDiis
       56     458       0       9       0       0       0       0

 Cartesian Hessian Update
 Hessian Updated using BFGS Update


** CONSTRAINED OPTIMIZATION IN DELOCALIZED INTERNAL COORDINATES **
   Searching for a Minimum

   Optimization Cycle:   3

                       Coordinates (Angstroms)
     ATOM                X               Y               Z
      1  O         4.9074123615   -1.6878598512   -1.5252002595
      2  C         3.9887373385   -1.0689337741   -0.9362655536
      3  C         3.9550060045    0.4590868211   -0.7353900077
      4  C         2.6176345070    1.1171193368   -0.2495780044
      5  C         1.4638981243    0.1529869641    0.1156406351
      6  O         1.3053638855   -0.8126394967   -0.8881900907
      7  C         0.6238671179   -2.0043901926   -0.4047099906
      8  C        -0.9416409063   -1.8301318869   -0.4703367462
      9  O        -1.2630650082   -0.8262789915   -1.4703159609
     10  C        -1.5739568623    0.4581152641   -0.9882062610
     11  C        -3.0882074151    0.8179226581   -0.9855516678
     12  C        -4.0608899765   -0.1531991063   -0.2255439356
     13  C        -3.4065742917   -1.2011071892    0.7133064904
     14  O        -3.6382196659   -1.3277029133    1.9438839512
     15  O         3.4357140281   -1.7072300034    0.1868900734
     16  O        -3.5583721125   -2.4290078132    0.0052440906
     17  O        -0.7463489234    1.3741556141   -1.1835148051
     18  C        -3.5889780035   -3.6732175077    0.6984077738
     19  C        -3.3915910788    2.1537975688   -0.2057282600
     20  C        -4.6977156360    2.7820860160   -0.7760078625
     21  C        -5.7547415905    1.7808749989   -0.2551933479
     22  C        -4.8642904999    0.8675419867    0.6462092704
     23  O        -3.8085544579    1.7396926243    1.1205490999
     24  H        -3.3692336542    0.9490867946   -2.0504682008
     25  H        -4.6982101179   -0.6766555789   -0.9656091508
     26  H        -2.5584462401    2.8853517339   -0.2360705671
     27  H        -4.8396645474    3.7519469060   -0.2620020416
     28  H        -4.7072267175    2.9525759397   -1.8675865861
     29  H        -6.4994927460    2.3266050131    0.3523253057
     30  H        -6.2690644716    1.1950273082   -1.0386715809
     31  H        -5.4721536534    0.3760577800    1.4327917454
     32  O         0.9200170635    0.0823350674    1.2354816572
     33  C         3.7712387653   -3.0688943779    0.4309477942
     34  C         4.9092887582    0.8794307625    0.4440834878
     35  C         5.3345036399    2.3645211569    0.2466163619
     36  C         4.0120466782    3.0933082503    0.5856201584
     37  C         3.1185622340    1.8860258107    1.0156417619
     38  O         4.0489475825    0.9462198002    1.6071619902
     39  H         4.3100596796    0.9096614096   -1.6832330681
     40  H         2.2076701586    1.7957841049   -1.0252820043
     41  H         4.8662672572   -3.1938862587    0.5864548656
     42  H         5.7956942553    0.2204384542    0.5465315933
     43  H         6.0818047442    2.5991668200    1.0282416596
     44  H         5.7640797100    2.5993443718   -0.7437875567
     45  H         4.1843520426    3.7676056646    1.4445074195
     46  H         3.5627208387    3.6617934215   -0.2486402276
     47  H         2.2903183679    2.2189272674    1.6736473331
     48  H         3.4532608925   -3.7268591466   -0.4079063658
     49  H         3.2489059981   -3.3889268520    1.3543996957
     50  H        -2.8127989523   -4.3562869302    0.2923884557
     51  H        -4.5805947803   -4.1478526066    0.5419131706
     52  H        -3.4160559585   -3.5669823958    1.7914432681
     53  H        -1.3581819890   -2.8217790749   -0.7204246054
     54  H        -1.0777741804   -1.4354024046    0.5579913712
     55  H         0.9892828822   -2.4156433280    0.5602307754
     56  H         0.8911572355   -2.7621161954   -1.1745502956
   Point Group: c1    Number of degrees of freedom:   162


   Energy is  -1510.150149928

              Constraints and their Current Values
                                        Value     Constraint
   Dihedral:        1   2   3   4      167.557      167.493
   Dihedral:        3   4   5   6      -47.343      -47.368
   Dihedral:        4   5   6   7      158.300      158.333
   Dihedral:        5   6   7   8       85.299       85.263
   Dihedral:        6   7   8   9       23.689       23.719
   Dihedral:        7   8   9  10     -101.019     -101.041
   Dihedral:        8   9  10  11     -103.151     -103.033
   Dihedral:        9  10  11  12       55.191       55.099
   Dihedral:       11  12  13  14      122.268      122.179
 Hessian Updated using BFGS Update

   Using Lagrange Multiplier Algorithm


162 Hessian modes will be used to form the next step
  Hessian Eigenvalues:
    -0.977754   -0.977753   -0.977753   -0.977753   -0.977753   -0.977753
    -0.977753   -0.974142   -0.955462    0.044978    0.045001    0.045053
     0.045565    0.045607    0.045887    0.048861    0.048891    0.050713
     0.051236    0.054590    0.059850    0.060008    0.060358    0.062703
     0.063759    0.066987    0.067043    0.068000    0.068802    0.071085
     0.071374    0.073036    0.074128    0.075439    0.075957    0.076754
     0.077089    0.080872    0.082512    0.082741    0.083423    0.084059
     0.084213    0.084751    0.085549    0.086081    0.086364    0.086630
     0.087327    0.088409    0.088982    0.089239    0.089671    0.089809
     0.090893    0.093752    0.093845    0.094140    0.096606    0.096743
     0.111573    0.111593    0.112075    0.114064    0.114608    0.115569
     0.115740    0.116742    0.117486    0.117601    0.119210    0.120352
     0.123382    0.130897    0.131906    0.132421    0.141066    0.152619
     0.159370    0.160004    0.160731    0.171631    0.172020    0.172826
     0.190722    0.206147    0.214488    0.219365    0.221716    0.228356
     0.230165    0.239841    0.240236    0.243875    0.253444    0.258053
     0.259771    0.266732    0.267517    0.278428    0.280115    0.282253
     0.285257    0.295203    0.295964    0.303194    0.305635    0.310347
     0.310739    0.318831    0.320999    0.321627    0.321688    0.321972
     0.322363    0.322725    0.323118    0.323231    0.323471    0.323553
     0.323611    0.323857    0.324034    0.324403    0.324429    0.324560
     0.324731    0.324794    0.325066    0.325592    0.326866    0.326986
     0.327353    0.328537    0.332990    0.334146    0.368022    0.368997
     0.382742    0.390814    0.401021    0.408452    0.453395    0.476172
     0.504101    0.514776    0.518710    0.529273    0.719693    0.924864
     0.942175    0.947581    0.982460    1.022753    1.022753    1.022753
     1.022753    1.022753    1.022753    1.022753    1.058563    1.163924

 Minimum Search - Taking P-RFO Step
 Searching for Lamda that Maximizes Along the Constraint modes Only
 Value Taken    Lamda =   0.00227665
 Searching for Lamda that Minimizes Along All other modes
 Value Taken    Lamda =  -0.08258975
 Calculated Step too Large.  Step scaled by  0.512345
 Step Taken.  Stepsize is  0.300000

                             Maximum     Tolerance    Cnvgd?
         Gradient            0.063260       0.000300      NO
         Displacement        0.075655       0.001200      NO
         Energy change     -0.053255       0.000001      NO


 New Cartesian Coordinates Obtained by Inverse Iteration

 Displacement from previous Coordinates is:  1.122763
 Adding empirical dispersion correction 
 ----------------------------------------------------------------
 Doing -D3(op) with
 s6 =   1.00000
 s8 =   0.78311
 a1 =   0.30000
 a2 =   4.25000
 n  =  10.00000
 -D3 energy without 3body term =     -0.0726766070 hartrees
 ----------------------------------------------------------------
             Standard Nuclear Orientation (Angstroms)
    I     Atom           X                Y                Z
 ----------------------------------------------------------------
    1      O       4.9514644292    -1.6887700402    -1.4815044522
    2      C       4.0276647746    -1.0654142756    -0.9008565347
    3      C       3.9612999393     0.4767613660    -0.7386340264
    4      C       2.6107914107     1.1234191404    -0.2566983088
    5      C       1.4660163486     0.1325220048     0.1064632055
    6      O       1.3314756884    -0.8419310398    -0.9117753487
    7      C       0.6648096196    -2.0434009357    -0.4089434960
    8      C      -0.9104650582    -1.8884601947    -0.4760665753
    9      O      -1.2371945193    -0.8950446273    -1.4967883241
   10      C      -1.5602735497     0.3988644562    -1.0022218855
   11      C      -3.0829762269     0.7791562315    -0.9815962570
   12      C      -4.1074423815    -0.1591695224    -0.2285572821
   13      C      -3.5248897980    -1.2762090380     0.6923459246
   14      O      -3.7633568376    -1.4181377697     1.9213899823
   15      O       3.4345139561    -1.6835097129     0.2299141042
   16      O      -3.6631489693    -2.4838957143    -0.0738611146
   17      O      -0.7109833854     1.3090640408    -1.1521252140
   18      C      -3.6994229019    -3.7085640492     0.6904240043
   19      C      -3.3228776741     2.1245235498    -0.1814182789
   20      C      -4.6075232275     2.8175288883    -0.7479396183
   21      C      -5.7133312115     1.8525774804    -0.2326679676
   22      C      -4.8626710304     0.8874682152     0.6672101703
   23      O      -3.7545798298     1.7111558275     1.1563859022
   24      H      -3.3633970509     0.9328911116    -2.0420859461
   25      H      -4.7616106526    -0.6475754028    -0.9753978030
   26      H      -2.4522016870     2.8101972913    -0.1981587816
   27      H      -4.7093512370     3.7896983296    -0.2333564871
   28      H      -4.6056608928     2.9916166194    -1.8372285825
   29      H      -6.4380938120     2.4170319699     0.3781841400
   30      H      -6.2486893921     1.2990559462    -1.0229825375
[...]
     15  O         3.3518176014   -1.3872576244    1.0223853424
     16  O        -3.9672935599   -2.3061419871   -1.1557989849
     17  O        -0.6903605540    1.1732528506   -0.9393569956
     18  C        -3.9121402002   -3.7718024890   -0.9438744166
     19  C        -3.1775690403    2.0995705186   -0.2118300897
     20  C        -4.6098070484    2.7643454279   -0.2772090628
     21  C        -5.4023802221    1.9106098941    0.7841630034
     22  C        -4.3304866253    0.8037593995    1.1124075118
     23  O        -3.0738485041    1.5836839562    1.1765146150
     24  H        -3.4806663064    0.8483269571   -2.0837215947
     25  H        -5.1330508252   -0.0765531997   -0.7534226968
     26  H        -2.3231372641    2.7669277052   -0.4356597167
     27  H        -4.5568390238    3.8259334584    0.0109043342
     28  H        -5.0468991240    2.6958827982   -1.2865241494
     29  H        -5.6297797235    2.5024231512    1.6855063732
     30  H        -6.3408945408    1.4920867269    0.3865970517
     31  H        -4.4846907735    0.2265784155    2.0451416620
     32  O         0.8212399349    0.2242575908    1.1340545067
     33  C         3.5968990529   -2.6919084707    1.6759372524
     34  C         5.1015364340    1.1218319997    0.1002196838
     35  C         5.1659921853    2.5643274648   -0.5446853153
     36  C         3.8621696111    3.2269613262    0.0397690669
     37  C         3.2180908940    1.9915635422    0.7784449925
     38  O         4.3966753724    1.3277780053    1.3858518969
     39  H         4.2598066520    0.1890997231   -1.7840092430
     40  H         2.3947302218    1.5467533642   -1.2329089814
     41  H         4.6591359230   -2.8042455491    1.9735999524
     42  H         6.0845696585    0.6391458599    0.2660546398
     43  H         6.0750160427    3.0925026001   -0.2164756353
     44  H         5.1619277470    2.5210853547   -1.6457971095
     45  H         4.1058393337    4.0231533648    0.7614912036
     46  H         3.2041773068    3.6417531664   -0.7400522278
     47  H         2.4539475179    2.2172187506    1.5476443406
     48  H         3.3257244434   -3.5392382827    1.0131617417
     49  H         2.9550896978   -2.7058434743    2.5760705897
     50  H        -3.1113657796   -4.1920141822   -1.5824258495
     51  H        -4.8826362788   -4.2182073445   -1.2396822402
     52  H        -3.7131660494   -3.9898014124    0.1248866232
     53  H        -1.4167633573   -2.8877966084   -0.5136264452
     54  H        -1.3466324678   -1.4953649711    0.6279689692
     55  H         0.8945535854   -2.1984032442    0.8755234513
     56  H         0.9314479822   -3.0102232462   -0.7446023618
   Point Group: c1    Number of degrees of freedom:   162


   Energy is  -1510.247838500

              Constraints and their Current Values
                                        Value     Constraint
   Dihedral:        1   2   3   4      167.493      167.493
   Dihedral:        3   4   5   6      -47.368      -47.368
   Dihedral:        4   5   6   7      158.333      158.333
   Dihedral:        5   6   7   8       85.263       85.263
   Dihedral:        6   7   8   9       23.719       23.719
   Dihedral:        7   8   9  10     -101.041     -101.041
   Dihedral:        8   9  10  11     -103.033     -103.033
   Dihedral:        9  10  11  12       55.099       55.099
   Dihedral:       11  12  13  14      122.179      122.179
 Hessian Updated using BFGS Update

153 Hessian modes will be used to form the next step
  Hessian Eigenvalues:
     0.003251    0.003636    0.010457    0.019263    0.023706    0.042523
     0.045012    0.045447    0.046659    0.049982    0.051308    0.052925
     0.055692    0.058701    0.060056    0.061154    0.065372    0.066398
     0.067338    0.068275    0.069383    0.070220    0.071728    0.073073
     0.074715    0.075730    0.075927    0.076377    0.078563    0.082336
     0.082608    0.082890    0.083894    0.084354    0.084809    0.084950
     0.086518    0.086607    0.087055    0.087635    0.087870    0.089186
     0.089290    0.089805    0.089993    0.090550    0.093591    0.094079
     0.094933    0.096443    0.096766    0.097613    0.111558    0.111702
     0.112224    0.114614    0.115730    0.115754    0.116319    0.117251
     0.118679    0.119798    0.120391    0.121939    0.124330    0.132847
     0.133128    0.134986    0.158072    0.158401    0.159924    0.160027
     0.160424    0.160915    0.161235    0.162047    0.172673    0.180279
     0.194899    0.212541    0.215420    0.221509    0.225791    0.229278
     0.238641    0.241670    0.244097    0.249191    0.251135    0.257365
     0.257405    0.266419    0.267379    0.274279    0.277047    0.279634
     0.280794    0.282484    0.286246    0.295138    0.296446    0.303592
     0.307486    0.311230    0.317033    0.318560    0.320585    0.320807
     0.321638    0.321910    0.322342    0.322611    0.323144    0.323241
     0.323489    0.323513    0.323624    0.323825    0.323978    0.324473
     0.324669    0.324730    0.324980    0.325080    0.325758    0.326234
     0.326799    0.327171    0.327293    0.328506    0.330922    0.338134
     0.344377    0.366491    0.368777    0.372110    0.378591    0.386602
     0.411994    0.435818    0.444821    0.471332    0.483111    0.502739
     0.523231    0.552939    0.577265    0.611957    0.833882    0.926157
     0.946087    0.948913    1.026219

 Minimum Search - Taking Simple RFO Step
 Searching for Lamda that Minimizes Along All modes
 Value Taken    Lamda =   0.00000000
 Step Taken.  Stepsize is  0.003596

                             Maximum     Tolerance    Cnvgd?
         Gradient           0.000045      0.000300     YES
         Displacement       0.000970      0.001200     YES
         Energy change     -0.000000      0.000001     YES

 Final energy is   -1510.24783850032     


 ******************************
 **  OPTIMIZATION CONVERGED  **
 ******************************

                       Coordinates (Angstroms)
     ATOM                X               Y               Z
      1  O         5.0624915154   -2.0839198570   -0.4518005384
      2  C         4.2061316639   -1.2359019650   -0.1178634580
      3  C         4.0600872556    0.2138738819   -0.6986697237
      4  C         2.7253753665    0.9810825866   -0.3413044983
      5  C         1.5099936976    0.0950899768    0.1004689941
      6  O         1.3742612313   -0.9967898229   -0.8341588980
      7  C         0.6241936847   -2.0976068707   -0.1957296884
      8  C        -0.9508640268   -1.8998175326   -0.3256736997
      9  O        -1.2920740280   -1.0336460577   -1.4806798085
     10  C        -1.5980789905    0.3229820511   -1.0742738594
     11  C        -3.1346410263    0.7430765021   -1.0379811705
     12  C        -4.1807971803   -0.0946857472   -0.1904953543
     13  C        -3.9292782113   -1.6102824331    0.0964273183
     14  O        -3.8510131675   -2.1678561832    1.2136849480
     15  O         3.3518176014   -1.3872576244    1.0223853424
     16  O        -3.9672935599   -2.3061419871   -1.1557989849
     17  O        -0.6903605540    1.1732528506   -0.9393569956
     18  C        -3.9121402002   -3.7718024890   -0.9438744166
     19  C        -3.1775690403    2.0995705186   -0.2118300897
     20  C        -4.6098070484    2.7643454279   -0.2772090628
     21  C        -5.4023802221    1.9106098941    0.7841630034
     22  C        -4.3304866253    0.8037593995    1.1124075118
     23  O        -3.0738485041    1.5836839562    1.1765146150
     24  H        -3.4806663064    0.8483269571   -2.0837215947
     25  H        -5.1330508252   -0.0765531997   -0.7534226968
     26  H        -2.3231372641    2.7669277052   -0.4356597167
     27  H        -4.5568390238    3.8259334584    0.0109043342
     28  H        -5.0468991240    2.6958827982   -1.2865241494
     29  H        -5.6297797235    2.5024231512    1.6855063732
     30  H        -6.3408945408    1.4920867269    0.3865970517
     31  H        -4.4846907735    0.2265784155    2.0451416620
     32  O         0.8212399349    0.2242575908    1.1340545067
     33  C         3.5968990529   -2.6919084707    1.6759372524
     34  C         5.1015364340    1.1218319997    0.1002196838
     35  C         5.1659921853    2.5643274648   -0.5446853153
     36  C         3.8621696111    3.2269613262    0.0397690669
     37  C         3.2180908940    1.9915635422    0.7784449925
     38  O         4.3966753724    1.3277780053    1.3858518969
     39  H         4.2598066520    0.1890997231   -1.7840092430
     40  H         2.3947302218    1.5467533642   -1.2329089814
     41  H         4.6591359230   -2.8042455491    1.9735999524
     42  H         6.0845696585    0.6391458599    0.2660546398
     43  H         6.0750160427    3.0925026001   -0.2164756353
     44  H         5.1619277470    2.5210853547   -1.6457971095
     45  H         4.1058393337    4.0231533648    0.7614912036
     46  H         3.2041773068    3.6417531664   -0.7400522278
     47  H         2.4539475179    2.2172187506    1.5476443406
     48  H         3.3257244434   -3.5392382827    1.0131617417
     49  H         2.9550896978   -2.7058434743    2.5760705897
     50  H        -3.1113657796   -4.1920141822   -1.5824258495
     51  H        -4.8826362788   -4.2182073445   -1.2396822402
     52  H        -3.7131660494   -3.9898014124    0.1248866232
     53  H        -1.4167633573   -2.8877966084   -0.5136264452
     54  H        -1.3466324678   -1.4953649711    0.6279689692
     55  H         0.8945535854   -2.1984032442    0.8755234513
     56  H         0.9314479822   -3.0102232462   -0.7446023618

Z-matrix Print:
$molecule
0 1
O 
C  1 1.443660
O  2 1.248745 1 124.210130
C  1 1.477157 2 109.364032 3 -16.740476 0
H  4 1.108393 1 104.999609 2 -155.838135 0
H  4 1.109431 1 111.179670 2 -37.371740 0
C  2 1.567578 1 108.537231 3 175.073531 0
H  7 1.106467 2 106.520349 1 73.805208 0
C  7 1.580435 2 116.367838 1 -47.367991 0
H  9 1.103840 7 112.707327 2 106.391791 0
C  9 1.568603 7 116.332004 2 -20.620497 0
O  11 1.250600 9 126.271031 7 167.492959 0
O  11 1.432804 9 109.681201 7 -22.149431 0
C  13 1.479631 11 110.236337 9 -173.297494 0
H  14 1.105601 13 105.936556 11 176.375053 0
H  14 1.108860 13 111.504255 11 57.140924 0
H  14 1.109403 13 111.659039 11 -64.408739 0
C  7 1.586720 2 113.691781 1 -165.348669 0
H  18 1.107476 7 113.931706 2 -21.541170 0
O  18 1.482773 7 104.525847 2 99.546848 0
C  20 1.480572 18 94.874335 7 53.417124 0
H  21 1.107629 20 110.678880 18 178.453416 0
C  18 1.576923 7 107.167882 2 -152.050574 0
H  23 1.101421 18 112.500119 7 50.768110 0
H  23 1.101898 18 110.461779 7 172.675773 0
C  23 1.575000 18 100.506110 7 -69.658082 0
H  26 1.101370 23 111.771537 18 -123.621312 0
H  26 1.101968 23 112.597186 18 113.760878 0
C  4 1.592738 1 111.983305 2 85.262986 0
H  29 1.108373 4 108.591641 1 141.212693 0
H  29 1.108895 4 109.151810 1 -100.411253 0
O  29 1.483481 4 111.314119 1 23.719017 0
C  32 1.448877 29 112.141251 4 -101.040970 0
O  33 1.251046 32 120.889505 29 86.573498 0
C  33 1.593367 32 117.188948 29 -103.032964 0
H  35 1.106519 33 107.765293 32 -72.877319 0
C  35 1.585724 33 120.603618 32 55.098957 0
H  37 1.106347 35 106.693466 33 -145.144285 0
C  37 1.562888 35 120.283103 33 -26.802361 0
O  39 1.251111 37 127.314415 35 122.178981 0
O  39 1.433086 37 107.829732 35 -65.004090 0
C  41 1.481929 39 110.750006 37 -172.625641 0
H  42 1.107053 41 108.653516 39 -128.852627 0
H  42 1.108441 41 109.120834 39 112.345532 0
H  42 1.108767 41 109.814753 39 -7.786345 0
C  35 1.588850 33 105.247769 32 165.481603 0
H  46 1.107032 35 112.873020 33 38.860060 0
O  46 1.484721 35 100.817320 33 -78.616890 0
C  48 1.480382 46 94.776209 35 -61.636415 0
H  49 1.107660 48 110.869221 46 176.182334 0
C  49 1.575379 48 102.499821 46 -58.764115 0
H  51 1.101830 49 112.821282 48 161.796614 0
H  51 1.101986 49 110.322515 48 -76.201591 0
C  51 1.575927 49 100.297276 48 41.281760 0
H  54 1.101265 51 111.728446 49 -124.971330 0
H  54 1.102022 51 112.563335 49 112.551926 0
$end

 
 --------------------------------------------------------------
 
                    Orbital Energies (a.u.)
 --------------------------------------------------------------
 
 Alpha MOs
 -- Occupied --
-18.939 -18.933 -18.916 -18.904 -18.903 -18.885 -18.883 -18.881
-18.868 -18.862 -10.110 -10.107 -10.095 -10.091 -10.068 -10.064
-10.063 -10.062 -10.058 -10.056 -10.055 -10.050 -10.042 -10.040
-10.033 -10.027 -10.021 -10.020 -10.016 -10.013  -1.017  -1.012
 -1.008  -0.992  -0.969  -0.964  -0.942  -0.937  -0.931  -0.921
 -0.764  -0.757  -0.723  -0.719  -0.706  -0.702  -0.692  -0.666
 -0.659  -0.611  -0.598  -0.580  -0.547  -0.540  -0.536  -0.530
 -0.513  -0.504  -0.485  -0.475  -0.465  -0.455  -0.444  -0.434
 -0.433  -0.432  -0.422  -0.419  -0.414  -0.412  -0.406  -0.396
 -0.392  -0.383  -0.377  -0.371  -0.362  -0.357  -0.351  -0.347
 -0.342  -0.339  -0.335  -0.332  -0.328  -0.325  -0.315  -0.314
 -0.306  -0.304  -0.300  -0.299  -0.292  -0.284  -0.279  -0.275
 -0.264  -0.253  -0.246  -0.239  -0.235  -0.233  -0.228  -0.181
 -0.176  -0.170  -0.166  -0.157  -0.151  -0.149  -0.143  -0.140
 -0.138
 -- Virtual --
  0.071   0.093   0.100   0.118   0.215   0.237   0.251   0.253
  0.255   0.270   0.280   0.289   0.303   0.313   0.325   0.328
  0.336   0.339   0.349   0.351   0.352   0.358   0.362   0.368
  0.374   0.385   0.386   0.395   0.402   0.407   0.409   0.411
  0.413   0.418   0.419   0.422   0.425   0.432   0.434   0.436
  0.438   0.440   0.443   0.444   0.447   0.451   0.458   0.466
  0.472   0.485   0.489   0.496   0.502   0.505   0.511   0.540
  0.546   0.555   0.559   0.604   0.639   0.644   0.658
 --------------------------------------------------------------
 
          Ground-State Mulliken Net Atomic Charges

     Atom                 Charge (a.u.)
  ----------------------------------------
      1 O                    -0.217343
      2 C                     0.212728
      3 C                    -0.076062
      4 C                    -0.078673
      5 C                     0.227274
      6 O                    -0.175270
      7 C                    -0.049810
      8 C                    -0.050347
      9 O                    -0.194047
     10 C                     0.226498
     11 C                    -0.077428
     12 C                    -0.082311
     13 C                     0.209270
     14 O                    -0.215488
     15 O                    -0.167728
     16 O                    -0.167481
     17 O                    -0.179106
     18 C                    -0.136826
     19 C                     0.022060
     20 C                    -0.146234
     21 C                    -0.141725
     22 C                     0.022063
     23 O                    -0.189677
     24 H                     0.087083
     25 H                     0.086158
     26 H                     0.092337
     27 H                     0.078968
     28 H                     0.072731
     29 H                     0.078727
     30 H                     0.072472
     31 H                     0.089850
     32 O                    -0.215673
     33 C                    -0.127281
     34 C                     0.024293
     35 C                    -0.144969
     36 C                    -0.142171
     37 C                     0.024620
     38 O                    -0.190812
     39 H                     0.086971
     40 H                     0.086458
     41 H                     0.091806
     42 H                     0.082187
     43 H                     0.077333
     44 H                     0.073533
     45 H                     0.076964
     46 H                     0.074094
     47 H                     0.092556
     48 H                     0.085982
     49 H                     0.091460
     50 H                     0.087410
     51 H                     0.086190
     52 H                     0.100371
     53 H                     0.082656
     54 H                     0.091580
     55 H                     0.090082
     56 H                     0.081701
  ----------------------------------------
  Sum of atomic charges =    -0.000000

 -----------------------------------------------------------------
                    Cartesian Multipole Moments
 -----------------------------------------------------------------
    Charge (ESU x 10^10)
                -0.0000
    Dipole Moment (Debye)
         X      -2.5550      Y      -0.4161      Z      -1.5996
       Tot       3.0430
    Quadrupole Moments (Debye-Ang)
        XX    -149.5633     XY       4.4229     YY    -147.4052
        XZ       3.6081     YZ      -5.9738     ZZ    -165.7523
    Octopole Moments (Debye-Ang^2)
       XXX    -101.9114    XXY      43.9851    XYY     -17.4025
       YYY     -31.4209    XXZ     -16.5917    XYZ     -27.5055
       YYZ      -1.0144    XZZ       3.3822    YZZ       0.7349
       ZZZ       1.8667
    Hexadecapole Moments (Debye-Ang^3)
      XXXX  -12368.4458   XXXY     -70.2430   XXYY   -2645.2224
      XYYY    -166.8567   YYYY   -3516.2563   XXXZ    -103.2156
      XXYZ     -87.0368   XYYZ      30.0315   YYYZ     -14.3822
      XXZZ   -2297.4906   XYZZ    -140.2427   YYZZ    -764.9915
      XZZZ    -187.2850   YZZZ     -76.7898   ZZZZ    -901.4461
 -----------------------------------------------------------------
Archival summary:
1\1\vega02.cac.cornell.edu\OPT\ProcedureUnspecified\STO-3G\102026\jj585\SatJan1313:59:042018SatJan1313:59:042018\0\\#,OPT,ProcedureUnspecified,STO-3G,\\0,1\O\C,1,1.44366\O,2,1.24875,1,124.21\C,1,1.47716,2,109.364,3,-16.7405,0\H,4,1.10839,1,105,2,-155.838,0\H,4,1.10943,1,111.18,2,-37.3717,0\C,2,1.56758,1,108.537,3,175.074,0\H,7,1.10647,2,106.52,1,73.8052,0\C,7,1.58044,2,116.368,1,-47.368,0\H,9,1.10384,7,112.707,2,106.392,0\C,9,1.5686,7,116.332,2,-20.6205,0\O,11,1.2506,9,126.271,7,167.493,0\O,11,1.4328,9,109.681,7,-22.1494,0\C,13,1.47963,11,110.236,9,-173.297,0\H,14,1.1056,13,105.937,11,176.375,0\H,14,1.10886,13,111.504,11,57.1409,0\H,14,1.1094,13,111.659,11,-64.4087,0\C,7,1.58672,2,113.692,1,-165.349,0\H,18,1.10748,7,113.932,2,-21.5412,0\O,18,1.48277,7,104.526,2,99.5468,0\C,20,1.48057,18,94.8743,7,53.4171,0\H,21,1.10763,20,110.679,18,178.453,0\C,18,1.57692,7,107.168,2,-152.051,0\H,23,1.10142,18,112.5,7,50.7681,0\H,23,1.1019,18,110.462,7,172.676,0\C,23,1.575,18,100.506,7,-69.6581,0\H,26,1.10137,23,111.772,18,-123.621,0\H,26,1.10197,23,112.597,18,113.761,0\C,4,1.59274,1,111.983,2,85.263,0\H,29,1.10837,4,108.592,1,141.213,0\H,29,1.1089,4,109.152,1,-100.411,0\O,29,1.48348,4,111.314,1,23.719,0\C,32,1.44888,29,112.141,4,-101.041,0\O,33,1.25105,32,120.89,29,86.5735,0\C,33,1.59337,32,117.189,29,-103.033,0\H,35,1.10652,33,107.765,32,-72.8773,0\C,35,1.58572,33,120.604,32,55.099,0\H,37,1.10635,35,106.693,33,-145.144,0\C,37,1.56289,35,120.283,33,-26.8024,0\O,39,1.25111,37,127.314,35,122.179,0\O,39,1.43309,37,107.83,35,-65.0041,0\C,41,1.48193,39,110.75,37,-172.626,0\H,42,1.10705,41,108.654,39,-128.853,0\H,42,1.10844,41,109.121,39,112.346,0\H,42,1.10877,41,109.815,39,-7.78634,0\C,35,1.58885,33,105.248,32,165.482,0\H,46,1.10703,35,112.873,33,38.8601,0\O,46,1.48472,35,100.817,33,-78.6169,0\C,48,1.48038,46,94.7762,35,-61.6364,0\H,49,1.10766,48,110.869,46,176.182,0\C,49,1.57538,48,102.5,46,-58.7641,0\H,51,1.10183,49,112.821,48,161.797,0\H,51,1.10199,49,110.323,48,-76.2016,0\C,51,1.57593,49,100.297,48,41.2818,0\H,54,1.10126,51,111.728,49,-124.971,0\H,54,1.10202,51,112.563,49,112.552,0\\\@

 Total job time:  83.05s(wall), 3953.45s(cpu) 
 Sat Jan 13 13:59:04 2018

        *************************************************************
        *                                                           *
        *  Thank you very much for using Q-Chem.  Have a nice day.  *
        *                                                           *
        *************************************************************


0 sent ACK to 0 
now end server 0 ... 
