mFile = /opt/software/qchem/qchem-5.0.1//bin/mpi/machines
Process 0 of 1 is on vega02.cac.cornell.edu - thread support 0
initial socket setup ...start
initial socket setup ...done 
now start server 0 ... 
vega02.cac.cornell.edu 10.84.3
Q-Chem Developer Version! Running on 10.84.3.*
                  Welcome to Q-Chem
     A Quantum Leap Into The Future Of Chemistry


 Q-Chem 5.0, Q-Chem, Inc., Pleasanton, CA (2017)

 Yihan Shao,  Zhengting Gan,  E. Epifanovsky,  A. T. B. Gilbert,  M. Wormit,  
 J. Kussmann,  A. W. Lange,  A. Behn,  Jia Deng,  Xintian Feng,  D. Ghosh,  
 M. Goldey,  P. R. Horn,  L. D. Jacobson,  I. Kaliman,  T. Kus,  A. Landau,  
 Jie Liu,  E. I. Proynov,  R. M. Richard,  R. P. Steele,  E. J. Sundstrom,  
 H. L. Woodcock III,  P. M. Zimmerman,  D. Zuev,  B. Albrecht,  E. Alguire,  
 S. A. Baeppler,  Z. Benda,  Y. A. Bernard,  E. J. Berquist,  K. B. Bravaya,  
 D. Casanova,  Chun-Min Chang,  Yunqing Chen,  A. Chien,  K. D. Closser,  
 M. P. Coons,  S. Dasgupta,  M. Diedenhofen,  Hainam Do,  R. G. Edgar,  
 Po-Tung Fang,  S. Fatehi,  Qingguo Feng,  Qinghui Ge,  A. Ghysels,  
 J. Gomes,  J. Gonthier,  A. Gunina,  M. W. D. Hanson-Heine,  
 P. H. P. Harbach,  A. W. Hauser,  J. E. Herr,  E. G. Hohenstein,  
 Z. C. Holden,  Kerwin Hui,  T.-C. Jagau,  Hyunjun Ji,  B. Kaduk,  
 K. Khistyaev,  Jaehoon Kim,  P. Klunzinger,  K. Koh,  D. Kosenkov,  
 T. Kowalczyk,  C. M. Krauter,  A. Kunitsa,  Ka Un Lao,  A. Laurent,  
 K. V. Lawler,  Joonho Lee,  D. Lefrancois,  S. Lehtola,  D. S. Levine,  
 Yi-Pei Li,  You-Sheng Lin,  Fenglai Liu,  E. Livshits,  A. Luenser,  
 P. Manohar,  E. Mansoor,  S. F. Manzer,  Shan-Ping Mao,  Yuezhi Mao,  
 N. Mardirossian,  A. V. Marenich,  L. A. Martinez-Martinez,  S. A. Maurer,  
 N. J. Mayhall,  S. C. McKenzie,  J.-M. Mewes,  A. F. Morrison,  K. Nanda,  
 T. S. Nguyen-Beck,  R. Olivares-Amaya,  J. A. Parkhill,  T. M. Perrine,  
 F. Plasser,  S. Prager,  A. Prociuk,  D. R. Rehn,  F. Rob,  M. Schneider,  
 N. Sergueev,  S. M. Sharada,  S. Sharma,  D. W. Small,  T. Stauch,  
 T. Stein,  Yu-Chuan Su,  A. J. W. Thom,  T. Tsuchimochi,  L. Vogt,  
 O. Vydrov,  M. A. Watson,  J. Wenzel,  M. de Wergifosse,  T. A. Wesolowski,  
 A. White,  J. Witte,  A. Yamada,  Jun Yang,  K. Yao,  S. Yeganeh,  
 S. R. Yost,  Zhi-Qiang You,  A. Zech,  Igor Ying Zhang,  Xing Zhang,  
 Yan Zhao,  Ying Zhu,  B. R. Brooks,  G. K. L. Chan,  C. J. Cramer,  
 M. S. Gordon,  W. J. Hehre,  A. Klamt,  M. W. Schmidt,  C. D. Sherrill,  
 D. G. Truhlar,  A. Aspuru-Guzik,  R. Baer,  A. T. Bell,  N. A. Besley,  
 Jeng-Da Chai,  A. Dreuw,  B. D. Dunietz,  T. R. Furlani,  Chao-Ping Hsu,  
 Yousung Jung,  Jing Kong,  D. S. Lambrecht,  WanZhen Liang,  C. Ochsenfeld,  
 V. A. Rassolov,  L. V. Slipchenko,  J. E. Subotnik,  T. Van Voorhis,  
 J. M. Herbert,  A. I. Krylov,  P. M. W. Gill,  M. Head-Gordon

 Contributors to earlier versions of Q-Chem not listed above: 
 R. D. Adamson,  B. Austin,  J. Baker,  G. J. O. Beran,  K. Brandhorst,  
 S. T. Brown,  E. F. C. Byrd,  A. K. Chakraborty,  C.-L. Cheng,  
 Siu Hung Chien,  D. M. Chipman,  D. L. Crittenden,  H. Dachsel,  
 R. A. DiStasio Jr.,  R. J. Doerksen,  A. D. Dutoi,  L. Fusti-Molnar,  
 W. A. Goddard III,  A. Golubeva-Zadorozhnaya,  S. R. Gwaltney,  G. Hawkins,  
 A. Heyden,  S. Hirata,  G. Kedziora,  F. J. Keil,  C. Kelley,  Jihan Kim,  
 R. A. King,  R. Z. Khaliullin,  P. P. Korambath,  W. Kurlancheek,  
 A. M. Lee,  M. S. Lee,  S. V. Levchenko,  Ching Yeh Lin,  D. Liotard,  
 R. C. Lochan,  I. Lotan,  P. E. Maslen,  N. Nair,  D. P. O'Neill,  
 D. Neuhauser,  E. Neuscamman,  C. M. Oana,  R. Olson,  B. Peters,  
 R. Peverati,  P. A. Pieniazek,  Y. M. Rhee,  J. Ritchie,  M. A. Rohrdanz,  
 E. Rosta,  N. J. Russ,  H. F. Schaefer III,  N. E. Schultz,  N. Shenvi,  
 A. C. Simmonett,  A. Sodt,  D. Stuck,  K. S. Thanthiriwatte,  V. Vanovschi,  
 Tao Wang,  A. Warshel,  C. F. Williams,  Q. Wu,  X. Xu,  W. Zhang

 Please cite Q-Chem as follows:
 Y. Shao et al., Mol. Phys. 113, 184-215 (2015)
 DOI: 10.1080/00268976.2014.952696

 Q-Chem 5.0.1 for Intel X86 EM64T Linux

 Parts of Q-Chem use Armadillo 5.200.1 (Boston Tea Smuggler).
 http://arma.sourceforge.net/

 Q-Chem begins on Sat Jan 13 14:49:23 2018  

Host: vega02.cac.cornell.edu
0

     Scratch files written to /scratch/jj585/SOT1001/0113c.save//
 Parallel job on  1  processors

Checking the input file for inconsistencies... 	...done.

--------------------------------------------------------------
User input:
--------------------------------------------------------------
$molecule
0  1
O -3.94934 -3.66094 2.70899
C -3.26408 -4.56952 2.26188
C -3.36658 -6.02376 2.66595
C -3.67062 -7.04199 1.55482
C -3.66228 -6.51543 0.13681
O -3.37991 -7.52975 -0.73316
C -4.10879 -7.43718 -1.96174
C -3.67372 -8.54474 -2.91576
O -4.10321 -9.81997 -2.41355
C -3.11464 -10.63358 -1.96643
C -3.62633 -11.96836 -1.4794
C -2.64727 -13.13887 -1.65153
C -1.20852 -12.75997 -1.93986
O -0.25482 -13.52428 -1.91084
O -2.29769 -4.26417 1.35397
O -1.0505 -11.81303 -2.91003
O -2.09245 -10.14913 -1.48782
C 0.13842 -11.36704 -3.46445
C -3.84698 -12.00731 0.04673
C -4.86076 -13.09714 0.38873
C -4.04767 -14.34126 0.09098
C -2.68511 -13.70999 -0.22186
O -2.65596 -12.54437 0.56619
H -4.5999 -12.16667 -1.98455
H -2.96775 -13.85947 -2.43559
H -4.16945 -11.03007 0.46959
H -5.03373 -13.0394 1.48756
H -5.8374 -13.03211 -0.13732
H -4.00123 -14.95849 1.01548
H -4.41146 -14.95433 -0.76199
H -1.86863 -14.44221 -0.03529
O -4.3342 -5.53905 -0.17966
C -2.05043 -2.99462 0.87584
C -2.03215 -6.55887 3.21218
C -2.28531 -7.76012 4.11981
C -2.67825 -8.80337 3.09757
C -2.48131 -8.01099 1.79988
O -1.41542 -7.14226 2.09274
H -4.13969 -6.0679 3.46651
H -4.64785 -7.55418 1.69941
H -1.76754 -2.31918 1.71128
H -1.44038 -5.7866 3.75149
H -1.30694 -8.05063 4.5655
H -3.02355 -7.58881 4.93256
H -1.94608 -9.63989 3.15355
H -3.7125 -9.19954 3.19155
H -2.30219 -8.73146 0.97443
H -2.95108 -2.5986 0.35978
H -1.21247 -3.0365 0.15025
H 0.21623 -10.27029 -3.31578
H 0.13539 -11.57916 -4.55325
H 1.03277 -11.84024 -3.00617
H -4.16277 -8.39091 -3.90097
H -2.57579 -8.46766 -3.09263
H -3.8747 -6.47013 -2.46342
H -5.20574 -7.50437 -1.78254
$end

$opt
CONSTRAINT
tors           1           2           3           4    +121.694
tors           3           4           5           6    +154.493
tors           4           5           6           7    +143.003
tors           5           6           7           8    +176.189
tors           6           7           8           9     +68.554
tors           7           8           9          10    -110.040
tors           8           9          10          11    -178.779
tors           9          10          11          12    +149.668
tors          11          12          13          14    +168.463
ENDCONSTRAINT
$end

$rem
JOBTYPE                   OPT
METHOD                    B3LYP
DFT_D                     d3_op
BASIS                     STO-3G
GEOM_OPT_MAX_CYCLES       100
GEOM_OPT_TOL_GRADIENT     300
GEOM_OPT_TOL_DISPLACEMENT 1200
GEOM_OPT_TOL_ENERGY       100
SYMMETRY                  False
THRESH                    12
SCF_CONVERGENCE           8
MAX_SUB_FILE_NUM          128
MEM_STATIC                400
MEM_TOTAL                 4000
$end
--------------------------------------------------------------
 Adding empirical dispersion correction 
 ----------------------------------------------------------------
 Doing -D3(op) with
 s6 =   1.00000
 s8 =   0.78311
 a1 =   0.30000
 a2 =   4.25000
 n  =  10.00000
 -D3 energy without 3body term =     -0.0672563244 hartrees
 ----------------------------------------------------------------
             Standard Nuclear Orientation (Angstroms)
    I     Atom           X                Y                Z
 ----------------------------------------------------------------
    1      O      -6.1085382567     0.3482434018     0.6900484785
    2      C      -5.0527704253     0.2299729459     0.0847612560
    3      C      -3.8939471950     1.2003959151     0.1480129305
    4      C      -2.5382528029     0.6463416764     0.6159436382
    5      C      -2.4489134830    -0.8526232408     0.7981797822
    6      O      -1.1539754529    -1.2614736020     0.6518836424
    7      C      -0.7942976567    -2.3223706090     1.5431599740
    8      C       0.6298941452    -2.7879483831     1.2584772264
    9      O       1.5636753768    -1.7617217152     1.6296908235
   10      C       2.1940044324    -1.1462199952     0.5986762331
   11      C       3.1827037923    -0.0994629648     1.0541274602
   12      C       4.3871003260     0.1020090054     0.1229352591
   13      C       4.2542924908    -0.4886741628    -1.2663654410
   14      O       5.0052010542    -0.2674448237    -2.2053806354
   15      O      -4.9014799537    -0.8339921116    -0.7498274883
   16      O       3.7899400672    -1.7717016835    -1.2997229107
   17      O       1.6285018893    -1.0348935785    -0.4859642757
   18      C       3.6858467755    -2.6001006883    -2.4054982307
   19      C       2.5902463863     1.3246935312     1.0611130752
   20      C       3.3795195540     2.2016422366     2.0308821983
   21      C       4.6903709966     2.3396167242     1.2823927051
   22      C       4.3317744456     1.6332698127    -0.0311608668
   23      O       2.9526586105     1.8683794678    -0.1838221671
   24      H       3.5008413075    -0.3572583568     2.0907913309
   25      H       5.3384765823    -0.2751868092     0.5580541055
   26      H       1.5060747968     1.3488249833     1.3096792348
   27      H       2.8736465516     3.1938371133     2.0488190211
   28      H       3.4653494135     1.8180691623     3.0702512977
   29      H       4.8858022894     3.4221180742     1.1155777370
   30      H       5.5682966223     1.8615393340     1.7686482084
   31      H       4.9807953742     2.0007694658    -0.8565758672
   32      O      -3.2589438373    -1.4547514707     1.4954889473
   33      C      -5.8520832050    -1.8138927660    -0.9438665901
   34      C      -3.5343623187     1.7500349967    -1.2426735715
   35      C      -2.8190766588     3.0916097725    -1.1032916840
   36      C      -1.4822603408     2.6390420672    -0.5593692376
   37      C      -1.6712511989     1.1177489188    -0.5838718101
   38      O      -2.5101190150     0.8991319720    -1.6907086103
   39      H      -4.2275790771     2.0372611564     0.8029099151
   40      H      -2.1947313032     1.1049268465     1.5698387887
   41      H      -6.7854024197    -1.3672173987    -1.3483444004
   42      H      -4.4162385818     1.8515773565    -1.9130699972
   43      H      -2.6665861421     3.4940503031    -2.1304390710
   44      H      -3.3520055048     3.8475248241    -0.4872663144
   45      H      -0.6912323921     2.9410871181    -1.2818759513
   46      H      -1.2282227137     3.0115244037     0.4565922602
   47      H      -0.6695467975     0.6421262250    -0.6377238588
   48      H      -6.0674002106    -2.3324693552     0.0147976341
   49      H      -5.4656211440    -2.5557762603    -1.6723360132
   50      H       2.6297787184    -2.9216215909    -2.5166840910
   51      H       4.3167644837    -3.4988948296    -2.2486497296
   52      H       3.9944341292    -2.1016280004    -3.3489491014
   53      H       0.8520917780    -3.6827407836     1.8777082716
   54      H       0.7048764288    -3.1132873122     0.1948951437
   55      H      -1.4600727025    -3.1988018632     1.3691527958
   56      H      -0.8791817027    -1.9990694142     2.6053263803
 ----------------------------------------------------------------
 Molecular Point Group                 C1    NOp =  1
 Largest Abelian Subgroup              C1    NOp =  1
 Nuclear Repulsion Energy =  3240.2116426833 hartrees
 There are      113 alpha and      113 beta electrons
 Requested basis set is STO-3G
 There are 86 shells and 176 basis functions

 Total QAlloc Memory Limit   4000 MB
 Mega-Array Size       392 MB
 MEM_STATIC part       400 MB
 A cutoff of  1.0D-12 yielded   2315 shell pairs
 There are     11000 function pairs
 
 -------------------------------------------------------
 OpenMP Integral Computing Module                       
 Release: version 1.0, May 2013, Q-Chem Inc. Pittsburgh 
 -------------------------------------------------------
 Integral Job Info:
 Integral job number is                      11
 Integral operator is                         1
 short-range coefficients                     0
 long-range coefficients              100000000
 Omega coefficients                           0
 if combine SR and LR in K                    0
 Integral screening is                        0
 Integral computing path is                   2
 max size of driver memory is            800000
 size of driver memory is                 45569
 size of scratch memory is              1046100
 max col of scratch BK array                289
 max len of scratch array in speh3           22
 max len of scratch index in speh4            8
 max int batch size is                      520
 min int batch size is                       52
 fixed nKL is                                52
 max L of basis functions is                  1
 order of int derivative is                   0
 number of shells is                         86
 number of basis is                         176
 number of cartesian basis is               176
 number of contracted shell pairs          2315
 number of primitive shell pairs          11469
 maxK2 (contraction) of shell pair            9
 max number of K2 of shell pair               1
 max number of CS2 of shell pair            336
 max number of PS2 of shell pair           1242
 mem total for path MDJ                   51530
 -------------------------------------------------------
 Smallest overlap matrix eigenvalue = 1.93E-01

 Scale SEOQF with 1.000000e-02/1.000000e-01/1.000000e-01

 Standard Electronic Orientation quadrupole field applied
 Nucleus-field energy     =     0.0000000200 hartrees
 Guess from superposition of atomic densities
 Warning:  Energy on first SCF cycle will be non-variational
 A restricted hybrid HF-DFT SCF calculation will be
 performed using Pulay DIIS extrapolation
 Exchange:     0.2000 Hartree-Fock + 0.0800 Slater + 0.7200 B88
 Correlation:  0.1900 VWN1RPA + 0.8100 LYP
 Using SG-1 standard quadrature grid
 Dispersion:   Grimme D3
 SCF converges when DIIS error is below 1.0E-08
 using 48 threads for integral computing
 -------------------------------------------------------
 OpenMP Integral computing Module                
 Release: version 1.0, May 2013, Q-Chem Inc. Pittsburgh 
 -------------------------------------------------------
 -------------------------------------------------------
 OpenMP BLAS3 based DFT computing Module                
 Release: version 1.0, May 2013, Q-Chem Inc. Pittsburgh 
 -------------------------------------------------------
 ---------------------------------------
  Cycle       Energy         DIIS Error
 ---------------------------------------
    1   -1509.4399919220      8.29E-02
    2   -1509.5572741724      1.05E-02
    3   -1507.4962944388      2.53E-02
    4   -1510.0528155351      3.57E-03
    5   -1510.1032393328      1.28E-03
    6   -1510.1099354027      4.27E-04
    7   -1510.1106592639      1.47E-04
    8   -1510.1107504312      3.15E-05
    9   -1510.1107542482      1.27E-05
   10   -1510.1107548984      4.28E-06
   11   -1510.1107549779      8.83E-07
   12   -1510.1107549812      2.48E-07
   13   -1510.1107549815      1.55E-07
   14   -1510.1107549815      3.85E-08
   15   -1510.1107549815      8.10E-09 Convergence criterion met
 ---------------------------------------
 SCF time:  CPU 110.73 s  wall 2.38 s
 SCF   energy in the final basis set = -1510.11075498
 Total energy in the final basis set = -1510.11075498
 
 --------------------------------------------------------------
 
                    Orbital Energies (a.u.)
 --------------------------------------------------------------
 
 Alpha MOs
 -- Occupied --
-18.944 -18.943 -18.919 -18.913 -18.903 -18.894 -18.869 -18.855
-18.851 -18.845 -10.111 -10.108 -10.108 -10.101 -10.090 -10.088
-10.073 -10.072 -10.072 -10.070 -10.063 -10.057 -10.048 -10.039
-10.037 -10.034 -10.020 -10.019 -10.010 -10.008  -1.051  -1.044
 -1.036  -1.032  -1.028  -1.018  -0.954  -0.945  -0.936  -0.931
 -0.786  -0.778  -0.749  -0.744  -0.735  -0.724  -0.714  -0.674
 -0.670  -0.634  -0.610  -0.588  -0.557  -0.547  -0.541  -0.532
 -0.528  -0.523  -0.504  -0.499  -0.485  -0.484  -0.466  -0.454
 -0.449  -0.443  -0.429  -0.425  -0.421  -0.420  -0.417  -0.413
 -0.408  -0.398  -0.391  -0.381  -0.379  -0.370  -0.366  -0.362
 -0.351  -0.346  -0.342  -0.336  -0.330  -0.324  -0.322  -0.317
 -0.312  -0.308  -0.304  -0.300  -0.297  -0.295  -0.292  -0.277
 -0.273  -0.249  -0.244  -0.240  -0.229  -0.216  -0.215  -0.184
 -0.177  -0.161  -0.161  -0.156  -0.154  -0.145  -0.138  -0.131
 -0.130
 -- Virtual --
  0.092   0.098   0.103   0.127   0.240   0.257   0.258   0.279
  0.293   0.300   0.319   0.334   0.338   0.343   0.347   0.360
  0.370   0.376   0.380   0.385   0.387   0.390   0.394   0.399
  0.406   0.409   0.410   0.411   0.413   0.418   0.425   0.427
  0.429   0.437   0.441   0.443   0.446   0.449   0.457   0.463
  0.464   0.468   0.470   0.475   0.478   0.482   0.486   0.491
  0.494   0.501   0.504   0.523   0.529   0.545   0.547   0.560
  0.572   0.575   0.591   0.672   0.674   0.691   0.699
 --------------------------------------------------------------
 
          Ground-State Mulliken Net Atomic Charges

     Atom                 Charge (a.u.)
  ----------------------------------------
      1 O                    -0.238143
      2 C                     0.239649
      3 C                    -0.082099
      4 C                    -0.077896
      5 C                     0.236986
      6 O                    -0.189207
      7 C                    -0.032963
      8 C                    -0.034209
      9 O                    -0.194205
     10 C                     0.235515
     11 C                    -0.082128
     12 C                    -0.076989
     13 C                     0.241828
     14 O                    -0.234911
     15 O                    -0.212864
     16 O                    -0.213240
     17 O                    -0.225665
     18 C                    -0.100831
     19 C                     0.041036
     20 C                    -0.141504
     21 C                    -0.144079
     22 C                     0.040130
     23 O                    -0.208735
     24 H                     0.081819
     25 H                     0.093057
     26 H                     0.083369
     27 H                     0.075731
     28 H                     0.073181
     29 H                     0.076934
     30 H                     0.072210
     31 H                     0.091926
     32 O                    -0.225241
     33 C                    -0.096857
     34 C                     0.041337
     35 C                    -0.142732
     36 C                    -0.144629
     37 C                     0.035904
     38 O                    -0.208874
     39 H                     0.088552
     40 H                     0.086669
     41 H                     0.083628
     42 H                     0.082302
     43 H                     0.074815
     44 H                     0.071218
     45 H                     0.078188
     46 H                     0.067556
     47 H                     0.097420
     48 H                     0.088340
     49 H                     0.092436
     50 H                     0.086974
     51 H                     0.084526
     52 H                     0.093004
     53 H                     0.089915
     54 H                     0.101277
     55 H                     0.092177
     56 H                     0.088394
  ----------------------------------------
  Sum of atomic charges =     0.000000

 -----------------------------------------------------------------
                    Cartesian Multipole Moments
 -----------------------------------------------------------------
    Charge (ESU x 10^10)
                -0.0000
    Dipole Moment (Debye)
         X       2.1665      Y      -0.9011      Z       2.3006
       Tot       3.2861
    Quadrupole Moments (Debye-Ang)
        XX    -171.4268     XY      -1.7247     YY    -145.3889
        XZ      16.5161     YZ       3.5166     ZZ    -162.1304
    Octopole Moments (Debye-Ang^2)
       XXX      78.2864    XXY     -23.5203    XYY      -9.7927
       YYY     -60.3484    XXZ     -18.5558    XYZ       7.8823
       YYZ      -8.1657    XZZ      -6.5094    YZZ     -15.7854
       ZZZ      -5.3090
    Hexadecapole Moments (Debye-Ang^3)
      XXXX  -12792.6451   XXXY     158.8960   XXYY   -2375.3942
      XYYY     -29.1992   YYYY   -2924.3508   XXXZ     565.3278
      XXYZ      65.4092   XYYZ     -37.3885   YYYZ      -4.9041
      XXZZ   -2391.6682   XYZZ     -34.3856   YYZZ    -734.2225
      XZZZ     -53.7891   YZZZ       4.2358   ZZZZ   -1602.3006
 -----------------------------------------------------------------
 Calculating analytic gradient of the SCF energy
 Gradient of SCF Energy
            1           2           3           4           5           6
    1   0.0564323   0.0203492   0.0129765  -0.0169778   0.0119483  -0.0569551
    2  -0.0195765   0.0119133  -0.0210164  -0.0279520  -0.0190725  -0.0134287
    3  -0.0414402  -0.0114376  -0.0264088   0.0072869  -0.0333186   0.0363082
            7           8           9          10          11          12
    1   0.0231898  -0.0032977  -0.0144635   0.0176961  -0.0291404  -0.0098612
    2   0.0312192   0.0234568   0.0255453  -0.0440838   0.0294812   0.0054661
    3  -0.0151474   0.0165761  -0.0738727   0.0233451  -0.0535854  -0.0197982
           13          14          15          16          17          18
    1  -0.0312321  -0.0441890  -0.1121113   0.0520942   0.0218586  -0.0017351
    2   0.0428169  -0.0690650  -0.0110379   0.0381211   0.0087987   0.0093275
    3   0.0224370   0.0651327   0.0520648  -0.1056600   0.0642797   0.0486942
           19          20          21          22          23          24
    1   0.0547450   0.0137545  -0.0402445  -0.0681762   0.0473365  -0.0017405
    2   0.0123260  -0.0223767  -0.0192607  -0.0153662  -0.0328913  -0.0006422
    3  -0.0445799  -0.0458678  -0.0141022   0.0259552   0.0648247   0.0079058
           25          26          27          28          29          30
    1   0.0047620  -0.0008969  -0.0029394   0.0017357  -0.0071664   0.0064258
    2  -0.0020220  -0.0008429   0.0086235  -0.0010684   0.0110848  -0.0065967
    3   0.0018982   0.0133362  -0.0065497   0.0081958   0.0016289   0.0004902
           31          32          33          34          35          36
    1   0.0119472   0.0467572   0.0506191   0.0601908   0.0153242  -0.0376044
    2   0.0023033   0.0401810   0.0257570  -0.0300245  -0.0496628  -0.0273332
    3   0.0056773  -0.0190211  -0.0090584   0.0164486   0.0138590  -0.0146211
           37          38          39          40          41          42
    1  -0.0672532  -0.0082000  -0.0005628   0.0034489   0.0071246  -0.0058361
    2   0.0073920   0.0498850   0.0086821   0.0029910   0.0058947   0.0114645
    3  -0.0290404   0.0691751   0.0022031   0.0037785  -0.0009911   0.0028802
           43          44          45          46          47          48
    1   0.0059348  -0.0027895   0.0002050   0.0017531   0.0078991   0.0076304
    2  -0.0023490   0.0063178   0.0043258  -0.0000362   0.0124536   0.0044905
    3  -0.0098180   0.0047013  -0.0125898   0.0085663   0.0053106   0.0005444
           49          50          51          52          53          54
    1  -0.0026786   0.0023607  -0.0014576  -0.0027558   0.0014869  -0.0034687
    2  -0.0023648   0.0023005   0.0021000   0.0002830   0.0000145  -0.0079027
    3  -0.0001185   0.0007500   0.0016786   0.0019676  -0.0036766  -0.0000671
           55          56
    1   0.0027801   0.0029672
    2   0.0002182   0.0007382
    3  -0.0071668   0.0000370
 Max gradient component =       1.121E-01
 RMS gradient           =       2.882E-02
 Gradient time:  CPU 32.01 s  wall 0.69 s
 Geometry Optimization Parameters
   NAtoms,    NIC,     NZ,  NCons,   NDum,   NFix, NCnnct, MaxDiis
       56     458       0       9       0       0       0       0


** CONSTRAINED OPTIMIZATION IN DELOCALIZED INTERNAL COORDINATES **
   Searching for a Minimum

   Optimization Cycle:   1

                       Coordinates (Angstroms)
     ATOM                X               Y               Z
      1  O        -6.1085382567    0.3482434018    0.6900484785
      2  C        -5.0527704253    0.2299729459    0.0847612560
      3  C        -3.8939471950    1.2003959151    0.1480129305
      4  C        -2.5382528029    0.6463416764    0.6159436382
      5  C        -2.4489134830   -0.8526232408    0.7981797822
      6  O        -1.1539754529   -1.2614736020    0.6518836424
      7  C        -0.7942976567   -2.3223706090    1.5431599740
      8  C         0.6298941452   -2.7879483831    1.2584772264
      9  O         1.5636753768   -1.7617217152    1.6296908235
     10  C         2.1940044324   -1.1462199952    0.5986762331
     11  C         3.1827037923   -0.0994629648    1.0541274602
     12  C         4.3871003260    0.1020090054    0.1229352591
     13  C         4.2542924908   -0.4886741628   -1.2663654410
     14  O         5.0052010542   -0.2674448237   -2.2053806354
     15  O        -4.9014799537   -0.8339921116   -0.7498274883
     16  O         3.7899400672   -1.7717016835   -1.2997229107
     17  O         1.6285018893   -1.0348935785   -0.4859642757
     18  C         3.6858467755   -2.6001006883   -2.4054982307
     19  C         2.5902463863    1.3246935312    1.0611130752
     20  C         3.3795195540    2.2016422366    2.0308821983
     21  C         4.6903709966    2.3396167242    1.2823927051
     22  C         4.3317744456    1.6332698127   -0.0311608668
     23  O         2.9526586105    1.8683794678   -0.1838221671
     24  H         3.5008413075   -0.3572583568    2.0907913309
     25  H         5.3384765823   -0.2751868092    0.5580541055
     26  H         1.5060747968    1.3488249833    1.3096792348
     27  H         2.8736465516    3.1938371133    2.0488190211
     28  H         3.4653494135    1.8180691623    3.0702512977
     29  H         4.8858022894    3.4221180742    1.1155777370
     30  H         5.5682966223    1.8615393340    1.7686482084
     31  H         4.9807953742    2.0007694658   -0.8565758672
     32  O        -3.2589438373   -1.4547514707    1.4954889473
     33  C        -5.8520832050   -1.8138927660   -0.9438665901
     34  C        -3.5343623187    1.7500349967   -1.2426735715
     35  C        -2.8190766588    3.0916097725   -1.1032916840
     36  C        -1.4822603408    2.6390420672   -0.5593692376
     37  C        -1.6712511989    1.1177489188   -0.5838718101
     38  O        -2.5101190150    0.8991319720   -1.6907086103
     39  H        -4.2275790771    2.0372611564    0.8029099151
     40  H        -2.1947313032    1.1049268465    1.5698387887
     41  H        -6.7854024197   -1.3672173987   -1.3483444004
     42  H        -4.4162385818    1.8515773565   -1.9130699972
     43  H        -2.6665861421    3.4940503031   -2.1304390710
     44  H        -3.3520055048    3.8475248241   -0.4872663144
     45  H        -0.6912323921    2.9410871181   -1.2818759513
     46  H        -1.2282227137    3.0115244037    0.4565922602
     47  H        -0.6695467975    0.6421262250   -0.6377238588
     48  H        -6.0674002106   -2.3324693552    0.0147976341
     49  H        -5.4656211440   -2.5557762603   -1.6723360132
     50  H         2.6297787184   -2.9216215909   -2.5166840910
     51  H         4.3167644837   -3.4988948296   -2.2486497296
     52  H         3.9944341292   -2.1016280004   -3.3489491014
     53  H         0.8520917780   -3.6827407836    1.8777082716
     54  H         0.7048764288   -3.1132873122    0.1948951437
     55  H        -1.4600727025   -3.1988018632    1.3691527958
     56  H        -0.8791817027   -1.9990694142    2.6053263803
   Point Group: c1    Number of degrees of freedom:   162


   Energy is  -1510.110754982

              Constraints and their Current Values
                                        Value     Constraint
   Dihedral:        1   2   3   4      121.694      121.694
   Dihedral:        3   4   5   6      154.493      154.493
   Dihedral:        4   5   6   7      143.003      143.003
   Dihedral:        5   6   7   8      176.189      176.189
   Dihedral:        6   7   8   9       68.554       68.554
   Dihedral:        7   8   9  10     -110.040     -110.040
   Dihedral:        8   9  10  11     -178.778     -178.779
   Dihedral:        9  10  11  12      149.668      149.668
   Dihedral:       11  12  13  14      168.463      168.463

 Attempting to Generate Delocalized Internal Coordinates

   Using Lagrange Multiplier Algorithm


171 Hessian modes will be used to form the next step
  Hessian Eigenvalues:
    -0.977753   -0.977753   -0.977753   -0.977753   -0.977753   -0.977753
    -0.977753   -0.977753   -0.977753    0.045000    0.045000    0.045000
     0.045000    0.045017    0.045565    0.045605    0.048748    0.048854
     0.048900    0.048926    0.050009    0.054547    0.059989    0.060022
     0.062570    0.063004    0.067041    0.067093    0.067507    0.067878
     0.070229    0.071063    0.072617    0.073695    0.074122    0.075841
     0.076075    0.076734    0.076986    0.082467    0.082626    0.083593
     0.083822    0.084377    0.084515    0.085766    0.085811    0.086282
     0.086743    0.086990    0.087349    0.088583    0.088905    0.089123
     0.089294    0.089675    0.089929    0.093906    0.093937    0.096653
     0.096715    0.111520    0.111568    0.112778    0.114659    0.115926
     0.116106    0.116536    0.117231    0.117695    0.118609    0.118828
     0.122453    0.122999    0.129721    0.131024    0.131082    0.138858
     0.140815    0.160000    0.160000    0.160000    0.160000    0.160000
     0.160000    0.171007    0.171764    0.172312    0.172669    0.219987
     0.221412    0.222372    0.223554    0.231652    0.239129    0.240762
     0.249928    0.250000    0.250000    0.250000    0.250000    0.250000
     0.250000    0.250000    0.250000    0.258214    0.258692    0.267150
     0.267317    0.278345    0.280275    0.281300    0.284086    0.295170
     0.296271    0.298745    0.308054    0.310698    0.310864    0.313317
     0.321019    0.321174    0.321489    0.321949    0.322013    0.322153
     0.322302    0.322749    0.323101    0.323286    0.323302    0.323397
     0.323466    0.323808    0.324264    0.324406    0.324665    0.324725
     0.324944    0.324998    0.325191    0.325347    0.325796    0.326517
     0.326770    0.326807    0.368969    0.370210    0.384154    0.385686
     0.401007    0.407720    0.480970    0.492947    0.517911    0.519734
     0.528104    0.537330    0.918136    0.924485    0.941950    0.942753
     1.022753    1.022753    1.022753    1.022753    1.022753    1.022753
     1.022753    1.022753    1.022753

 Minimum Search - Taking P-RFO Step
 Searching for Lamda that Maximizes Along the Constraint modes Only
 Value Taken    Lamda =   0.00218085
 Searching for Lamda that Minimizes Along All other modes
 Value Taken    Lamda =  -0.18367972
 Calculated Step too Large.  Step scaled by  0.502084
 Step Taken.  Stepsize is  0.300000

                             Maximum     Tolerance    Cnvgd?
         Gradient            0.113494       0.000300      NO
         Displacement        0.093324       0.001200      NO
         Energy change     *********       0.000001      NO


 New Cartesian Coordinates Obtained by Inverse Iteration

 Displacement from previous Coordinates is:  0.979855
 Adding empirical dispersion correction 
 ----------------------------------------------------------------
 Doing -D3(op) with
 s6 =   1.00000
 s8 =   0.78311
 a1 =   0.30000
 a2 =   4.25000
 n  =  10.00000
 -D3 energy without 3body term =     -0.0671159191 hartrees
 ----------------------------------------------------------------
             Standard Nuclear Orientation (Angstroms)
    I     Atom           X                Y                Z
 ----------------------------------------------------------------
    1      O      -6.1488817811     0.3933208656     0.7051196517
    2      C      -5.0779098510     0.2585326886     0.0958586421
    3      C      -3.8990537685     1.2307007603     0.1519068913
    4      C      -2.5391179731     0.6559390461     0.6356328561
    5      C      -2.4875659262    -0.8655211569     0.8379982264
    6      O      -1.1780370989    -1.3044220947     0.6963161346
    7      C      -0.8253574958    -2.3721867068     1.6057397992
    8      C       0.6081608217    -2.8372333987     1.2912387730
    9      O       1.5531572176    -1.7990918883     1.6474605293
   10      C       2.1628544489    -1.1820683634     0.5699811469
   11      C       3.1667746181    -0.1208524964     1.0306971864
   12      C       4.3891635810     0.1182618136     0.0930024082
   13      C       4.3049216372    -0.4853361472    -1.3179994069
   14      O       5.0926302535    -0.2164326405    -2.2420779991
   15      O      -4.8795219700    -0.8117499201    -0.7509112409
   16      O       3.8418392569    -1.7949658376    -1.3067989618
   17      O       1.5802066574    -1.0986230768    -0.5261744628
   18      C       3.7989769381    -2.6115643939    -2.4502442681
   19      C       2.5345551017     1.3101606498     1.0342226207
   20      C       3.3135568045     2.2060848948     2.0268089238
   21      C       4.6447856401     2.3745721524     1.2777908556
   22      C       4.3060396220     1.6656593543    -0.0620159771
   23      O       2.8980742064     1.8763597849    -0.2314422251
   24      H       3.4866183808    -0.3748558047     2.0638096806
   25      H       5.3400630310    -0.2411567720     0.5367732070
   26      H       1.4490695957     1.3110055658     1.2688465984
   27      H       2.7921841892     3.1847248205     2.0533607755
   28      H       3.3976799274     1.8157482242     3.0592219567
   29      H       4.8293797460     3.4550478484     1.1180246777
   30      H       5.5224718654     1.9102266431     1.7680711644
   31      H       4.9502069876     2.0455576796    -0.8831245555
   32      O      -3.3296369316    -1.4676004787     1.5233479008
   33      C      -5.8726769375    -1.7909249912    -0.9193236647
   34      C      -3.5142230452     1.7716946437    -1.2604995447
   35      C      -2.7725405691     3.1219314889    -1.1095160080
   36      C      -1.4284048068     2.6440604003    -0.5377521833
   37      C      -1.6365388754     1.1046867549    -0.5664321974
   38      O      -2.4787559477     0.8878832554    -1.7026792174
   39      H      -4.2277040352     2.0722922172     0.7960536095
   40      H      -2.1994408499     1.1146668730     1.5874516912
   41      H      -6.8084741453    -1.3472544129    -1.3260510119
   42      H      -4.3845115017     1.8723974542    -1.9426433989
   43      H      -2.6045999031     3.5251146135    -2.1288073707
   44      H      -3.3039169046     3.8802012786    -0.5028706935
   45      H      -0.6208808076     2.9324463634    -1.2396430455
   46      H      -1.1875700125     3.0134806365     0.4778500738
   47      H      -0.6483473383     0.6019845146    -0.6054318758
   48      H      -6.1006578448    -2.2979890491     0.0444368194
   49      H      -5.4979404601    -2.5478712077    -1.6377805799
   50      H       2.7546763127    -2.9532857384    -2.6149726988
   51      H       4.4417771284    -3.5026899171    -2.2894870962
   52      H       4.1393786444    -2.0866208142    -3.3695056552
   53      H       0.8425283793    -3.7305871827     1.9097120290
   54      H       0.6696154320    -3.1578461328     0.2265328338
   55      H      -1.5000687447    -3.2455207775     1.4490350721
   56      H      -0.9001445735    -2.0443468448     2.6672604443
 ----------------------------------------------------------------
 Molecular Point Group                 C1    NOp =  1
 Largest Abelian Subgroup              C1    NOp =  1
 Nuclear Repulsion Energy =  3213.3754065229 hartrees
 There are      113 alpha and      113 beta electrons
 Applying Cartesian multipole field
    Component          Value
    ---------          -----
     (2,0,0)        1.00000E-12
     (0,2,0)        2.00000E-11
     (0,0,2)       -3.00000E-11
 Nucleus-field energy     =     0.0000000201 hartrees
 Requested basis set is STO-3G
 There are 86 shells and 176 basis functions
 A cutoff of  1.0D-12 yielded   2307 shell pairs
 There are     10986 function pairs
 Smallest overlap matrix eigenvalue = 2.01E-01
 Guess MOs from SCF MO coefficient file
 Reading MOs from coefficient file
 Reading MOs from coefficient file
 A restricted hybrid HF-DFT SCF calculation will be
 performed using Pulay DIIS extrapolation
 Exchange:     0.2000 Hartree-Fock + 0.0800 Slater + 0.7200 B88
 Correlation:  0.1900 VWN1RPA + 0.8100 LYP
 Using SG-1 standard quadrature grid
 Dispersion:   Grimme D3
 SCF converges when DIIS error is below 1.0E-08
 Geometry optimization detected.  Setting ReadMinima to 0
 Setting SaveMinima to 0
 using 48 threads for integral computing
 -------------------------------------------------------
 OpenMP Integral computing Module                
 Release: version 1.0, May 2013, Q-Chem Inc. Pittsburgh 
 -------------------------------------------------------
 -------------------------------------------------------
 OpenMP BLAS3 based DFT computing Module                
 Release: version 1.0, May 2013, Q-Chem Inc. Pittsburgh 
 -------------------------------------------------------
 ---------------------------------------
  Cycle       Energy         DIIS Error
 ---------------------------------------
    1   -1510.0156028616      3.24E-03
    2   -1510.1802837099      9.40E-04
    3   -1510.1733095809      1.59E-03
    4   -1510.1839058422      2.94E-04
    5   -1510.1843121437      5.37E-05
    6   -1510.1843243562      2.12E-05
    7   -1510.1843256633      1.33E-05
    8   -1510.1843264443      2.15E-06
    9   -1510.1843264663      8.10E-07
   10   -1510.1843264683      4.70E-07
   11   -1510.1843264694      1.05E-07
   12   -1510.1843264695      2.55E-08
   13   -1510.1843264695      2.05E-08
   14   -1510.1843264695      7.97E-09 Convergence criterion met
 ---------------------------------------
 SCF time:  CPU 99.46 s  wall 2.08 s
 SCF   energy in the final basis set = -1510.18432647
 Total energy in the final basis set = -1510.18432647
 
 --------------------------------------------------------------
 
                    Orbital Energies (a.u.)
 --------------------------------------------------------------
 
 Alpha MOs
 -- Occupied --
-18.940 -18.938 -18.923 -18.921 -18.901 -18.891 -18.869 -18.858
-18.857 -18.848 -10.106 -10.103 -10.103 -10.096 -10.087 -10.085
-10.069 -10.069 -10.068 -10.067 -10.060 -10.054 -10.046 -10.039
-10.037 -10.033 -10.020 -10.019 -10.011 -10.009  -1.037  -1.029
 -1.023  -1.020  -1.008  -0.998  -0.945  -0.938  -0.930  -0.929
 -0.777  -0.770  -0.741  -0.735  -0.727  -0.716  -0.707  -0.670
 -0.664  -0.628  -0.605  -0.584  -0.553  -0.544  -0.539  -0.530
 -0.524  -0.519  -0.497  -0.494  -0.478  -0.476  -0.458  -0.447
 -0.443  -0.437  -0.424  -0.420  -0.416  -0.415  -0.413  -0.408
 -0.403  -0.394  -0.385  -0.375  -0.373  -0.366  -0.360  -0.356
 -0.348  -0.342  -0.340  -0.336  -0.329  -0.323  -0.323  -0.314
 -0.309  -0.306  -0.301  -0.296  -0.296  -0.292  -0.290  -0.274
 -0.270  -0.249  -0.243  -0.239  -0.229  -0.223  -0.222  -0.181
 -0.176  -0.162  -0.162  -0.155  -0.152  -0.143  -0.141  -0.138
 -0.133
 -- Virtual --
  0.089   0.092   0.096   0.120   0.236   0.251   0.255   0.270
  0.287   0.292   0.306   0.324   0.327   0.338   0.345   0.355
  0.359   0.366   0.371   0.375   0.381   0.382   0.384   0.394
  0.396   0.400   0.401   0.403   0.408   0.410   0.416   0.417
  0.424   0.426   0.432   0.433   0.442   0.445   0.446   0.449
  0.456   0.458   0.460   0.464   0.466   0.470   0.473   0.479
  0.486   0.490   0.495   0.506   0.507   0.518   0.529   0.548
  0.559   0.564   0.569   0.642   0.653   0.662   0.676
 --------------------------------------------------------------
 
          Ground-State Mulliken Net Atomic Charges

     Atom                 Charge (a.u.)
  ----------------------------------------
      1 O                    -0.230079
      2 C                     0.227948
      3 C                    -0.081763
      4 C                    -0.076439
      5 C                     0.227398
      6 O                    -0.185430
      7 C                    -0.036012
      8 C                    -0.037780
      9 O                    -0.188433
     10 C                     0.224864
     11 C                    -0.080763
     12 C                    -0.075203
     13 C                     0.228281
     14 O                    -0.225478
     15 O                    -0.199347
     16 O                    -0.199808
     17 O                    -0.217731
     18 C                    -0.108358
     19 C                     0.035876
     20 C                    -0.142615
     21 C                    -0.144843
     22 C                     0.034772
     23 O                    -0.200025
     24 H                     0.082734
     25 H                     0.091310
     26 H                     0.082983
     27 H                     0.075858
     28 H                     0.073724
     29 H                     0.077054
     30 H                     0.072840
     31 H                     0.091522
     32 O                    -0.219204
     33 C                    -0.104571
     34 C                     0.036615
     35 C                    -0.143629
     36 C                    -0.145473
     37 C                     0.031795
     38 O                    -0.199959
     39 H                     0.087094
     40 H                     0.086005
     41 H                     0.083947
     42 H                     0.082102
     43 H                     0.075310
     44 H                     0.071931
     45 H                     0.079034
     46 H                     0.068234
     47 H                     0.097216
     48 H                     0.088824
     49 H                     0.092146
     50 H                     0.087882
     51 H                     0.084518
     52 H                     0.094358
     53 H                     0.088456
     54 H                     0.101337
     55 H                     0.091279
     56 H                     0.087697
  ----------------------------------------
  Sum of atomic charges =     0.000000

 -----------------------------------------------------------------
                    Cartesian Multipole Moments
 -----------------------------------------------------------------
    Charge (ESU x 10^10)
                 0.0000
    Dipole Moment (Debye)
         X       2.1739      Y      -0.9187      Z       2.2272
       Tot       3.2450
    Quadrupole Moments (Debye-Ang)
        XX    -170.5308     XY      -1.7423     YY    -145.2208
        XZ      15.7116     YZ       3.6004     ZZ    -161.7065
    Octopole Moments (Debye-Ang^2)
       XXX      75.5039    XXY     -27.5658    XYY      -9.0216
       YYY     -59.9603    XXZ     -21.4463    XYZ      10.6023
       YYZ      -7.8741    XZZ      -4.6139    YZZ     -16.9820
       ZZZ      -4.8362
    Hexadecapole Moments (Debye-Ang^3)
      XXXX  -12806.9400   XXXY     176.7633   XXYY   -2383.8342
      XYYY     -20.2470   YYYY   -2972.8574   XXXZ     613.6900
      XXYZ      77.0990   XYYZ     -22.7719   YYYZ       4.3188
      XXZZ   -2397.7825   XYZZ     -34.9757   YYZZ    -745.1888
      XZZZ      -5.6943   YZZZ      17.6918   ZZZZ   -1631.7012
 -----------------------------------------------------------------
 Calculating analytic gradient of the SCF energy
 Gradient of SCF Energy
            1           2           3           4           5           6
    1   0.0254496   0.0266558   0.0071361  -0.0120448   0.0109781  -0.0379383
    2  -0.0098410   0.0064982  -0.0147614  -0.0162818  -0.0108335  -0.0123048
    3  -0.0189345  -0.0157084  -0.0147115   0.0138982  -0.0410737   0.0259974
            7           8           9          10          11          12
    1   0.0188911  -0.0000949  -0.0180525   0.0264021  -0.0214754   0.0027695
    2   0.0243435   0.0171450   0.0171137  -0.0393858   0.0183022   0.0013110
    3  -0.0067681   0.0100741  -0.0475684   0.0265561  -0.0308396  -0.0126144
           13          14          15          16          17          18
    1  -0.0445745  -0.0090332  -0.0790727   0.0371263   0.0060619  -0.0031752
    2   0.0369404  -0.0420332  -0.0077366   0.0157654   0.0119710   0.0078719
    3   0.0243315   0.0298857   0.0370124  -0.0757906   0.0312352   0.0416118
           19          20          21          22          23          24
    1   0.0313967   0.0086103  -0.0209385  -0.0463938   0.0302755  -0.0019475
    2   0.0086383  -0.0146549  -0.0112276  -0.0098982  -0.0193236   0.0000328
    3  -0.0323405  -0.0252142  -0.0083646   0.0115201   0.0391229   0.0055209
           25          26          27          28          29          30
    1   0.0025932   0.0001875  -0.0018709   0.0006337  -0.0060647   0.0043048
    2  -0.0020627  -0.0010926   0.0051776   0.0008137   0.0068294  -0.0039113
    3   0.0000167   0.0121423  -0.0053611   0.0053743   0.0015692  -0.0005291
           31          32          33          34          35          36
    1   0.0105659   0.0250153   0.0396861   0.0371998   0.0058895  -0.0193868
    2   0.0016561   0.0224467   0.0186858  -0.0225264  -0.0274446  -0.0154977
    3   0.0060312  -0.0028026  -0.0082295   0.0069756   0.0094704  -0.0069185
           37          38          39          40          41          42
    1  -0.0435339  -0.0042132  -0.0008452   0.0026107   0.0030839  -0.0045836
    2   0.0009738   0.0308546   0.0053093   0.0020158   0.0034043   0.0101818
    3  -0.0223150   0.0433517   0.0005609   0.0017439  -0.0014457   0.0033903
           43          44          45          46          47          48
    1   0.0042258  -0.0015093  -0.0008626   0.0018254   0.0067033   0.0041229
    2  -0.0025886   0.0046232   0.0028499  -0.0004894   0.0108017   0.0014924
    3  -0.0061675   0.0017046  -0.0086391   0.0050384   0.0053085   0.0010445
           49          50          51          52          53          54
    1  -0.0025305   0.0005377  -0.0006657  -0.0021122   0.0008818  -0.0024039
    2  -0.0025955   0.0008534   0.0004910  -0.0001549  -0.0007292  -0.0074120
    3  -0.0003761  -0.0003634   0.0006987  -0.0006277  -0.0029926   0.0003524
           55          56
    1   0.0018196   0.0016837
    2  -0.0002425  -0.0003639
    3  -0.0053804   0.0005365
 Max gradient component =       7.907E-02
 RMS gradient           =       1.940E-02
 Gradient time:  CPU 29.58 s  wall 0.63 s
 Geometry Optimization Parameters
   NAtoms,    NIC,     NZ,  NCons,   NDum,   NFix, NCnnct, MaxDiis
       56     458       0       9       0       0       0       0

 Cartesian Hessian Update
 Hessian Updated using BFGS Update


** CONSTRAINED OPTIMIZATION IN DELOCALIZED INTERNAL COORDINATES **
   Searching for a Minimum

   Optimization Cycle:   2

                       Coordinates (Angstroms)
     ATOM                X               Y               Z
      1  O        -6.1488817811    0.3933208656    0.7051196517
      2  C        -5.0779098510    0.2585326886    0.0958586421
      3  C        -3.8990537685    1.2307007603    0.1519068913
      4  C        -2.5391179731    0.6559390461    0.6356328561
      5  C        -2.4875659262   -0.8655211569    0.8379982264
      6  O        -1.1780370989   -1.3044220947    0.6963161346
      7  C        -0.8253574958   -2.3721867068    1.6057397992
      8  C         0.6081608217   -2.8372333987    1.2912387730
      9  O         1.5531572176   -1.7990918883    1.6474605293
     10  C         2.1628544489   -1.1820683634    0.5699811469
     11  C         3.1667746181   -0.1208524964    1.0306971864
     12  C         4.3891635810    0.1182618136    0.0930024082
     13  C         4.3049216372   -0.4853361472   -1.3179994069
     14  O         5.0926302535   -0.2164326405   -2.2420779991
     15  O        -4.8795219700   -0.8117499201   -0.7509112409
     16  O         3.8418392569   -1.7949658376   -1.3067989618
     17  O         1.5802066574   -1.0986230768   -0.5261744628
     18  C         3.7989769381   -2.6115643939   -2.4502442681
     19  C         2.5345551017    1.3101606498    1.0342226207
     20  C         3.3135568045    2.2060848948    2.0268089238
     21  C         4.6447856401    2.3745721524    1.2777908556
     22  C         4.3060396220    1.6656593543   -0.0620159771
     23  O         2.8980742064    1.8763597849   -0.2314422251
     24  H         3.4866183808   -0.3748558047    2.0638096806
     25  H         5.3400630310   -0.2411567720    0.5367732070
     26  H         1.4490695957    1.3110055658    1.2688465984
     27  H         2.7921841892    3.1847248205    2.0533607755
     28  H         3.3976799274    1.8157482242    3.0592219567
     29  H         4.8293797460    3.4550478484    1.1180246777
     30  H         5.5224718654    1.9102266431    1.7680711644
     31  H         4.9502069876    2.0455576796   -0.8831245555
     32  O        -3.3296369316   -1.4676004787    1.5233479008
     33  C        -5.8726769375   -1.7909249912   -0.9193236647
     34  C        -3.5142230452    1.7716946437   -1.2604995447
     35  C        -2.7725405691    3.1219314889   -1.1095160080
     36  C        -1.4284048068    2.6440604003   -0.5377521833
     37  C        -1.6365388754    1.1046867549   -0.5664321974
     38  O        -2.4787559477    0.8878832554   -1.7026792174
     39  H        -4.2277040352    2.0722922172    0.7960536095
     40  H        -2.1994408499    1.1146668730    1.5874516912
     41  H        -6.8084741453   -1.3472544129   -1.3260510119
     42  H        -4.3845115017    1.8723974542   -1.9426433989
     43  H        -2.6045999031    3.5251146135   -2.1288073707
     44  H        -3.3039169046    3.8802012786   -0.5028706935
     45  H        -0.6208808076    2.9324463634   -1.2396430455
     46  H        -1.1875700125    3.0134806365    0.4778500738
     47  H        -0.6483473383    0.6019845146   -0.6054318758
     48  H        -6.1006578448   -2.2979890491    0.0444368194
     49  H        -5.4979404601   -2.5478712077   -1.6377805799
     50  H         2.7546763127   -2.9532857384   -2.6149726988
     51  H         4.4417771284   -3.5026899171   -2.2894870962
     52  H         4.1393786444   -2.0866208142   -3.3695056552
     53  H         0.8425283793   -3.7305871827    1.9097120290
     54  H         0.6696154320   -3.1578461328    0.2265328338
     55  H        -1.5000687447   -3.2455207775    1.4490350721
     56  H        -0.9001445735   -2.0443468448    2.6672604443
   Point Group: c1    Number of degrees of freedom:   162


   Energy is  -1510.184326469

              Constraints and their Current Values
                                        Value     Constraint
   Dihedral:        1   2   3   4      121.697      121.694
   Dihedral:        3   4   5   6      154.501      154.493
   Dihedral:        4   5   6   7      142.928      143.003
   Dihedral:        5   6   7   8      176.173      176.189
   Dihedral:        6   7   8   9       68.584       68.554
   Dihedral:        7   8   9  10     -110.049     -110.040
   Dihedral:        8   9  10  11     -178.775     -178.779
   Dihedral:        9  10  11  12      149.730      149.668
   Dihedral:       11  12  13  14      168.561      168.463
 Hessian Updated using BFGS Update

   Using Lagrange Multiplier Algorithm


159 Hessian modes will be used to form the next step
  Hessian Eigenvalues:
    -0.977753   -0.977753   -0.977753   -0.977753   -0.977753   -0.977753
    -0.977753   -0.977753   -0.976974    0.044992    0.045001    0.045016
     0.045563    0.045619    0.048709    0.048814    0.048903    0.048931
     0.049871    0.054535    0.059917    0.060007    0.062577    0.063041
     0.067040    0.067110    0.067503    0.067892    0.070229    0.071032
     0.072606    0.073707    0.074122    0.075827    0.076078    0.076762
     0.076983    0.082463    0.082622    0.083633    0.083826    0.084367
     0.084694    0.085772    0.085877    0.086208    0.086743    0.087003
     0.087429    0.088540    0.088952    0.089135    0.089343    0.089690
     0.089923    0.093916    0.093952    0.096660    0.096718    0.111538
     0.111591    0.112776    0.114673    0.115926    0.116105    0.116565
     0.117226    0.117706    0.118600    0.118903    0.122462    0.123005
     0.129732    0.131001    0.131089    0.139910    0.140866    0.159691
     0.160785    0.170854    0.171702    0.172401    0.172743    0.216188
     0.220103    0.222211    0.223275    0.229599    0.236272    0.239152
     0.241059    0.249939    0.254527    0.258327    0.262376    0.267272
     0.267614    0.278733    0.280648    0.283181    0.288158    0.295706
     0.297832    0.300930    0.308711    0.310601    0.312210    0.319700
     0.321009    0.321209    0.321494    0.321975    0.322086    0.322292
     0.322417    0.322909    0.323152    0.323299    0.323387    0.323447
     0.323582    0.323948    0.324313    0.324474    0.324683    0.324737
     0.324971    0.325139    0.325342    0.325791    0.326285    0.326709
     0.326794    0.329569    0.368855    0.370190    0.384883    0.400382
     0.406087    0.413638    0.469722    0.489919    0.517698    0.525830
     0.529096    0.540635    0.920685    0.927029    0.941924    1.000546
     1.022753    1.022753    1.022753    1.022753    1.022753    1.022753
     1.022753    1.022753    1.037757

 Minimum Search - Taking P-RFO Step
 Searching for Lamda that Maximizes Along the Constraint modes Only
 Value Taken    Lamda =   0.00006515
 Searching for Lamda that Minimizes Along All other modes
 Value Taken    Lamda =  -0.09054982
 Calculated Step too Large.  Step scaled by  0.567317
 Step Taken.  Stepsize is  0.300000

                             Maximum     Tolerance    Cnvgd?
         Gradient            0.068524       0.000300      NO
         Displacement        0.085805       0.001200      NO
         Energy change     -0.073571       0.000001      NO


 New Cartesian Coordinates Obtained by Inverse Iteration

 Displacement from previous Coordinates is:  1.127758
 Adding empirical dispersion correction 
 ----------------------------------------------------------------
 Doing -D3(op) with
 s6 =   1.00000
 s8 =   0.78311
 a1 =   0.30000
 a2 =   4.25000
 n  =  10.00000
 -D3 energy without 3body term =     -0.0674928943 hartrees
 ----------------------------------------------------------------
             Standard Nuclear Orientation (Angstroms)
    I     Atom           X                Y                Z
 ----------------------------------------------------------------
    1      O      -6.1363738686     0.4067169566     0.6846398860
    2      C      -5.0508266228     0.2730090223     0.0858297120
    3      C      -3.8562378028     1.2485365219     0.1475040857
    4      C      -2.5007549690     0.6522374730     0.6499225549
    5      C      -2.4923969429    -0.8842919129     0.8683682098
    6      O      -1.1708462472    -1.3454178073     0.7351486187
    7      C      -0.8443365569    -2.4209339305     1.6652064064
    8      C       0.5978172121    -2.8796317077     1.3283427687
    9      O       1.5411970723    -1.8229387505     1.6835480313
   10      C       2.1188224852    -1.2098629344     0.5582231668
   11      C       3.1239355863    -0.1284974101     1.0183481747
   12      C       4.3466590820     0.1394180698     0.0739728554
   13      C       4.2952707840    -0.5047894147    -1.3397914883
   14      O       5.0775190031    -0.2256205796    -2.2747196814
   15      O      -4.8037360818    -0.7977796090    -0.7768548030
   16      O       3.8183339862    -1.8239186646    -1.2812912582
   17      O       1.5300108168    -1.1879256579    -0.5451949544
   18      C       3.8328966587    -2.5874759383    -2.4924285965
   19      C       2.4467010632     1.2997250216     1.0083413479
   20      C       3.2142492471     2.2211917108     2.0077376971
   21      C       4.5558231672     2.4151590389     1.2526394859
   22      C       4.2329274487     1.6939937653    -0.0996528533
   23      O       2.8001606726     1.8753093770    -0.2795821387
   24      H       3.4486568094    -0.3668628280     2.0500309540
   25      H       5.3011860931    -0.1934059503     0.5268009990
   26      H       1.3596355255     1.2755553375     1.2259795779
   27      H       2.6767472687     3.1868964107     2.0400230628
   28      H       3.3038667953     1.8288958297     3.0356912859
   29      H       4.7299863296     3.4932809251     1.0891227363
   30      H       5.4355888306     1.9677634603     1.7478712103
   31      H       4.8609084527     2.0766321551    -0.9298187533
   32      O      -3.3657194563    -1.4940229288     1.5206345275
   33      C      -5.8612124723    -1.7552518659    -0.8990999428
   34      C      -3.4395472556     1.7823840368    -1.2761480853
   35      C      -2.6737755092     3.1323671356    -1.1029277414
   36      C      -1.3344745486     2.6287683920    -0.5002731268
   37      C      -1.5595484223     1.0785587825    -0.5412449594
   38      O      -2.3956823296     0.8695918760    -1.7100331254
   39      H      -4.1819065824     2.0927905912     0.7847117684
   40      H      -2.1716178619     1.1064356597     1.6054182079
   41      H      -6.7906973900    -1.2908909705    -1.2950308862
   42      H      -4.2932496529     1.8796589188    -1.9767738358
   43      H      -2.4834232790     3.5438353329    -2.1110973787
   44      H      -3.2078481116     3.8885030838    -0.5016096268
   45      H      -0.5048522190     2.9076077561    -1.1740314719
   46      H      -1.1162151491     2.9911534822     0.5195431364
   47      H      -0.5891977885     0.5424581466    -0.5643983915
   48      H      -6.0912472134    -2.2336624812     0.0778194859
   49      H      -5.5202883320    -2.5346904622    -1.6080351273
   50      H       2.8013663407    -2.9315192374    -2.7177726500
   51      H       4.4830118834    -3.4772383446    -2.3570818907
   52      H       4.2068115006    -2.0011698216    -3.3588278212
   53      H       0.8456662217    -3.7719187803     1.9438658861
   54      H       0.6548151313    -3.1848914813     0.2604325688
   55      H      -1.5284092105    -3.2884393067     1.5182045135
   56      H      -0.9172832659    -2.0892404519     2.7251755065
 ----------------------------------------------------------------
 Molecular Point Group                 C1    NOp =  1
 Largest Abelian Subgroup              C1    NOp =  1
 Nuclear Repulsion Energy =  3209.3910816032 hartrees
 There are      113 alpha and      113 beta electrons
 Applying Cartesian multipole field
    Component          Value
    ---------          -----
     (2,0,0)        1.00000E-12
     (0,2,0)        2.00000E-11
     (0,0,2)       -3.00000E-11
 Nucleus-field energy     =     0.0000000199 hartrees
 Requested basis set is STO-3G
 There are 86 shells and 176 basis functions
 A cutoff of  1.0D-12 yielded   2320 shell pairs
 There are     11077 function pairs
 Smallest overlap matrix eigenvalue = 2.06E-01
 Guess MOs from SCF MO coefficient file
 Reading MOs from coefficient file
 Reading MOs from coefficient file
 A restricted hybrid HF-DFT SCF calculation will be
 performed using Pulay DIIS extrapolation
 Exchange:     0.2000 Hartree-Fock + 0.0800 Slater + 0.7200 B88
 Correlation:  0.1900 VWN1RPA + 0.8100 LYP
 Using SG-1 standard quadrature grid
 Dispersion:   Grimme D3
 SCF converges when DIIS error is below 1.0E-08
 Geometry optimization detected.  Setting ReadMinima to 0
 Setting SaveMinima to 0
 using 48 threads for integral computing
 -------------------------------------------------------
 OpenMP Integral computing Module                
 Release: version 1.0, May 2013, Q-Chem Inc. Pittsburgh 
 -------------------------------------------------------
 -------------------------------------------------------
 OpenMP BLAS3 based DFT computing Module                
 Release: version 1.0, May 2013, Q-Chem Inc. Pittsburgh 
 -------------------------------------------------------
 ---------------------------------------
  Cycle       Energy         DIIS Error
 ---------------------------------------
    1   -1510.0891697353      2.82E-03
    2   -1510.2226642079      8.07E-04
    3   -1510.2165579247      1.44E-03
    4   -1510.2253998723      2.45E-04
    5   -1510.2256736448      4.97E-05
    6   -1510.2256835168      2.13E-05
    7   -1510.2256848774      1.32E-05
    8   -1510.2256856408      2.26E-06
    9   -1510.2256856656      7.76E-07
   10   -1510.2256856674      4.64E-07
   11   -1510.2256856683      8.99E-08
   12   -1510.2256856684      2.54E-08
   13   -1510.2256856685      1.76E-08
   14   -1510.2256856685      8.14E-09 Convergence criterion met
 ---------------------------------------
 SCF time:  CPU 102.40 s  wall 2.14 s
 SCF   energy in the final basis set = -1510.22568567
 Total energy in the final basis set = -1510.22568567
 
 --------------------------------------------------------------
 
                    Orbital Energies (a.u.)
 --------------------------------------------------------------
 
 Alpha MOs
 -- Occupied --
-18.937 -18.933 -18.927 -18.926 -18.899 -18.889 -18.871 -18.863
-18.862 -18.853 -10.103 -10.100 -10.100 -10.093 -10.082 -10.081
-10.067 -10.065 -10.063 -10.062 -10.058 -10.053 -10.045 -10.039
-10.037 -10.031 -10.021 -10.020 -10.012 -10.010  -1.027  -1.021
 -1.016  -1.012  -0.994  -0.984  -0.941  -0.935  -0.928  -0.928
 -0.773  -0.765  -0.736  -0.730  -0.721  -0.711  -0.701  -0.665
 -0.659  -0.623  -0.602  -0.582  -0.551  -0.543  -0.539  -0.530
 -0.520  -0.516  -0.492  -0.488  -0.472  -0.470  -0.454  -0.443
 -0.440  -0.433  -0.421  -0.417  -0.413  -0.411  -0.409  -0.405
 -0.398  -0.390  -0.380  -0.369  -0.366  -0.362  -0.356  -0.353
 -0.345  -0.340  -0.339  -0.335  -0.329  -0.324  -0.321  -0.313
 -0.307  -0.305  -0.300  -0.296  -0.295  -0.291  -0.288  -0.272
 -0.268  -0.252  -0.244  -0.240  -0.232  -0.231  -0.228  -0.179
 -0.177  -0.165  -0.164  -0.154  -0.152  -0.145  -0.142  -0.141
 -0.137
 -- Virtual --
  0.088   0.091   0.094   0.115   0.234   0.247   0.252   0.265
  0.282   0.286   0.296   0.313   0.318   0.330   0.342   0.348
  0.349   0.355   0.362   0.366   0.371   0.375   0.376   0.387
  0.390   0.393   0.395   0.400   0.404   0.407   0.409   0.414
  0.417   0.424   0.426   0.431   0.435   0.439   0.443   0.444
  0.448   0.449   0.452   0.454   0.459   0.461   0.467   0.470
  0.478   0.482   0.488   0.489   0.499   0.510   0.523   0.543
  0.552   0.557   0.561   0.631   0.642   0.652   0.664
 --------------------------------------------------------------
 
          Ground-State Mulliken Net Atomic Charges

     Atom                 Charge (a.u.)
  ----------------------------------------
      1 O                    -0.224279
      2 C                     0.219798
      3 C                    -0.082107
      4 C                    -0.075983
      5 C                     0.221806
      6 O                    -0.182057
      7 C                    -0.039427
      8 C                    -0.042139
      9 O                    -0.183088
     10 C                     0.219674
     11 C                    -0.080916
     12 C                    -0.074922
     13 C                     0.220522
     14 O                    -0.221561
     15 O                    -0.185753
     16 O                    -0.186332
     17 O                    -0.211940
     18 C                    -0.118433
     19 C                     0.031667
     20 C                    -0.143384
     21 C                    -0.145339
     22 C                     0.030422
     23 O                    -0.193555
     24 H                     0.084216
     25 H                     0.089849
     26 H                     0.082620
     27 H                     0.076231
     28 H                     0.074340
     29 H                     0.077475
     30 H                     0.073542
     31 H                     0.090946
     32 O                    -0.215124
     33 C                    -0.113727
     34 C                     0.032417
     35 C                    -0.144185
     36 C                    -0.146159
     37 C                     0.028055
     38 O                    -0.192782
     39 H                     0.085324
     40 H                     0.085130
     41 H                     0.084836
     42 H                     0.081919
     43 H                     0.076006
     44 H                     0.072510
     45 H                     0.080254
     46 H                     0.068704
     47 H                     0.097263
     48 H                     0.089998
     49 H                     0.090999
     50 H                     0.088386
     51 H                     0.083773
     52 H                     0.097997
     53 H                     0.086484
     54 H                     0.102427
     55 H                     0.090711
     56 H                     0.086891
  ----------------------------------------
  Sum of atomic charges =    -0.000000

 -----------------------------------------------------------------
                    Cartesian Multipole Moments
 -----------------------------------------------------------------
    Charge (ESU x 10^10)
                 0.0000
    Dipole Moment (Debye)
         X       2.2077      Y      -0.7068      Z       2.2585
       Tot       3.2364
    Quadrupole Moments (Debye-Ang)
        XX    -169.3061     XY      -1.4933     YY    -145.6895
        XZ      14.6399     YZ       3.3872     ZZ    -161.3855
    Octopole Moments (Debye-Ang^2)
       XXX      74.2232    XXY     -25.8529    XYY      -8.4159
       YYY     -55.5627    XXZ     -21.7596    XYZ      11.6897
       YYZ      -6.9225    XZZ      -4.1563    YZZ     -16.5714
       ZZZ      -3.6729
    Hexadecapole Moments (Debye-Ang^3)
      XXXX  -12509.7269   XXXY     174.8733   XXYY   -2354.2772
      XYYY     -20.2162   YYYY   -3007.3675   XXXZ     619.0663
      XXYZ      80.4076   XYYZ     -11.6541   YYYZ      11.3918
      XXZZ   -2351.2510   XYZZ     -35.5380   YYZZ    -752.6914
      XZZZ      28.0565   YZZZ      28.2369   ZZZZ   -1650.8185
 -----------------------------------------------------------------
 Calculating analytic gradient of the SCF energy
 Gradient of SCF Energy
            1           2           3           4           5           6
    1   0.0105979   0.0185988   0.0050036  -0.0065529   0.0068676  -0.0228526
    2  -0.0047325   0.0018476  -0.0098943  -0.0076821  -0.0071792  -0.0095706
    3  -0.0082438  -0.0124443  -0.0073382   0.0151750  -0.0403279   0.0155180
            7           8           9          10          11          12
    1   0.0130078   0.0022724  -0.0173221   0.0284797  -0.0122784   0.0058334
    2   0.0191102   0.0130003   0.0136508  -0.0332343   0.0090816   0.0002050
    3   0.0018616   0.0005361  -0.0256190   0.0187546  -0.0149646  -0.0045781
           13          14          15          16          17          18
    1  -0.0441480   0.0029091  -0.0465521   0.0254988  -0.0009805  -0.0023389
    2   0.0290334  -0.0305509  -0.0037764   0.0102046   0.0105590   0.0074406
    3   0.0124517   0.0169665   0.0234220  -0.0442528   0.0132249   0.0279757
           19          20          21          22          23          24
    1   0.0163536   0.0054595  -0.0089689  -0.0296400   0.0169557  -0.0016253
    2   0.0052141  -0.0099892  -0.0062157  -0.0054822  -0.0094519   0.0012376
    3  -0.0229505  -0.0116646  -0.0038863   0.0042894   0.0206465   0.0035055
           25          26          27          28          29          30
    1   0.0012240   0.0007953  -0.0009307  -0.0002899  -0.0048514   0.0025290
    2  -0.0023854  -0.0010310   0.0026015   0.0019023   0.0036377  -0.0019803
    3  -0.0008278   0.0099383  -0.0043979   0.0032274   0.0012188  -0.0011191
           31          32          33          34          35          36
    1   0.0086260   0.0124570   0.0253356   0.0214317   0.0011385  -0.0092498
    2   0.0008125   0.0115174   0.0126150  -0.0153823  -0.0135259  -0.0076343
    3   0.0054406   0.0048969  -0.0049530   0.0015797   0.0070902  -0.0018863
           37          38          39          40          41          42
    1  -0.0261734  -0.0016961  -0.0009032   0.0017646   0.0011341  -0.0034447
    2  -0.0017868   0.0166082   0.0028288   0.0011651   0.0015396   0.0081325
    3  -0.0156214   0.0235469  -0.0002637   0.0005637  -0.0011365   0.0034618
           43          44          45          46          47          48
    1   0.0030449  -0.0006790  -0.0016016   0.0015824   0.0053341   0.0018907
    2  -0.0026959   0.0031135   0.0015837  -0.0006821   0.0085099   0.0002364
    3  -0.0033935  -0.0002603  -0.0056691   0.0024323   0.0050486   0.0007182
           49          50          51          52          53          54
    1  -0.0016304   0.0000583  -0.0000826  -0.0016896   0.0001320  -0.0015932
    2  -0.0015678   0.0001956  -0.0002417  -0.0011025  -0.0009893  -0.0068042
    3  -0.0001486  -0.0011369   0.0000642  -0.0023834  -0.0020474   0.0005685
           55          56
    1   0.0012400   0.0005192
    2  -0.0005542  -0.0014616
    3  -0.0034211   0.0008124
 Max gradient component =       4.655E-02
 RMS gradient           =       1.264E-02
 Gradient time:  CPU 30.01 s  wall 0.63 s
 Geometry Optimization Parameters
   NAtoms,    NIC,     NZ,  NCons,   NDum,   NFix, NCnnct, MaxDiis
       56     458       0       9       0       0       0       0

 Cartesian Hessian Update
 Hessian Updated using BFGS Update


** CONSTRAINED OPTIMIZATION IN DELOCALIZED INTERNAL COORDINATES **
   Searching for a Minimum

   Optimization Cycle:   3

                       Coordinates (Angstroms)
     ATOM                X               Y               Z
      1  O        -6.1363738686    0.4067169566    0.6846398860
      2  C        -5.0508266228    0.2730090223    0.0858297120
      3  C        -3.8562378028    1.2485365219    0.1475040857
      4  C        -2.5007549690    0.6522374730    0.6499225549
      5  C        -2.4923969429   -0.8842919129    0.8683682098
      6  O        -1.1708462472   -1.3454178073    0.7351486187
      7  C        -0.8443365569   -2.4209339305    1.6652064064
      8  C         0.5978172121   -2.8796317077    1.3283427687
      9  O         1.5411970723   -1.8229387505    1.6835480313
     10  C         2.1188224852   -1.2098629344    0.5582231668
     11  C         3.1239355863   -0.1284974101    1.0183481747
     12  C         4.3466590820    0.1394180698    0.0739728554
     13  C         4.2952707840   -0.5047894147   -1.3397914883
     14  O         5.0775190031   -0.2256205796   -2.2747196814
     15  O        -4.8037360818   -0.7977796090   -0.7768548030
     16  O         3.8183339862   -1.8239186646   -1.2812912582
     17  O         1.5300108168   -1.1879256579   -0.5451949544
     18  C         3.8328966587   -2.5874759383   -2.4924285965
     19  C         2.4467010632    1.2997250216    1.0083413479
     20  C         3.2142492471    2.2211917108    2.0077376971
     21  C         4.5558231672    2.4151590389    1.2526394859
     22  C         4.2329274487    1.6939937653   -0.0996528533
     23  O         2.8001606726    1.8753093770   -0.2795821387
     24  H         3.4486568094   -0.3668628280    2.0500309540
     25  H         5.3011860931   -0.1934059503    0.5268009990
     26  H         1.3596355255    1.2755553375    1.2259795779
     27  H         2.6767472687    3.1868964107    2.0400230628
     28  H         3.3038667953    1.8288958297    3.0356912859
     29  H         4.7299863296    3.4932809251    1.0891227363
     30  H         5.4355888306    1.9677634603    1.7478712103
     31  H         4.8609084527    2.0766321551   -0.9298187533
     32  O        -3.3657194563   -1.4940229288    1.5206345275
     33  C        -5.8612124723   -1.7552518659   -0.8990999428
     34  C        -3.4395472556    1.7823840368   -1.2761480853
     35  C        -2.6737755092    3.1323671356   -1.1029277414
     36  C        -1.3344745486    2.6287683920   -0.5002731268
     37  C        -1.5595484223    1.0785587825   -0.5412449594
     38  O        -2.3956823296    0.8695918760   -1.7100331254
     39  H        -4.1819065824    2.0927905912    0.7847117684
     40  H        -2.1716178619    1.1064356597    1.6054182079
     41  H        -6.7906973900   -1.2908909705   -1.2950308862
     42  H        -4.2932496529    1.8796589188   -1.9767738358
     43  H        -2.4834232790    3.5438353329   -2.1110973787
     44  H        -3.2078481116    3.8885030838   -0.5016096268
     45  H        -0.5048522190    2.9076077561   -1.1740314719
     46  H        -1.1162151491    2.9911534822    0.5195431364
     47  H        -0.5891977885    0.5424581466   -0.5643983915
     48  H        -6.0912472134   -2.2336624812    0.0778194859
     49  H        -5.5202883320   -2.5346904622   -1.6080351273
     50  H         2.8013663407   -2.9315192374   -2.7177726500
     51  H         4.4830118834   -3.4772383446   -2.3570818907
     52  H         4.2068115006   -2.0011698216   -3.3588278212
     53  H         0.8456662217   -3.7719187803    1.9438658861
     54  H         0.6548151313   -3.1848914813    0.2604325688
     55  H        -1.5284092105   -3.2884393067    1.5182045135
     56  H        -0.9172832659   -2.0892404519    2.7251755065
   Point Group: c1    Number of degrees of freedom:   162


   Energy is  -1510.225685669

              Constraints and their Current Values
                                        Value     Constraint
   Dihedral:        1   2   3   4      121.693      121.694
   Dihedral:        3   4   5   6      154.509      154.493
   Dihedral:        4   5   6   7      142.978      143.003
   Dihedral:        5   6   7   8      176.180      176.189
   Dihedral:        6   7   8   9       68.564       68.554
   Dihedral:        7   8   9  10     -110.055     -110.040
   Dihedral:        8   9  10  11     -178.776     -178.779
   Dihedral:        9  10  11  12      149.683      149.668
   Dihedral:       11  12  13  14      168.483      168.463
 Hessian Updated using BFGS Update

   Using Lagrange Multiplier Algorithm


162 Hessian modes will be used to form the next step
  Hessian Eigenvalues:
    -0.977755   -0.977753   -0.977753   -0.977753   -0.977753   -0.977753
    -0.977753   -0.977725   -0.976883    0.044871    0.045000    0.045002
     0.045011    0.045439    0.045575    0.048598    0.048818    0.048906
     0.049046    0.050409    0.054461    0.059196    0.060014    0.062572
     0.062948    0.067020    0.067070    0.067479    0.067955    0.070228
     0.070847    0.072023    0.073719    0.074157    0.075896    0.076077
     0.076781    0.076978    0.082454    0.082629    0.083586    0.083811
     0.084244    0.084626    0.085420    0.085781    0.086145    0.086743
     0.086990    0.087335    0.088506    0.088939    0.089236    0.089338
     0.089684    0.090002    0.093860    0.093935    0.096630    0.096720
     0.111537    0.111595    0.112761    0.114675    0.115926    0.116082
     0.116344    0.117207    0.117719    0.118650    0.118995    0.122462
     0.123004    0.129734    0.130748    0.131091    0.138942    0.140939
     0.158615    0.160130    0.160775    0.171148    0.171739    0.172582
     0.173238    0.216172    0.220466    0.222247    0.223142    0.234176
     0.239140    0.240418    0.242882    0.249942    0.253867    0.255144
     0.258855    0.263357    0.267308    0.267772    0.278983    0.280667
     0.283225    0.288707    0.295703    0.297881    0.301400    0.308558
     0.310561    0.312237    0.318646    0.320981    0.321174    0.321495
     0.321977    0.322081    0.322279    0.322391    0.322903    0.323148
     0.323299    0.323387    0.323445    0.323582    0.323908    0.324304
     0.324449    0.324666    0.324715    0.324970    0.325117    0.325342
     0.325792    0.326286    0.326700    0.326807    0.331109    0.368580
     0.370152    0.385078    0.393878    0.403819    0.406864    0.460740
     0.488215    0.516984    0.520429    0.526536    0.536577    0.920909
     0.929355    0.942608    1.005483    1.022753    1.022753    1.022753
     1.022753    1.022753    1.022753    1.022753    1.022910    1.041587

 Minimum Search - Taking P-RFO Step
 Searching for Lamda that Maximizes Along the Constraint modes Only
 Value Taken    Lamda =   0.00002071
 Searching for Lamda that Minimizes Along All other modes
 Value Taken    Lamda =  -0.04661257
 Calculated Step too Large.  Step scaled by  0.600453
 Step Taken.  Stepsize is  0.300000

                             Maximum     Tolerance    Cnvgd?
         Gradient            0.036902       0.000300      NO
         Displacement        0.068958       0.001200      NO
         Energy change     -0.041359       0.000001      NO


 New Cartesian Coordinates Obtained by Inverse Iteration

 Displacement from previous Coordinates is:  1.830660
 Adding empirical dispersion correction 
 ----------------------------------------------------------------
 Doing -D3(op) with
 s6 =   1.00000
 s8 =   0.78311
 a1 =   0.30000
 a2 =   4.25000
 n  =  10.00000
 -D3 energy without 3body term =     -0.0680558294 hartrees
 ----------------------------------------------------------------
             Standard Nuclear Orientation (Angstroms)
    I     Atom           X                Y                Z
 ----------------------------------------------------------------
    1      O      -6.1063077952     0.4846444485     0.6992413120
    2      C      -5.0170801092     0.3304120708     0.1065741859
    3      C      -3.7917501993     1.2846306479     0.1661120262
    4      C      -2.4514013776     0.6448802874     0.6792253763
    5      C      -2.5053402439    -0.8980051566     0.9269710803
    6      O      -1.1831609794    -1.3977070551     0.7937337781
    7      C      -0.8718166421    -2.4745278558     1.7432238518
    8      C       0.5662924020    -2.9363508513     1.3632890387
    9      O       1.5121728654    -1.8607709039     1.6980659295
   10      C       2.0479906720    -1.2493087625     0.5291071819
   11      C       3.0559617456    -0.1513173804     0.9800931596
   12      C       4.2833884107     0.1718910202     0.0390916612
   13      C       4.3257590184    -0.5003324953    -1.3768823508
   14      O       5.1223466176    -0.1719140998    -2.2877543978
   15      O      -4.7608855160    -0.7469960325    -0.7736281860
   16      O       3.8717189134    -1.8445415880    -1.3067049447
   17      O       1.4512556877    -1.2905678088    -0.5708291908
   18      C       4.0001042296    -2.5690774337    -2.5611750174
   19      C       2.3152925424     1.2587407541     0.9575617073
   20      C       3.0413573451     2.2165485473     1.9659190963
   21      C       4.3883711522     2.4615678210     1.2178899787
   22      C       4.1096704000     1.7259402651    -0.1458187273
   23      O       2.6572844358     1.8475850745    -0.3443461619
   24      H       3.3840387276    -0.3751635465     2.0114387459
   25      H       5.2421293220    -0.1144429966     0.5124985661
   26      H       1.2259715961     1.1903793255     1.1481819374
   27      H       2.4695548599     3.1600886474     2.0032671823
   28      H       3.1382759447     1.8199965682     2.9899690533
   29      H       4.5339494528     3.5421262029     1.0536357431
   30      H       5.2745883601     2.0462080762     1.7259405354
   31      H       4.7196432358     2.1270111926    -0.9795829128
[...]
     15  O        -4.5302007024   -0.4411117893   -1.0455787487
     16  O         4.0785431908   -2.0982803651   -0.7384490226
     17  O         1.4942397414   -1.3448395343   -0.7924786250
     18  C         4.4597341426   -3.1414050151   -1.7166140596
     19  C         2.1048723252    1.2435497239    0.9349531875
     20  C         2.9906452644    2.4124574438    1.5232506503
     21  C         3.8822284849    2.7849587527    0.2793372897
     22  C         3.4604167996    1.6474105551   -0.7289088317
     23  O         1.9967692723    1.5589962679   -0.5100077417
     24  H         3.3375807944   -0.4168805409    1.8750441773
     25  H         4.9787000376    0.4968620776    0.3970508887
     26  H         1.0998650487    1.1450842465    1.3876047962
     27  H         2.3566502591    3.2562545175    1.8383542740
     28  H         3.5867408410    2.0787432031    2.3879431981
     29  H         3.6103890034    3.7731934848   -0.1252403164
     30  H         4.9608484877    2.7763136325    0.5030601288
     31  H         3.6908214211    1.8326116972   -1.7960554004
     32  O        -3.5044140505   -1.6668199206    1.2570207673
     33  C        -5.5675602177   -1.4416169749   -1.3796546029
     34  C        -3.2967992346    2.1529933865   -0.7957575408
     35  C        -2.4070067567    3.3609657835   -0.2962941935
     36  C        -1.0705922023    2.6206610782    0.0827206472
     37  C        -1.4493221347    1.1260934674   -0.2507074584
     38  O        -2.3209347611    1.2471012415   -1.4405403208
     39  H        -4.1634597608    1.9747610100    1.2750922089
     40  H        -2.1013133259    0.9380823692    1.8807152093
     41  H        -6.5575062207   -0.9691903963   -1.5434965101
     42  H        -4.1024332605    2.4241361731   -1.5052593401
     43  H        -2.2521574305    4.0845807851   -1.1122812013
     44  H        -2.8606538708    3.8856513554    0.5599743763
     45  H        -0.2216712213    2.9419355785   -0.5424826782
     46  H        -0.7981816769    2.7562454320    1.1415184308
     47  H        -0.5973311492    0.4486143862   -0.4568251131
     48  H        -5.6653852206   -2.1990395990   -0.5747388991
     49  H        -5.2300064027   -1.9329017671   -2.3106718349
     50  H         3.5422371933   -3.5853465699   -2.1521167065
     51  H         5.0325094015   -3.9264063616   -1.1861529371
     52  H         5.0771403655   -2.6880575198   -2.5185102286
     53  H         0.8942774813   -4.0056617944    1.4832029410
     54  H         0.5661571767   -3.0890852906   -0.0681826121
     55  H        -1.5981659526   -3.4870843342    1.3787310697
     56  H        -0.8559990494   -2.4074220704    2.6282281894
   Point Group: c1    Number of degrees of freedom:   162


   Energy is  -1510.274586825

              Constraints and their Current Values
                                        Value     Constraint
   Dihedral:        1   2   3   4      121.694      121.694
   Dihedral:        3   4   5   6      154.493      154.493
   Dihedral:        4   5   6   7      143.003      143.003
   Dihedral:        5   6   7   8      176.189      176.189
   Dihedral:        6   7   8   9       68.554       68.554
   Dihedral:        7   8   9  10     -110.040     -110.040
   Dihedral:        8   9  10  11     -178.779     -178.779
   Dihedral:        9  10  11  12      149.668      149.668
   Dihedral:       11  12  13  14      168.463      168.463
 Hessian Updated using BFGS Update

153 Hessian modes will be used to form the next step
  Hessian Eigenvalues:
     0.003412    0.006936    0.009229    0.021834    0.031362    0.045010
     0.045217    0.045403    0.045920    0.047939    0.048585    0.051091
     0.052862    0.056120    0.060445    0.060989    0.063227    0.066819
     0.067279    0.067644    0.067983    0.070347    0.071575    0.073272
     0.074114    0.075648    0.076037    0.076769    0.078052    0.079468
     0.082424    0.082500    0.083806    0.084511    0.084664    0.085234
     0.085911    0.086324    0.086924    0.087066    0.087679    0.088315
     0.088865    0.089155    0.089625    0.089970    0.090616    0.093823
     0.094268    0.094981    0.096841    0.097175    0.111624    0.111745
     0.112890    0.114681    0.115860    0.116146    0.116357    0.118227
     0.118959    0.120080    0.122577    0.123572    0.125002    0.130003
     0.130355    0.132362    0.151430    0.158956    0.160007    0.160088
     0.160096    0.160448    0.161511    0.163273    0.172021    0.173067
     0.185787    0.206478    0.223986    0.225006    0.228433    0.234716
     0.237696    0.241720    0.243084    0.248631    0.250567    0.252002
     0.253451    0.258881    0.262028    0.264898    0.267686    0.269232
     0.276731    0.280764    0.282995    0.289126    0.296141    0.297056
     0.300085    0.307866    0.310474    0.312664    0.319989    0.320840
     0.321362    0.321535    0.322051    0.322091    0.322322    0.322456
     0.322960    0.323109    0.323400    0.323460    0.323849    0.324221
     0.324350    0.324491    0.324666    0.324789    0.324903    0.324971
     0.325369    0.325665    0.326275    0.326670    0.326785    0.326853
     0.331621    0.358473    0.368768    0.372167    0.374926    0.389702
     0.405717    0.409312    0.427142    0.436331    0.473418    0.493827
     0.509522    0.523490    0.530932    0.583752    0.609741    0.923038
     0.931075    0.943509    1.041921

 Minimum Search - Taking Simple RFO Step
 Searching for Lamda that Minimizes Along All modes
 Value Taken    Lamda =   0.00000000
 Step Taken.  Stepsize is  0.007565

                             Maximum     Tolerance    Cnvgd?
         Gradient           0.000033      0.000300     YES
         Displacement       0.002702      0.001200      NO
         Energy change     -0.000001      0.000001     YES

 Final energy is   -1510.27458682484     


 ******************************
 **  OPTIMIZATION CONVERGED  **
 ******************************

                       Coordinates (Angstroms)
     ATOM                X               Y               Z
      1  O        -6.0664943029    0.2408929598    0.6308166565
      2  C        -4.9407768211    0.3247601298    0.0935654186
      3  C        -3.7885297585    1.3201678767    0.4691638752
      4  C        -2.4382210758    0.6039331112    0.8807555906
      5  C        -2.5169985586   -0.9649240099    0.9494075840
      6  O        -1.1929456697   -1.4653241238    0.7293815964
      7  C        -0.8722547382   -2.6595583293    1.5450119617
      8  C         0.5581377606   -3.0441694328    1.0419600780
      9  O         1.4827068380   -1.9765637991    1.4966868627
     10  C         1.9337715133   -1.2087253684    0.3697028792
     11  C         2.9294218374   -0.1166466049    0.8949725912
     12  C         4.0410010172    0.2791833989   -0.1498034265
     13  C         4.4392229301   -0.7963526668   -1.2181438468
     14  O         5.1405532233   -0.5976359059   -2.2348974879
     15  O        -4.5302007024   -0.4411117893   -1.0455787487
     16  O         4.0785431908   -2.0982803651   -0.7384490226
     17  O         1.4942397414   -1.3448395343   -0.7924786250
     18  C         4.4597341426   -3.1414050151   -1.7166140596
     19  C         2.1048723252    1.2435497239    0.9349531875
     20  C         2.9906452644    2.4124574438    1.5232506503
     21  C         3.8822284849    2.7849587527    0.2793372897
     22  C         3.4604167996    1.6474105551   -0.7289088317
     23  O         1.9967692723    1.5589962679   -0.5100077417
     24  H         3.3375807944   -0.4168805409    1.8750441773
     25  H         4.9787000376    0.4968620776    0.3970508887
     26  H         1.0998650487    1.1450842465    1.3876047962
     27  H         2.3566502591    3.2562545175    1.8383542740
     28  H         3.5867408410    2.0787432031    2.3879431981
     29  H         3.6103890034    3.7731934848   -0.1252403164
     30  H         4.9608484877    2.7763136325    0.5030601288
     31  H         3.6908214211    1.8326116972   -1.7960554004
     32  O        -3.5044140505   -1.6668199206    1.2570207673
     33  C        -5.5675602177   -1.4416169749   -1.3796546029
     34  C        -3.2967992346    2.1529933865   -0.7957575408
     35  C        -2.4070067567    3.3609657835   -0.2962941935
     36  C        -1.0705922023    2.6206610782    0.0827206472
     37  C        -1.4493221347    1.1260934674   -0.2507074584
     38  O        -2.3209347611    1.2471012415   -1.4405403208
     39  H        -4.1634597608    1.9747610100    1.2750922089
     40  H        -2.1013133259    0.9380823692    1.8807152093
     41  H        -6.5575062207   -0.9691903963   -1.5434965101
     42  H        -4.1024332605    2.4241361731   -1.5052593401
     43  H        -2.2521574305    4.0845807851   -1.1122812013
     44  H        -2.8606538708    3.8856513554    0.5599743763
     45  H        -0.2216712213    2.9419355785   -0.5424826782
     46  H        -0.7981816769    2.7562454320    1.1415184308
     47  H        -0.5973311492    0.4486143862   -0.4568251131
     48  H        -5.6653852206   -2.1990395990   -0.5747388991
     49  H        -5.2300064027   -1.9329017671   -2.3106718349
     50  H         3.5422371933   -3.5853465699   -2.1521167065
     51  H         5.0325094015   -3.9264063616   -1.1861529371
     52  H         5.0771403655   -2.6880575198   -2.5185102286
     53  H         0.8942774813   -4.0056617944    1.4832029410
     54  H         0.5661571767   -3.0890852906   -0.0681826121
     55  H        -1.5981659526   -3.4870843342    1.3787310697
     56  H        -0.8559990494   -2.4074220704    2.6282281894

Z-matrix Print:
$molecule
0 1
O 
C  1 1.432455
O  2 1.249909 1 124.878628
C  1 1.481314 2 113.400955 3 -31.151204 0
H  4 1.112292 1 110.893542 2 -65.401082 0
H  4 1.113282 1 112.077662 2 56.501836 0
C  4 1.564292 1 102.656812 2 176.189005 0
H  7 1.110024 4 111.225447 1 -173.368734 0
H  7 1.111080 4 109.746081 1 -50.021816 0
O  7 1.483707 4 107.117547 1 68.554010 0
C  10 1.436359 7 109.869240 4 -110.039963 0
O  11 1.249952 10 124.116515 7 6.843854 0
C  11 1.568395 10 107.987301 7 -178.778962 0
H  13 1.103302 11 110.051815 10 21.350551 0
C  2 1.572333 1 107.189967 3 174.154239 0
H  15 1.106834 2 106.083208 1 -82.551460 0
C  13 1.576022 11 113.616172 10 149.668004 0
H  17 1.107119 13 108.621333 11 -145.095798 0
C  17 1.567389 13 117.303323 11 -26.512835 0
O  19 1.251056 17 125.971613 13 168.463019 0
O  19 1.433601 17 109.340330 13 -21.655520 0
C  21 1.479940 19 110.740900 17 -179.161153 0
H  22 1.107108 21 108.441883 19 129.312399 0
H  22 1.108399 21 109.195470 19 -111.527363 0
H  22 1.108942 21 109.463176 19 8.831093 0
C  15 1.582951 2 114.839754 1 154.492982 0
H  26 1.103895 15 111.604754 2 117.386230 0
C  26 1.568306 15 113.691953 2 -4.491930 0
O  28 1.250165 26 126.958024 15 121.694019 0
O  28 1.432753 26 108.611577 15 -61.969986 0
C  30 1.479436 28 109.883124 26 176.936850 0
H  31 1.105485 30 106.058151 28 175.236910 0
H  31 1.109065 30 111.787345 28 55.685384 0
H  31 1.109571 30 111.078787 28 -65.816792 0
C  15 1.590843 2 112.935955 1 38.937722 0
H  35 1.107859 15 114.183407 2 -30.595329 0
O  35 1.479883 15 103.447675 2 89.779667 0
C  37 1.479425 35 95.057676 15 56.157507 0
H  38 1.107230 37 110.525380 35 179.685284 0
C  35 1.577448 15 108.052784 2 -160.899421 0
H  40 1.101655 35 112.279429 15 46.379720 0
H  40 1.102163 35 109.950205 15 167.396675 0
C  40 1.574073 35 101.003258 15 -73.741979 0
H  43 1.101559 40 111.590051 35 -118.058462 0
H  43 1.101947 40 112.727856 35 119.278846 0
C  13 1.591105 11 105.943431 10 -101.972412 0
H  46 1.106629 13 113.881662 11 45.823331 0
O  46 1.482938 13 101.252913 11 -72.849008 0
C  48 1.482565 46 94.852272 13 -60.525526 0
H  49 1.107334 48 110.957937 46 176.954289 0
C  49 1.577498 48 102.275666 46 -58.628523 0
H  51 1.101611 49 112.703009 48 161.356105 0
H  51 1.101902 49 110.248185 48 -76.793645 0
C  51 1.575119 49 100.536194 48 40.691394 0
H  54 1.101469 51 111.750322 49 -124.224752 0
H  54 1.101993 51 112.649877 49 113.195276 0
$end

 
 --------------------------------------------------------------
 
                    Orbital Energies (a.u.)
 --------------------------------------------------------------
 
 Alpha MOs
 -- Occupied --
-18.936 -18.929 -18.924 -18.920 -18.892 -18.882 -18.880 -18.878
-18.871 -18.860 -10.104 -10.103 -10.099 -10.086 -10.077 -10.071
-10.064 -10.063 -10.060 -10.053 -10.051 -10.048 -10.042 -10.041
-10.033 -10.029 -10.025 -10.023 -10.014 -10.011  -1.016  -1.012
 -1.005  -0.996  -0.974  -0.962  -0.942  -0.938  -0.930  -0.922
 -0.767  -0.756  -0.730  -0.720  -0.714  -0.704  -0.693  -0.661
 -0.649  -0.617  -0.597  -0.578  -0.548  -0.541  -0.537  -0.531
 -0.514  -0.510  -0.485  -0.479  -0.465  -0.460  -0.456  -0.436
 -0.433  -0.426  -0.419  -0.413  -0.410  -0.410  -0.403  -0.399
 -0.391  -0.382  -0.374  -0.363  -0.360  -0.358  -0.352  -0.346
 -0.345  -0.338  -0.334  -0.333  -0.324  -0.323  -0.317  -0.316
 -0.308  -0.305  -0.300  -0.296  -0.293  -0.290  -0.283  -0.273
 -0.269  -0.250  -0.247  -0.246  -0.239  -0.237  -0.225  -0.180
 -0.175  -0.168  -0.162  -0.161  -0.155  -0.153  -0.146  -0.138
 -0.135
 -- Virtual --
  0.092   0.095   0.107   0.114   0.227   0.238   0.251   0.253
  0.258   0.271   0.275   0.294   0.308   0.314   0.325   0.333
  0.335   0.339   0.344   0.352   0.353   0.364   0.368   0.374
  0.379   0.382   0.390   0.393   0.397   0.405   0.408   0.409
  0.416   0.417   0.420   0.422   0.425   0.436   0.437   0.437
  0.439   0.442   0.444   0.448   0.449   0.452   0.455   0.458
  0.466   0.472   0.479   0.486   0.499   0.506   0.513   0.535
  0.542   0.548   0.564   0.633   0.642   0.655   0.657
 --------------------------------------------------------------
 
          Ground-State Mulliken Net Atomic Charges

     Atom                 Charge (a.u.)
  ----------------------------------------
      1 O                    -0.216839
      2 C                     0.210927
      3 C                    -0.081427
      4 C                    -0.078113
      5 C                     0.218450
      6 O                    -0.181844
      7 C                    -0.045494
      8 C                    -0.051850
      9 O                    -0.176405
     10 C                     0.220533
     11 C                    -0.076894
     12 C                    -0.078713
     13 C                     0.214990
     14 O                    -0.214464
     15 O                    -0.168190
     16 O                    -0.170916
     17 O                    -0.211360
     18 C                    -0.135087
     19 C                     0.024282
     20 C                    -0.145574
     21 C                    -0.141736
     22 C                     0.025901
     23 O                    -0.187743
     24 H                     0.087419
     25 H                     0.085221
     26 H                     0.082385
     27 H                     0.077753
     28 H                     0.074128
     29 H                     0.078677
     30 H                     0.074463
     31 H                     0.090716
     32 O                    -0.206584
     33 C                    -0.128044
     34 C                     0.026738
     35 C                    -0.144622
     36 C                    -0.145457
     37 C                     0.022749
     38 O                    -0.184548
     39 H                     0.082183
     40 H                     0.080698
     41 H                     0.087190
     42 H                     0.081937
     43 H                     0.077225
     44 H                     0.071392
     45 H                     0.086145
     46 H                     0.066310
     47 H                     0.099938
     48 H                     0.089998
     49 H                     0.088727
     50 H                     0.088267
     51 H                     0.085728
     52 H                     0.103053
     53 H                     0.085292
     54 H                     0.107603
     55 H                     0.090314
     56 H                     0.084572
  ----------------------------------------
  Sum of atomic charges =    -0.000000

 -----------------------------------------------------------------
                    Cartesian Multipole Moments
 -----------------------------------------------------------------
    Charge (ESU x 10^10)
                 0.0000
    Dipole Moment (Debye)
         X       2.9045      Y      -0.0970      Z       2.5930
       Tot       3.8947
    Quadrupole Moments (Debye-Ang)
        XX    -169.3557     XY      -2.3317     YY    -143.6499
        XZ      11.0914     YZ       3.7597     ZZ    -162.1533
    Octopole Moments (Debye-Ang^2)
       XXX     104.2583    XXY      -9.3677    XYY       9.9674
       YYY     -48.2393    XXZ     -24.3999    XYZ       2.4372
       YYZ      -7.8139    XZZ     -11.8233    YZZ      -9.8651
       ZZZ       6.2575
    Hexadecapole Moments (Debye-Ang^3)
      XXXX  -11746.5427   XXXY     266.0838   XXYY   -2268.8763
      XYYY     174.4071   YYYY   -3421.2686   XXXZ     748.5613
      XXYZ      86.3527   XYYZ      37.9362   YYYZ     -21.9247
      XXZZ   -2132.9709   XYZZ      85.8645   YYZZ    -771.1172
      XZZZ     245.9381   YZZZ      -6.7505   ZZZZ   -1262.3582
 -----------------------------------------------------------------
Archival summary:
1\1\vega02.cac.cornell.edu\OPT\ProcedureUnspecified\STO-3G\102026\jj585\SatJan1314:50:302018SatJan1314:50:302018\0\\#,OPT,ProcedureUnspecified,STO-3G,\\0,1\O\C,1,1.43246\O,2,1.24991,1,124.879\C,1,1.48131,2,113.401,3,-31.1512,0\H,4,1.11229,1,110.894,2,-65.4011,0\H,4,1.11328,1,112.078,2,56.5018,0\C,4,1.56429,1,102.657,2,176.189,0\H,7,1.11002,4,111.225,1,-173.369,0\H,7,1.11108,4,109.746,1,-50.0218,0\O,7,1.48371,4,107.118,1,68.554,0\C,10,1.43636,7,109.869,4,-110.04,0\O,11,1.24995,10,124.117,7,6.84385,0\C,11,1.5684,10,107.987,7,-178.779,0\H,13,1.1033,11,110.052,10,21.3506,0\C,2,1.57233,1,107.19,3,174.154,0\H,15,1.10683,2,106.083,1,-82.5515,0\C,13,1.57602,11,113.616,10,149.668,0\H,17,1.10712,13,108.621,11,-145.096,0\C,17,1.56739,13,117.303,11,-26.5128,0\O,19,1.25106,17,125.972,13,168.463,0\O,19,1.4336,17,109.34,13,-21.6555,0\C,21,1.47994,19,110.741,17,-179.161,0\H,22,1.10711,21,108.442,19,129.312,0\H,22,1.1084,21,109.195,19,-111.527,0\H,22,1.10894,21,109.463,19,8.83109,0\C,15,1.58295,2,114.84,1,154.493,0\H,26,1.1039,15,111.605,2,117.386,0\C,26,1.56831,15,113.692,2,-4.49193,0\O,28,1.25016,26,126.958,15,121.694,0\O,28,1.43275,26,108.612,15,-61.97,0\C,30,1.47944,28,109.883,26,176.937,0\H,31,1.10548,30,106.058,28,175.237,0\H,31,1.10906,30,111.787,28,55.6854,0\H,31,1.10957,30,111.079,28,-65.8168,0\C,15,1.59084,2,112.936,1,38.9377,0\H,35,1.10786,15,114.183,2,-30.5953,0\O,35,1.47988,15,103.448,2,89.7797,0\C,37,1.47942,35,95.0577,15,56.1575,0\H,38,1.10723,37,110.525,35,179.685,0\C,35,1.57745,15,108.053,2,-160.899,0\H,40,1.10165,35,112.279,15,46.3797,0\H,40,1.10216,35,109.95,15,167.397,0\C,40,1.57407,35,101.003,15,-73.742,0\H,43,1.10156,40,111.59,35,-118.058,0\H,43,1.10195,40,112.728,35,119.279,0\C,13,1.5911,11,105.943,10,-101.972,0\H,46,1.10663,13,113.882,11,45.8233,0\O,46,1.48294,13,101.253,11,-72.849,0\C,48,1.48256,46,94.8523,13,-60.5255,0\H,49,1.10733,48,110.958,46,176.954,0\C,49,1.5775,48,102.276,46,-58.6285,0\H,51,1.10161,49,112.703,48,161.356,0\H,51,1.1019,49,110.248,48,-76.7936,0\C,51,1.57512,49,100.536,48,40.6914,0\H,54,1.10147,51,111.75,49,-124.225,0\H,54,1.10199,51,112.65,49,113.195,0\\\@

 Total job time:  67.12s(wall), 3197.05s(cpu) 
 Sat Jan 13 14:50:30 2018

        *************************************************************
        *                                                           *
        *  Thank you very much for using Q-Chem.  Have a nice day.  *
        *                                                           *
        *************************************************************


0 sent ACK to 0 
now end server 0 ... 
