mFile = /opt/software/qchem/qchem-5.0.1//bin/mpi/machines
Process 0 of 1 is on vega02.cac.cornell.edu - thread support 0
initial socket setup ...start
initial socket setup ...done 
now start server 0 ... 
vega02.cac.cornell.edu 10.84.3
Q-Chem Developer Version! Running on 10.84.3.*
                  Welcome to Q-Chem
     A Quantum Leap Into The Future Of Chemistry


 Q-Chem 5.0, Q-Chem, Inc., Pleasanton, CA (2017)

 Yihan Shao,  Zhengting Gan,  E. Epifanovsky,  A. T. B. Gilbert,  M. Wormit,  
 J. Kussmann,  A. W. Lange,  A. Behn,  Jia Deng,  Xintian Feng,  D. Ghosh,  
 M. Goldey,  P. R. Horn,  L. D. Jacobson,  I. Kaliman,  T. Kus,  A. Landau,  
 Jie Liu,  E. I. Proynov,  R. M. Richard,  R. P. Steele,  E. J. Sundstrom,  
 H. L. Woodcock III,  P. M. Zimmerman,  D. Zuev,  B. Albrecht,  E. Alguire,  
 S. A. Baeppler,  Z. Benda,  Y. A. Bernard,  E. J. Berquist,  K. B. Bravaya,  
 D. Casanova,  Chun-Min Chang,  Yunqing Chen,  A. Chien,  K. D. Closser,  
 M. P. Coons,  S. Dasgupta,  M. Diedenhofen,  Hainam Do,  R. G. Edgar,  
 Po-Tung Fang,  S. Fatehi,  Qingguo Feng,  Qinghui Ge,  A. Ghysels,  
 J. Gomes,  J. Gonthier,  A. Gunina,  M. W. D. Hanson-Heine,  
 P. H. P. Harbach,  A. W. Hauser,  J. E. Herr,  E. G. Hohenstein,  
 Z. C. Holden,  Kerwin Hui,  T.-C. Jagau,  Hyunjun Ji,  B. Kaduk,  
 K. Khistyaev,  Jaehoon Kim,  P. Klunzinger,  K. Koh,  D. Kosenkov,  
 T. Kowalczyk,  C. M. Krauter,  A. Kunitsa,  Ka Un Lao,  A. Laurent,  
 K. V. Lawler,  Joonho Lee,  D. Lefrancois,  S. Lehtola,  D. S. Levine,  
 Yi-Pei Li,  You-Sheng Lin,  Fenglai Liu,  E. Livshits,  A. Luenser,  
 P. Manohar,  E. Mansoor,  S. F. Manzer,  Shan-Ping Mao,  Yuezhi Mao,  
 N. Mardirossian,  A. V. Marenich,  L. A. Martinez-Martinez,  S. A. Maurer,  
 N. J. Mayhall,  S. C. McKenzie,  J.-M. Mewes,  A. F. Morrison,  K. Nanda,  
 T. S. Nguyen-Beck,  R. Olivares-Amaya,  J. A. Parkhill,  T. M. Perrine,  
 F. Plasser,  S. Prager,  A. Prociuk,  D. R. Rehn,  F. Rob,  M. Schneider,  
 N. Sergueev,  S. M. Sharada,  S. Sharma,  D. W. Small,  T. Stauch,  
 T. Stein,  Yu-Chuan Su,  A. J. W. Thom,  T. Tsuchimochi,  L. Vogt,  
 O. Vydrov,  M. A. Watson,  J. Wenzel,  M. de Wergifosse,  T. A. Wesolowski,  
 A. White,  J. Witte,  A. Yamada,  Jun Yang,  K. Yao,  S. Yeganeh,  
 S. R. Yost,  Zhi-Qiang You,  A. Zech,  Igor Ying Zhang,  Xing Zhang,  
 Yan Zhao,  Ying Zhu,  B. R. Brooks,  G. K. L. Chan,  C. J. Cramer,  
 M. S. Gordon,  W. J. Hehre,  A. Klamt,  M. W. Schmidt,  C. D. Sherrill,  
 D. G. Truhlar,  A. Aspuru-Guzik,  R. Baer,  A. T. Bell,  N. A. Besley,  
 Jeng-Da Chai,  A. Dreuw,  B. D. Dunietz,  T. R. Furlani,  Chao-Ping Hsu,  
 Yousung Jung,  Jing Kong,  D. S. Lambrecht,  WanZhen Liang,  C. Ochsenfeld,  
 V. A. Rassolov,  L. V. Slipchenko,  J. E. Subotnik,  T. Van Voorhis,  
 J. M. Herbert,  A. I. Krylov,  P. M. W. Gill,  M. Head-Gordon

 Contributors to earlier versions of Q-Chem not listed above: 
 R. D. Adamson,  B. Austin,  J. Baker,  G. J. O. Beran,  K. Brandhorst,  
 S. T. Brown,  E. F. C. Byrd,  A. K. Chakraborty,  C.-L. Cheng,  
 Siu Hung Chien,  D. M. Chipman,  D. L. Crittenden,  H. Dachsel,  
 R. A. DiStasio Jr.,  R. J. Doerksen,  A. D. Dutoi,  L. Fusti-Molnar,  
 W. A. Goddard III,  A. Golubeva-Zadorozhnaya,  S. R. Gwaltney,  G. Hawkins,  
 A. Heyden,  S. Hirata,  G. Kedziora,  F. J. Keil,  C. Kelley,  Jihan Kim,  
 R. A. King,  R. Z. Khaliullin,  P. P. Korambath,  W. Kurlancheek,  
 A. M. Lee,  M. S. Lee,  S. V. Levchenko,  Ching Yeh Lin,  D. Liotard,  
 R. C. Lochan,  I. Lotan,  P. E. Maslen,  N. Nair,  D. P. O'Neill,  
 D. Neuhauser,  E. Neuscamman,  C. M. Oana,  R. Olson,  B. Peters,  
 R. Peverati,  P. A. Pieniazek,  Y. M. Rhee,  J. Ritchie,  M. A. Rohrdanz,  
 E. Rosta,  N. J. Russ,  H. F. Schaefer III,  N. E. Schultz,  N. Shenvi,  
 A. C. Simmonett,  A. Sodt,  D. Stuck,  K. S. Thanthiriwatte,  V. Vanovschi,  
 Tao Wang,  A. Warshel,  C. F. Williams,  Q. Wu,  X. Xu,  W. Zhang

 Please cite Q-Chem as follows:
 Y. Shao et al., Mol. Phys. 113, 184-215 (2015)
 DOI: 10.1080/00268976.2014.952696

 Q-Chem 5.0.1 for Intel X86 EM64T Linux

 Parts of Q-Chem use Armadillo 5.200.1 (Boston Tea Smuggler).
 http://arma.sourceforge.net/

 Q-Chem begins on Sat Jan 13 16:23:41 2018  

Host: vega02.cac.cornell.edu
0

     Scratch files written to /scratch/jj585/SOT1001/0139c.save//
 Parallel job on  1  processors

Checking the input file for inconsistencies... 	...done.

--------------------------------------------------------------
User input:
--------------------------------------------------------------
$molecule
0  1
O -3.94934 -3.66094 2.70899
C -3.26408 -4.56952 2.26188
C -3.36658 -6.02376 2.66595
C -3.0307 -7.07563 1.59608
C -2.45871 -6.55611 0.29569
O -1.11704 -6.34011 0.43239
C -0.46187 -6.06278 -0.80982
C 1.02522 -5.81739 -0.57644
O 1.60056 -6.93027 0.12595
C 1.69414 -6.78547 1.4711
C 2.43766 -7.92013 2.1347
C 2.85525 -7.65751 3.58899
C 2.17773 -6.48513 4.26958
O 1.36243 -6.56676 5.17687
O -2.13674 -4.20596 1.59443
O 2.664 -5.25392 3.9496
O 1.14889 -5.85377 2.04474
C 2.22601 -4.07367 4.51403
C 1.61604 -9.20961 2.27165
C 2.55969 -10.40498 2.37843
C 3.14251 -10.1815 3.75935
C 2.32046 -8.96836 4.21311
O 1.07959 -9.13776 3.56869
H 3.34501 -8.10179 1.51404
H 3.9526 -7.5498 3.73614
H 0.89014 -9.35921 1.44341
H 1.92396 -11.3191 2.40346
H 3.30486 -10.49937 1.55944
H 2.90965 -11.0718 4.38483
H 4.23318 -9.96909 3.78749
H 2.29056 -8.92687 5.32433
O -3.04624 -6.63283 -0.77703
C -1.80663 -2.91408 1.24174
C -2.32849 -6.41034 3.74539
C -2.83233 -7.61356 4.54125
C -2.69728 -8.71333 3.50675
C -2.01667 -7.94074 2.3712
O -1.25001 -6.96844 3.03749
H -4.37899 -6.15811 3.11023
H -3.94399 -7.65025 1.323
H -1.70603 -2.28205 2.1497
H -2.07905 -5.57235 4.43287
H -2.08923 -7.79676 5.35072
H -3.84217 -7.50645 4.99222
H -2.02079 -9.49746 3.91373
H -3.65346 -9.1698 3.17101
H -1.46395 -8.6337 1.70063
H -2.58488 -2.4913 0.57122
H -0.83669 -2.92264 0.70333
H 2.78759 -3.22719 4.06856
H 2.40385 -4.08396 5.61058
H 1.14288 -3.93145 4.31015
H 1.53923 -5.70103 -1.55381
H 1.16561 -4.8476 -0.04664
H -0.90088 -5.16737 -1.30553
H -0.56132 -6.94458 -1.48293
$end

$opt
CONSTRAINT
tors           1           2           3           4    +148.850
tors           3           4           5           6     +82.168
tors           4           5           6           7    +170.152
tors           5           6           7           8    +179.346
tors           6           7           8           9     +54.813
tors           7           8           9          10     -96.068
tors           8           9          10          11    -173.881
tors           9          10          11          12    +166.508
tors          11          12          13          14    +110.539
ENDCONSTRAINT
$end

$rem
JOBTYPE                   OPT
METHOD                    B3LYP
DFT_D                     d3_op
BASIS                     STO-3G
GEOM_OPT_MAX_CYCLES       100
GEOM_OPT_TOL_GRADIENT     300
GEOM_OPT_TOL_DISPLACEMENT 1200
GEOM_OPT_TOL_ENERGY       100
SYMMETRY                  False
THRESH                    12
SCF_CONVERGENCE           8
MAX_SUB_FILE_NUM          128
MEM_STATIC                400
MEM_TOTAL                 4000
$end
--------------------------------------------------------------
 Adding empirical dispersion correction 
 ----------------------------------------------------------------
 Doing -D3(op) with
 s6 =   1.00000
 s8 =   0.78311
 a1 =   0.30000
 a2 =   4.25000
 n  =  10.00000
 -D3 energy without 3body term =     -0.0740194536 hartrees
 ----------------------------------------------------------------
             Standard Nuclear Orientation (Angstroms)
    I     Atom           X                Y                Z
 ----------------------------------------------------------------
    1      O      -4.5013481396     0.1392610579     1.8610833028
    2      C      -3.6254482968    -0.0334537060     1.0256341351
    3      C      -2.8894167412    -1.3330010841     0.7847462908
    4      C      -2.4131814486    -1.6153300261    -0.6496030400
    5      C      -2.5690274615    -0.4880684648    -1.6461376030
    6      O      -1.5259652735     0.3853741442    -1.5255533602
    7      C      -1.4790865825     1.3551721654    -2.5774751864
    8      C      -0.3021385533     2.3021342730    -2.3672961014
    9      O       0.9149503284     1.5498825513    -2.2420694129
   10      C       1.3119889786     1.2904184438    -0.9715610635
   11      C       2.6672571887     0.6277703977    -0.9023807792
   12      C       3.3064885850     0.6056566011     0.4937582822
   13      C       2.3770118716     0.9115960954     1.6509899046
   14      O       2.0061580387     0.1075486203     2.4939180055
   15      O      -3.0638088881     1.0860038738     0.4965436387
   16      O       2.0901708939     2.2284332499     1.8469132051
   17      O       0.5771912515     1.5194334862    -0.0217980864
   18      C       1.3210279357     2.7109619972     2.8856584314
   19      C       2.6523169629    -0.8638692262    -1.2648189386
   20      C       4.0408616608    -1.2860372702    -1.7386379888
   21      C       4.8142141812    -1.2226397099    -0.4369202245
   22      C       3.6799304848    -0.8950134949     0.5425870797
   23      O       2.5504290920    -1.5167058628    -0.0243847508
   24      H       3.3245724299     1.1913209236    -1.6037014563
   25      H       4.2032117375     1.2560553409     0.5952504305
   26      H       1.8852282788    -1.1244217048    -2.0257261762
   27      H       3.9653918853    -2.3506319798    -2.0569726014
   28      H       4.4645515764    -0.6839705503    -2.5710651275
   29      H       5.2339167222    -2.2322884686    -0.2306624704
   30      H       5.6202774820    -0.4582786401    -0.3983841807
   31      H       3.9571905186    -1.2292577457     1.5667125470
   32      O      -3.3279592816    -0.5384480398    -2.6070174334
   33      C      -3.5184388020     2.3722629457     0.6994377589
   34      C      -1.5323149845    -1.3878823834     1.5246979940
   35      C      -1.1356180747    -2.8426877258     1.7720019181
   36      C      -0.7918035370    -3.2852488642     0.3635083939
   37      C      -0.9326198902    -1.9549616890    -0.3848938167
   38      O      -0.5768360003    -0.9898126630     0.5737418758
   39      H      -3.5317148793    -2.1422220172     1.2007069046
   40      H      -2.9685049079    -2.4811870446    -1.0747699884
   41      H      -3.4780258463     2.6277901302     1.7797369274
   42      H      -1.5325297093    -0.8218175855     2.4821147803
   43      H      -0.1987523791    -2.8218129360     2.3743709433
   44      H      -1.8906764706    -3.4674132764     2.2956698701
   45      H       0.2641537181    -3.6359343968     0.3532502206
   46      H      -1.4578664434    -4.0648066746    -0.0654627308
   47      H      -0.3352484802    -1.9662506715    -1.3221115300
   48      H      -4.5599762105     2.4717563900     0.3261899289
   49      H      -2.8693490872     3.0777208349     0.1410884829
   50      H       1.2461487515     3.8143662118     2.8005922528
   51      H       1.7906401316     2.4578710603     3.8601142874
   52      H       0.2986884725     2.2780099497     2.8372980508
   53      H      -0.2172014898     2.9862470445    -3.2377979439
   54      H      -0.5018678938     2.9578143571    -1.4891834355
   55      H      -2.4184849400     1.9519753335    -2.6171483117
   56      H      -1.3296499998     0.8349271231    -3.5508982282
 ----------------------------------------------------------------
 Molecular Point Group                 C1    NOp =  1
 Largest Abelian Subgroup              C1    NOp =  1
 Nuclear Repulsion Energy =  3479.0263414876 hartrees
 There are      113 alpha and      113 beta electrons
 Requested basis set is STO-3G
 There are 86 shells and 176 basis functions

 Total QAlloc Memory Limit   4000 MB
 Mega-Array Size       392 MB
 MEM_STATIC part       400 MB
 A cutoff of  1.0D-12 yielded   2777 shell pairs
 There are     13340 function pairs
 
 -------------------------------------------------------
 OpenMP Integral Computing Module                       
 Release: version 1.0, May 2013, Q-Chem Inc. Pittsburgh 
 -------------------------------------------------------
 Integral Job Info:
 Integral job number is                      11
 Integral operator is                         1
 short-range coefficients                     0
 long-range coefficients              100000000
 Omega coefficients                           0
 if combine SR and LR in K                    0
 Integral screening is                        0
 Integral computing path is                   2
 max size of driver memory is            800000
 size of driver memory is                 45569
 size of scratch memory is              1046100
 max col of scratch BK array                289
 max len of scratch array in speh3           22
 max len of scratch index in speh4            8
 max int batch size is                      520
 min int batch size is                       52
 fixed nKL is                                52
 max L of basis functions is                  1
 order of int derivative is                   0
 number of shells is                         86
 number of basis is                         176
 number of cartesian basis is               176
 number of contracted shell pairs          2777
 number of primitive shell pairs          13218
 maxK2 (contraction) of shell pair            9
 max number of K2 of shell pair               1
 max number of CS2 of shell pair            448
 max number of PS2 of shell pair           1344
 mem total for path MDJ                   52746
 -------------------------------------------------------
 Smallest overlap matrix eigenvalue = 1.93E-01

 Scale SEOQF with 1.000000e-02/1.000000e-01/1.000000e-01

 Standard Electronic Orientation quadrupole field applied
 Nucleus-field energy     =    -0.0000000128 hartrees
 Guess from superposition of atomic densities
 Warning:  Energy on first SCF cycle will be non-variational
 A restricted hybrid HF-DFT SCF calculation will be
 performed using Pulay DIIS extrapolation
 Exchange:     0.2000 Hartree-Fock + 0.0800 Slater + 0.7200 B88
 Correlation:  0.1900 VWN1RPA + 0.8100 LYP
 Using SG-1 standard quadrature grid
 Dispersion:   Grimme D3
 SCF converges when DIIS error is below 1.0E-08
 using 48 threads for integral computing
 -------------------------------------------------------
 OpenMP Integral computing Module                
 Release: version 1.0, May 2013, Q-Chem Inc. Pittsburgh 
 -------------------------------------------------------
 -------------------------------------------------------
 OpenMP BLAS3 based DFT computing Module                
 Release: version 1.0, May 2013, Q-Chem Inc. Pittsburgh 
 -------------------------------------------------------
 ---------------------------------------
  Cycle       Energy         DIIS Error
 ---------------------------------------
    1   -1509.4660900214      8.30E-02
    2   -1509.6065167769      1.04E-02
    3   -1507.6520518495      2.50E-02
    4   -1510.0968904013      3.61E-03
    5   -1510.1469507911      1.32E-03
    6   -1510.1527351078      6.69E-04
    7   -1510.1546030801      1.35E-04
    8   -1510.1546799348      2.66E-05
    9   -1510.1546818568      1.68E-05
   10   -1510.1546830961      3.55E-06
   11   -1510.1546831499      8.69E-07
   12   -1510.1546831530      2.94E-07
   13   -1510.1546831533      1.56E-07
   14   -1510.1546831534      3.30E-08
   15   -1510.1546831534      6.46E-09 Convergence criterion met
 ---------------------------------------
 SCF time:  CPU 122.92 s  wall 2.64 s
 SCF   energy in the final basis set = -1510.15468315
 Total energy in the final basis set = -1510.15468315
 
 --------------------------------------------------------------
 
                    Orbital Energies (a.u.)
 --------------------------------------------------------------
 
 Alpha MOs
 -- Occupied --
-18.941 -18.939 -18.922 -18.909 -18.897 -18.889 -18.863 -18.860
-18.847 -18.838 -10.106 -10.104 -10.103 -10.096 -10.086 -10.081
-10.078 -10.068 -10.066 -10.063 -10.059 -10.058 -10.036 -10.035
-10.033 -10.028 -10.015 -10.014 -10.006 -10.005  -1.047  -1.039
 -1.033  -1.025  -1.019  -1.012  -0.949  -0.943  -0.937  -0.928
 -0.780  -0.775  -0.745  -0.737  -0.730  -0.718  -0.710  -0.673
 -0.669  -0.629  -0.604  -0.584  -0.553  -0.545  -0.535  -0.527
 -0.525  -0.517  -0.499  -0.493  -0.484  -0.477  -0.461  -0.445
 -0.444  -0.437  -0.432  -0.424  -0.419  -0.416  -0.413  -0.408
 -0.403  -0.389  -0.383  -0.382  -0.376  -0.362  -0.361  -0.355
 -0.348  -0.341  -0.338  -0.334  -0.331  -0.321  -0.319  -0.313
 -0.308  -0.304  -0.300  -0.296  -0.292  -0.287  -0.280  -0.275
 -0.271  -0.244  -0.240  -0.233  -0.222  -0.215  -0.209  -0.177
 -0.174  -0.164  -0.156  -0.151  -0.146  -0.139  -0.136  -0.131
 -0.125
 -- Virtual --
  0.112   0.118   0.120   0.136   0.241   0.255   0.265   0.282
  0.295   0.309   0.328   0.339   0.341   0.350   0.354   0.363
  0.376   0.382   0.383   0.387   0.391   0.396   0.399   0.401
  0.412   0.414   0.415   0.417   0.418   0.420   0.427   0.428
  0.434   0.439   0.442   0.447   0.450   0.454   0.456   0.460
  0.465   0.469   0.472   0.476   0.488   0.488   0.493   0.497
  0.498   0.503   0.509   0.519   0.526   0.549   0.553   0.567
  0.574   0.580   0.596   0.682   0.698   0.705   0.706
 --------------------------------------------------------------
 
          Ground-State Mulliken Net Atomic Charges

     Atom                 Charge (a.u.)
  ----------------------------------------
      1 O                    -0.239233
      2 C                     0.232886
      3 C                    -0.081577
      4 C                    -0.082874
      5 C                     0.234223
      6 O                    -0.175303
      7 C                    -0.033487
      8 C                    -0.033495
      9 O                    -0.197421
     10 C                     0.239198
     11 C                    -0.081555
     12 C                    -0.080192
     13 C                     0.248379
     14 O                    -0.238057
     15 O                    -0.210392
     16 O                    -0.214470
     17 O                    -0.212107
     18 C                    -0.096135
     19 C                     0.041013
     20 C                    -0.141255
     21 C                    -0.144857
     22 C                     0.043034
     23 O                    -0.206235
     24 H                     0.084143
     25 H                     0.084867
     26 H                     0.083480
     27 H                     0.073893
     28 H                     0.072128
     29 H                     0.075535
     30 H                     0.071036
     31 H                     0.089019
     32 O                    -0.233491
     33 C                    -0.095750
     34 C                     0.044090
     35 C                    -0.141752
     36 C                    -0.144107
     37 C                     0.044173
     38 O                    -0.197129
     39 H                     0.089809
     40 H                     0.083929
     41 H                     0.087033
     42 H                     0.085836
     43 H                     0.082178
     44 H                     0.069953
     45 H                     0.081007
     46 H                     0.068525
     47 H                     0.078765
     48 H                     0.084344
     49 H                     0.090693
     50 H                     0.087503
     51 H                     0.080222
     52 H                     0.089804
     53 H                     0.090483
     54 H                     0.095835
     55 H                     0.088078
     56 H                     0.085782
  ----------------------------------------
  Sum of atomic charges =    -0.000000

 -----------------------------------------------------------------
                    Cartesian Multipole Moments
 -----------------------------------------------------------------
    Charge (ESU x 10^10)
                -0.0000
    Dipole Moment (Debye)
         X       2.4590      Y       1.5719      Z      -1.9453
       Tot       3.5074
    Quadrupole Moments (Debye-Ang)
        XX    -161.6065     XY      -1.9769     YY    -146.8305
        XZ      -1.8248     YZ      -1.1652     ZZ    -161.0174
    Octopole Moments (Debye-Ang^2)
       XXX      92.9952    XXY      18.2843    XYY     -34.6872
       YYY      39.8848    XXZ      -8.3179    XYZ      14.4514
       YYZ       0.9881    XZZ      18.5313    YZZ      30.3453
       ZZZ       7.5645
    Hexadecapole Moments (Debye-Ang^3)
      XXXX   -6932.3877   XXXY     -45.0805   XXYY   -1510.2387
      XYYY     -20.4154   YYYY   -2706.1158   XXXZ     120.4415
      XXYZ     -26.7769   XYYZ      15.2540   YYYZ      13.8564
      XXZZ   -1695.2764   XYZZ     -10.7826   YYZZ    -814.3436
      XZZZ      21.5972   YZZZ      15.6769   ZZZZ   -2531.5991
 -----------------------------------------------------------------
 Calculating analytic gradient of the SCF energy
 Gradient of SCF Energy
            1           2           3           4           5           6
    1   0.0639626   0.0057225   0.0196944   0.0290308  -0.0042377  -0.0423235
    2   0.0112286  -0.0175908   0.0199211   0.0418135   0.0230066  -0.0200696
    3  -0.0470775  -0.0239041  -0.0021695   0.0027929   0.0018924  -0.0343392
            7           8           9          10          11          12
    1   0.0227079   0.0087343  -0.0265035   0.0033329  -0.0284396  -0.0299689
    2  -0.0058348  -0.0300107  -0.0022718   0.0099331  -0.0425653  -0.0209075
    3   0.0330358  -0.0145120   0.0760408  -0.0276788   0.0337788   0.0044608
           13          14          15          16          17          18
    1   0.0159446   0.0191465  -0.0930752  -0.0574474   0.0334408   0.0323825
    2   0.0030549   0.0579327   0.0353035  -0.0664119  -0.0116174   0.0065827
    3  -0.0256463  -0.0380510   0.0788487   0.0867859  -0.0533041  -0.0454149
           19          20          21          22          23          24
    1   0.0237154  -0.0176412  -0.0455573  -0.0432204   0.0564422   0.0030287
    2  -0.0051289   0.0164433   0.0045592  -0.0014633   0.0578828   0.0056467
    3   0.0633342   0.0484488  -0.0069384  -0.0604374  -0.0323161  -0.0020838
           25          26          27          28          29          30
    1   0.0056504   0.0054520  -0.0025830   0.0047347  -0.0016801   0.0035861
    2   0.0011749   0.0026933  -0.0102493   0.0035964  -0.0120853   0.0077517
    3   0.0067464  -0.0113344   0.0041623  -0.0059805  -0.0052223   0.0029338
           31          32          33          34          35          36
    1   0.0145446   0.0415889   0.0348585   0.0202599  -0.0037575  -0.0100054
    2   0.0029255  -0.0089111  -0.0377490  -0.0109379   0.0277705   0.0445943
    3   0.0014511   0.0401585  -0.0213004  -0.0667649  -0.0441200   0.0163976
           37          38          39          40          41          42
    1  -0.0153478  -0.0592797   0.0002728  -0.0031890   0.0052885  -0.0059223
    2   0.0248779  -0.0660643  -0.0067979  -0.0053153  -0.0070654  -0.0077337
    3   0.0622831  -0.0006656   0.0083244  -0.0019167  -0.0019229   0.0091504
           43          44          45          46          47          48
    1   0.0108931  -0.0040043   0.0096121  -0.0060589  -0.0032774   0.0040454
    2   0.0027304  -0.0057841  -0.0002496  -0.0027861  -0.0113843  -0.0079199
    3   0.0000270   0.0039374   0.0084554  -0.0055377  -0.0065641  -0.0036538
           49          50          51          52          53          54
    1  -0.0017523  -0.0020012   0.0059018   0.0039157  -0.0030772  -0.0043207
    2   0.0033793   0.0008123  -0.0008329  -0.0010857   0.0047093   0.0057121
    3   0.0006935   0.0027857  -0.0072089  -0.0072540   0.0040332  -0.0041504
           55          56
    1   0.0009879   0.0057931
    2   0.0019339  -0.0011465
    3   0.0041472   0.0023633
 Max gradient component =       9.308E-02
 RMS gradient           =       2.772E-02
 Gradient time:  CPU 38.97 s  wall 0.86 s
 Geometry Optimization Parameters
   NAtoms,    NIC,     NZ,  NCons,   NDum,   NFix, NCnnct, MaxDiis
       56     458       0       9       0       0       0       0


** CONSTRAINED OPTIMIZATION IN DELOCALIZED INTERNAL COORDINATES **
   Searching for a Minimum

   Optimization Cycle:   1

                       Coordinates (Angstroms)
     ATOM                X               Y               Z
      1  O        -4.5013481396    0.1392610579    1.8610833028
      2  C        -3.6254482968   -0.0334537060    1.0256341351
      3  C        -2.8894167412   -1.3330010841    0.7847462908
      4  C        -2.4131814486   -1.6153300261   -0.6496030400
      5  C        -2.5690274615   -0.4880684648   -1.6461376030
      6  O        -1.5259652735    0.3853741442   -1.5255533602
      7  C        -1.4790865825    1.3551721654   -2.5774751864
      8  C        -0.3021385533    2.3021342730   -2.3672961014
      9  O         0.9149503284    1.5498825513   -2.2420694129
     10  C         1.3119889786    1.2904184438   -0.9715610635
     11  C         2.6672571887    0.6277703977   -0.9023807792
     12  C         3.3064885850    0.6056566011    0.4937582822
     13  C         2.3770118716    0.9115960954    1.6509899046
     14  O         2.0061580387    0.1075486203    2.4939180055
     15  O        -3.0638088881    1.0860038738    0.4965436387
     16  O         2.0901708939    2.2284332499    1.8469132051
     17  O         0.5771912515    1.5194334862   -0.0217980864
     18  C         1.3210279357    2.7109619972    2.8856584314
     19  C         2.6523169629   -0.8638692262   -1.2648189386
     20  C         4.0408616608   -1.2860372702   -1.7386379888
     21  C         4.8142141812   -1.2226397099   -0.4369202245
     22  C         3.6799304848   -0.8950134949    0.5425870797
     23  O         2.5504290920   -1.5167058628   -0.0243847508
     24  H         3.3245724299    1.1913209236   -1.6037014563
     25  H         4.2032117375    1.2560553409    0.5952504305
     26  H         1.8852282788   -1.1244217048   -2.0257261762
     27  H         3.9653918853   -2.3506319798   -2.0569726014
     28  H         4.4645515764   -0.6839705503   -2.5710651275
     29  H         5.2339167222   -2.2322884686   -0.2306624704
     30  H         5.6202774820   -0.4582786401   -0.3983841807
     31  H         3.9571905186   -1.2292577457    1.5667125470
     32  O        -3.3279592816   -0.5384480398   -2.6070174334
     33  C        -3.5184388020    2.3722629457    0.6994377589
     34  C        -1.5323149845   -1.3878823834    1.5246979940
     35  C        -1.1356180747   -2.8426877258    1.7720019181
     36  C        -0.7918035370   -3.2852488642    0.3635083939
     37  C        -0.9326198902   -1.9549616890   -0.3848938167
     38  O        -0.5768360003   -0.9898126630    0.5737418758
     39  H        -3.5317148793   -2.1422220172    1.2007069046
     40  H        -2.9685049079   -2.4811870446   -1.0747699884
     41  H        -3.4780258463    2.6277901302    1.7797369274
     42  H        -1.5325297093   -0.8218175855    2.4821147803
     43  H        -0.1987523791   -2.8218129360    2.3743709433
     44  H        -1.8906764706   -3.4674132764    2.2956698701
     45  H         0.2641537181   -3.6359343968    0.3532502206
     46  H        -1.4578664434   -4.0648066746   -0.0654627308
     47  H        -0.3352484802   -1.9662506715   -1.3221115300
     48  H        -4.5599762105    2.4717563900    0.3261899289
     49  H        -2.8693490872    3.0777208349    0.1410884829
     50  H         1.2461487515    3.8143662118    2.8005922528
     51  H         1.7906401316    2.4578710603    3.8601142874
     52  H         0.2986884725    2.2780099497    2.8372980508
     53  H        -0.2172014898    2.9862470445   -3.2377979439
     54  H        -0.5018678938    2.9578143571   -1.4891834355
     55  H        -2.4184849400    1.9519753335   -2.6171483117
     56  H        -1.3296499998    0.8349271231   -3.5508982282
   Point Group: c1    Number of degrees of freedom:   162


   Energy is  -1510.154683153

              Constraints and their Current Values
                                        Value     Constraint
   Dihedral:        1   2   3   4      148.850      148.850
   Dihedral:        3   4   5   6       82.169       82.168
   Dihedral:        4   5   6   7      170.152      170.152
   Dihedral:        5   6   7   8      179.346      179.346
   Dihedral:        6   7   8   9       54.813       54.813
   Dihedral:        7   8   9  10      -96.068      -96.068
   Dihedral:        8   9  10  11     -173.881     -173.881
   Dihedral:        9  10  11  12      166.508      166.508
   Dihedral:       11  12  13  14      110.539      110.539

 Attempting to Generate Delocalized Internal Coordinates

   Using Lagrange Multiplier Algorithm


163 Hessian modes will be used to form the next step
  Hessian Eigenvalues:
    -0.977753   -0.977753   -0.977753   -0.977753   -0.977753    0.045000
     0.045000    0.045000    0.045000    0.045068    0.045354    0.045588
     0.045593    0.046037    0.046233    0.048869    0.048871    0.054510
     0.059939    0.059985    0.062486    0.062571    0.066934    0.067082
     0.067445    0.067562    0.070222    0.070758    0.071722    0.073825
     0.073900    0.075664    0.075974    0.077051    0.077241    0.082390
     0.082545    0.083256    0.083449    0.084420    0.084460    0.085843
     0.086004    0.086155    0.086661    0.086856    0.087027    0.088538
     0.088714    0.089072    0.089091    0.089831    0.089894    0.093809
     0.093901    0.096623    0.096634    0.111530    0.111568    0.114635
     0.114650    0.115897    0.116012    0.116656    0.117049    0.117882
     0.118473    0.119708    0.122562    0.123186    0.129674    0.131045
     0.131648    0.140736    0.140926    0.160000    0.160000    0.160000
     0.160000    0.160000    0.160000    0.171447    0.171769    0.172920
     0.173331    0.219682    0.221415    0.237484    0.240206    0.241798
     0.245885    0.248530    0.249407    0.250000    0.250000    0.250000
     0.250000    0.250000    0.250000    0.250000    0.250000    0.258221
     0.258692    0.267190    0.267291    0.278220    0.278512    0.281622
     0.284628    0.295158    0.295487    0.298748    0.308051    0.310698
     0.310864    0.313325    0.321565    0.321799    0.321851    0.322015
     0.322076    0.322083    0.322166    0.322802    0.323144    0.323167
     0.323473    0.323476    0.323641    0.324399    0.324448    0.324453
     0.324483    0.324639    0.324654    0.324800    0.325023    0.325090
     0.325109    0.325572    0.326649    0.326839    0.368496    0.370089
     0.383893    0.384700    0.401016    0.407719    0.491681    0.492405
     0.517914    0.525688    0.530248    0.537326    0.929951    0.941950
     0.942758    0.942986    1.022753    1.022753    1.022753    1.022753
     1.022753

 Minimum Search - Taking P-RFO Step
 Searching for Lamda that Maximizes Along the Constraint modes Only
 Value Taken    Lamda =   0.00033152
 Searching for Lamda that Minimizes Along All other modes
 Value Taken    Lamda =  -0.16802790
 Calculated Step too Large.  Step scaled by  0.522843
 Step Taken.  Stepsize is  0.300000

                             Maximum     Tolerance    Cnvgd?
         Gradient            0.114296       0.000300      NO
         Displacement        0.104431       0.001200      NO
         Energy change     *********       0.000001      NO


 New Cartesian Coordinates Obtained by Inverse Iteration

 Displacement from previous Coordinates is:  1.532029
 Adding empirical dispersion correction 
 ----------------------------------------------------------------
 Doing -D3(op) with
 s6 =   1.00000
 s8 =   0.78311
 a1 =   0.30000
 a2 =   4.25000
 n  =  10.00000
 -D3 energy without 3body term =     -0.0755764344 hartrees
 ----------------------------------------------------------------
             Standard Nuclear Orientation (Angstroms)
    I     Atom           X                Y                Z
 ----------------------------------------------------------------
    1      O      -4.4576820663     0.1396665458     1.9254202347
    2      C      -3.5875667537    -0.0171699133     1.0535043709
    3      C      -2.8088940519    -1.3119144522     0.8124579957
    4      C      -2.3554428089    -1.6117062501    -0.6477234386
    5      C      -2.5766741676    -0.4902719575    -1.6743255238
    6      O      -1.5360328920     0.4220438495    -1.5840508387
    7      C      -1.5130857958     1.4014959799    -2.6487196627
    8      C      -0.3195267959     2.3444526945    -2.3994888568
    9      O       0.8967362039     1.5694190858    -2.2748187754
   10      C       1.2496019875     1.2909380976    -0.9661276579
   11      C       2.6145325349     0.6036181990    -0.8892279978
   12      C       3.2470686615     0.5450912172     0.5313445313
   13      C       2.3005445771     0.8610331024     1.7003517315
   14      O       1.8961541388     0.0428316288     2.5397540212
   15      O      -3.0354848438     1.0899059593     0.4406033036
   16      O       2.0729830977     2.2137645617     1.8703689177
   17      O       0.4930464427     1.5213699797    -0.0132464798
   18      C       1.2816252861     2.6706559594     2.9393084348
   19      C       2.5742707558    -0.9050326756    -1.2777931735
   20      C       3.9837514111    -1.3405371242    -1.7491034000
   21      C       4.7526405991    -1.3057793508    -0.4156224575
   22      C       3.5961558289    -0.9804883767     0.5729423984
   23      O       2.4422320212    -1.5894068121    -0.0242273784
   24      H       3.2868591126     1.1618419751    -1.5750686435
   25      H       4.1515027538     1.1766136174     0.6466149271
   26      H       1.8061972480    -1.1428663323    -2.0423718915
   27      H       3.9037817874    -2.3925992618    -2.0898851881
   28      H       4.4192934889    -0.7302563601    -2.5630674410
   29      H       5.1622551257    -2.3149530128    -0.2152419324
   30      H       5.5627602282    -0.5535183929    -0.3583721009
   31      H       3.8465049711    -1.3316269263     1.5958567491
   32      O      -3.3732437097    -0.5574937442    -2.6220064243
   33      C      -3.5593165233     2.3771397302     0.6537799503
   34      C      -1.4094641387    -1.3046736422     1.5263365531
   35      C      -0.9653263115    -2.7662816440     1.7876890800
   36      C      -0.6434617056    -3.2303135970     0.3548930926
   37      C      -0.8371512205    -1.8985881023    -0.4223153394
   38      O      -0.4747010898    -0.8848246806     0.5247558515
   39      H      -3.4137789042    -2.1280479760     1.2580441300
   40      H      -2.8939966769    -2.4988301816    -1.0398263019
   41      H      -3.4958346073     2.6647031984     1.7267940790
   42      H      -1.3978798805    -0.7142335453     2.4662217254
   43      H      -0.0202898810    -2.7156229461     2.3654019363
   44      H      -1.6895841535    -3.3959126724     2.3389513833
   45      H       0.4143222455    -3.5561248794     0.3140532706
   46      H      -1.2989108346    -4.0305077724    -0.0398448576
   47      H      -0.2657548875    -1.9001028301    -1.3731132834
   48      H      -4.6202882644     2.4390370500     0.3242109953
   49      H      -2.9606864911     3.0963677119     0.0586918534
   50      H       1.2269542352     3.7767282758     2.8840455985
   51      H       1.7241776395     2.3850907438     3.9197653266
   52      H       0.2490664516     2.2603779045     2.8756701089
   53      H      -0.2144628930     3.0437453503    -3.2559742514
   54      H      -0.5185293106     2.9784365171    -1.5060318497
   55      H      -2.4550383219     1.9943046914    -2.6867425731
   56      H      -1.3678203869     0.8933224859    -3.6296109550
 ----------------------------------------------------------------
 Molecular Point Group                 C1    NOp =  1
 Largest Abelian Subgroup              C1    NOp =  1
 Nuclear Repulsion Energy =  3477.8349136106 hartrees
 There are      113 alpha and      113 beta electrons
 Applying Cartesian multipole field
    Component          Value
    ---------          -----
     (2,0,0)        1.00000E-12
     (0,2,0)        2.00000E-11
     (0,0,2)       -3.00000E-11
 Nucleus-field energy     =    -0.0000000152 hartrees
 Requested basis set is STO-3G
 There are 86 shells and 176 basis functions
 A cutoff of  1.0D-12 yielded   2795 shell pairs
 There are     13400 function pairs
 Smallest overlap matrix eigenvalue = 2.02E-01
 Guess MOs from SCF MO coefficient file
 Reading MOs from coefficient file
 Reading MOs from coefficient file
 A restricted hybrid HF-DFT SCF calculation will be
 performed using Pulay DIIS extrapolation
 Exchange:     0.2000 Hartree-Fock + 0.0800 Slater + 0.7200 B88
 Correlation:  0.1900 VWN1RPA + 0.8100 LYP
 Using SG-1 standard quadrature grid
 Dispersion:   Grimme D3
 SCF converges when DIIS error is below 1.0E-08
 Geometry optimization detected.  Setting ReadMinima to 0
 Setting SaveMinima to 0
 using 48 threads for integral computing
 -------------------------------------------------------
 OpenMP Integral computing Module                
 Release: version 1.0, May 2013, Q-Chem Inc. Pittsburgh 
 -------------------------------------------------------
 -------------------------------------------------------
 OpenMP BLAS3 based DFT computing Module                
 Release: version 1.0, May 2013, Q-Chem Inc. Pittsburgh 
 -------------------------------------------------------
 ---------------------------------------
  Cycle       Energy         DIIS Error
 ---------------------------------------
    1   -1510.0420958084      3.54E-03
    2   -1510.2195210997      1.04E-03
    3   -1510.2109597437      1.77E-03
    4   -1510.2239363617      3.34E-04
    5   -1510.2244405790      6.97E-05
    6   -1510.2244557776      3.99E-05
    7   -1510.2244620580      1.28E-05
    8   -1510.2244628021      2.38E-06
    9   -1510.2244628282      1.26E-06
   10   -1510.2244628345      5.15E-07
   11   -1510.2244628358      1.00E-07
   12   -1510.2244628359      3.35E-08
   13   -1510.2244628360      2.34E-08
   14   -1510.2244628360      7.15E-09 Convergence criterion met
 ---------------------------------------
 SCF time:  CPU 107.72 s  wall 2.25 s
 SCF   energy in the final basis set = -1510.22446284
 Total energy in the final basis set = -1510.22446284
 
 --------------------------------------------------------------
 
                    Orbital Energies (a.u.)
 --------------------------------------------------------------
 
 Alpha MOs
 -- Occupied --
-18.936 -18.934 -18.927 -18.915 -18.895 -18.887 -18.866 -18.859
-18.850 -18.842 -10.100 -10.098 -10.097 -10.092 -10.082 -10.078
-10.073 -10.065 -10.063 -10.060 -10.055 -10.054 -10.036 -10.033
-10.031 -10.028 -10.016 -10.015 -10.005 -10.003  -1.033  -1.025
 -1.018  -1.013  -1.000  -0.990  -0.940  -0.935  -0.932  -0.923
 -0.771  -0.765  -0.736  -0.728  -0.720  -0.710  -0.702  -0.667
 -0.664  -0.622  -0.599  -0.580  -0.549  -0.541  -0.534  -0.524
 -0.521  -0.512  -0.494  -0.486  -0.476  -0.470  -0.454  -0.439
 -0.435  -0.431  -0.425  -0.418  -0.414  -0.411  -0.407  -0.402
 -0.397  -0.384  -0.376  -0.375  -0.369  -0.357  -0.356  -0.349
 -0.344  -0.336  -0.335  -0.331  -0.330  -0.322  -0.319  -0.310
 -0.304  -0.300  -0.296  -0.294  -0.290  -0.284  -0.277  -0.271
 -0.267  -0.242  -0.241  -0.233  -0.223  -0.221  -0.219  -0.174
 -0.171  -0.166  -0.158  -0.148  -0.145  -0.138  -0.135  -0.134
 -0.129
 -- Virtual --
  0.107   0.113   0.114   0.128   0.238   0.250   0.263   0.275
  0.288   0.298   0.316   0.325   0.335   0.343   0.346   0.359
  0.364   0.371   0.377   0.380   0.383   0.387   0.390   0.392
  0.397   0.404   0.406   0.412   0.412   0.415   0.419   0.421
  0.426   0.432   0.433   0.436   0.438   0.440   0.446   0.448
  0.460   0.460   0.465   0.468   0.473   0.474   0.481   0.486
  0.489   0.492   0.497   0.502   0.509   0.530   0.535   0.551
  0.564   0.568   0.576   0.658   0.675   0.679   0.681
 --------------------------------------------------------------
 
          Ground-State Mulliken Net Atomic Charges

     Atom                 Charge (a.u.)
  ----------------------------------------
      1 O                    -0.230410
      2 C                     0.220005
      3 C                    -0.080997
      4 C                    -0.081075
      5 C                     0.224264
      6 O                    -0.171745
      7 C                    -0.036384
      8 C                    -0.037268
      9 O                    -0.190551
     10 C                     0.228394
     11 C                    -0.079615
     12 C                    -0.078763
     13 C                     0.236374
     14 O                    -0.229972
     15 O                    -0.194854
     16 O                    -0.200739
     17 O                    -0.201698
     18 C                    -0.104322
     19 C                     0.036392
     20 C                    -0.142525
     21 C                    -0.145641
     22 C                     0.037456
     23 O                    -0.197269
     24 H                     0.083750
     25 H                     0.084023
     26 H                     0.082775
     27 H                     0.074151
     28 H                     0.073019
     29 H                     0.075443
     30 H                     0.071594
     31 H                     0.088157
     32 O                    -0.228202
     33 C                    -0.104100
     34 C                     0.039411
     35 C                    -0.142754
     36 C                    -0.144844
     37 C                     0.039370
     38 O                    -0.187020
     39 H                     0.088208
     40 H                     0.083323
     41 H                     0.086997
     42 H                     0.085411
     43 H                     0.083295
     44 H                     0.070184
     45 H                     0.082440
     46 H                     0.068547
     47 H                     0.078086
     48 H                     0.084792
     49 H                     0.090248
     50 H                     0.087589
     51 H                     0.080955
     52 H                     0.089782
     53 H                     0.088444
     54 H                     0.095752
     55 H                     0.087073
     56 H                     0.085045
  ----------------------------------------
  Sum of atomic charges =    -0.000000

 -----------------------------------------------------------------
                    Cartesian Multipole Moments
 -----------------------------------------------------------------
    Charge (ESU x 10^10)
                -0.0000
    Dipole Moment (Debye)
         X       2.4926      Y       1.6130      Z      -1.7378
       Tot       3.4401
    Quadrupole Moments (Debye-Ang)
        XX    -161.4767     XY      -3.0499     YY    -147.0752
        XZ      -1.4147     YZ      -0.9572     ZZ    -160.5010
    Octopole Moments (Debye-Ang^2)
       XXX      89.6036    XXY      19.8663    XYY     -34.3107
       YYY      41.0071    XXZ      -6.5299    XYZ      14.4482
       YYZ       0.9966    XZZ      20.5133    YZZ      31.4991
       ZZZ       7.4662
    Hexadecapole Moments (Debye-Ang^3)
      XXXX   -6704.2947   XXXY       7.4749   XXYY   -1473.8889
      XYYY      47.7879   YYYY   -2677.8059   XXXZ      83.8675
      XXYZ     -26.1448   XYYZ       5.7635   YYYZ      16.7415
      XXZZ   -1672.7790   XYZZ       9.7495   YYZZ    -819.3159
      XZZZ       2.1243   YZZZ      22.2670   ZZZZ   -2594.0392
 -----------------------------------------------------------------
 Calculating analytic gradient of the SCF energy
 Gradient of SCF Energy
            1           2           3           4           5           6
    1   0.0295248   0.0113305   0.0065197   0.0198183  -0.0027729  -0.0269514
    2   0.0075475  -0.0151536   0.0111184   0.0262793   0.0174880  -0.0122050
    3  -0.0171146  -0.0323022   0.0002731  -0.0015258   0.0119369  -0.0227173
            7           8           9          10          11          12
    1   0.0165512   0.0104752  -0.0231067   0.0104561  -0.0192588  -0.0158588
    2  -0.0027648  -0.0213157  -0.0024744   0.0067124  -0.0278061  -0.0076041
    3   0.0214098  -0.0083153   0.0455774  -0.0281014   0.0198146   0.0036334
           13          14          15          16          17          18
    1   0.0141807   0.0109019  -0.0605521  -0.0424792   0.0137554   0.0256887
    2   0.0127437   0.0254033   0.0258509  -0.0446201  -0.0074460   0.0059764
    3  -0.0272389  -0.0138343   0.0553493   0.0591513  -0.0235849  -0.0344765
           19          20          21          22          23          24
    1   0.0089345  -0.0096764  -0.0228639  -0.0307251   0.0351129   0.0017096
    2  -0.0062711   0.0111665   0.0033413  -0.0031837   0.0343422   0.0042620
    3   0.0400018   0.0246076  -0.0027395  -0.0354206  -0.0169014  -0.0007674
           25          26          27          28          29          30
    1   0.0034000   0.0052349  -0.0023243   0.0031432  -0.0021174   0.0020032
    2  -0.0001513   0.0029022  -0.0061938   0.0006047  -0.0073945   0.0043130
    3   0.0060708  -0.0093793   0.0035163  -0.0041270  -0.0044236   0.0028239
           31          32          33          34          35          36
    1   0.0126539   0.0228136   0.0278725   0.0134222  -0.0057022  -0.0057082
    2   0.0032350  -0.0076367  -0.0279275  -0.0021338   0.0143441   0.0229985
    3   0.0006539   0.0161534  -0.0174942  -0.0420431  -0.0230760   0.0068245
           37          38          39          40          41          42
    1  -0.0055564  -0.0327549   0.0010667  -0.0019922   0.0033484  -0.0052383
    2   0.0189622  -0.0394923  -0.0029440  -0.0027746  -0.0029728  -0.0074195
    3   0.0371441   0.0007074   0.0069664  -0.0009031  -0.0000151   0.0074758
           43          44          45          46          47          48
    1   0.0064388  -0.0007218   0.0055089  -0.0029764  -0.0032067   0.0012140
    2   0.0024122  -0.0038157   0.0000676  -0.0015826  -0.0100667  -0.0037963
    3  -0.0010488   0.0034274   0.0064073  -0.0040575  -0.0050449  -0.0026475
           49          50          51          52          53          54
    1  -0.0014460  -0.0019502   0.0036990   0.0008198  -0.0031159  -0.0029575
    2   0.0034388   0.0012201  -0.0001413  -0.0004903   0.0043653   0.0058367
    3   0.0003767   0.0026092  -0.0025150  -0.0038334   0.0034310  -0.0035606
           55          56
    1   0.0006252   0.0037900
    2   0.0015477  -0.0007015
    3   0.0019523   0.0009138
 Max gradient component =       6.055E-02
 RMS gradient           =       1.754E-02
 Gradient time:  CPU 31.20 s  wall 0.66 s
 Geometry Optimization Parameters
   NAtoms,    NIC,     NZ,  NCons,   NDum,   NFix, NCnnct, MaxDiis
       56     458       0       9       0       0       0       0

 Cartesian Hessian Update
 Hessian Updated using BFGS Update


** CONSTRAINED OPTIMIZATION IN DELOCALIZED INTERNAL COORDINATES **
   Searching for a Minimum

   Optimization Cycle:   2

                       Coordinates (Angstroms)
     ATOM                X               Y               Z
      1  O        -4.4576820663    0.1396665458    1.9254202347
      2  C        -3.5875667537   -0.0171699133    1.0535043709
      3  C        -2.8088940519   -1.3119144522    0.8124579957
      4  C        -2.3554428089   -1.6117062501   -0.6477234386
      5  C        -2.5766741676   -0.4902719575   -1.6743255238
      6  O        -1.5360328920    0.4220438495   -1.5840508387
      7  C        -1.5130857958    1.4014959799   -2.6487196627
      8  C        -0.3195267959    2.3444526945   -2.3994888568
      9  O         0.8967362039    1.5694190858   -2.2748187754
     10  C         1.2496019875    1.2909380976   -0.9661276579
     11  C         2.6145325349    0.6036181990   -0.8892279978
     12  C         3.2470686615    0.5450912172    0.5313445313
     13  C         2.3005445771    0.8610331024    1.7003517315
     14  O         1.8961541388    0.0428316288    2.5397540212
     15  O        -3.0354848438    1.0899059593    0.4406033036
     16  O         2.0729830977    2.2137645617    1.8703689177
     17  O         0.4930464427    1.5213699797   -0.0132464798
     18  C         1.2816252861    2.6706559594    2.9393084348
     19  C         2.5742707558   -0.9050326756   -1.2777931735
     20  C         3.9837514111   -1.3405371242   -1.7491034000
     21  C         4.7526405991   -1.3057793508   -0.4156224575
     22  C         3.5961558289   -0.9804883767    0.5729423984
     23  O         2.4422320212   -1.5894068121   -0.0242273784
     24  H         3.2868591126    1.1618419751   -1.5750686435
     25  H         4.1515027538    1.1766136174    0.6466149271
     26  H         1.8061972480   -1.1428663323   -2.0423718915
     27  H         3.9037817874   -2.3925992618   -2.0898851881
     28  H         4.4192934889   -0.7302563601   -2.5630674410
     29  H         5.1622551257   -2.3149530128   -0.2152419324
     30  H         5.5627602282   -0.5535183929   -0.3583721009
     31  H         3.8465049711   -1.3316269263    1.5958567491
     32  O        -3.3732437097   -0.5574937442   -2.6220064243
     33  C        -3.5593165233    2.3771397302    0.6537799503
     34  C        -1.4094641387   -1.3046736422    1.5263365531
     35  C        -0.9653263115   -2.7662816440    1.7876890800
     36  C        -0.6434617056   -3.2303135970    0.3548930926
     37  C        -0.8371512205   -1.8985881023   -0.4223153394
     38  O        -0.4747010898   -0.8848246806    0.5247558515
     39  H        -3.4137789042   -2.1280479760    1.2580441300
     40  H        -2.8939966769   -2.4988301816   -1.0398263019
     41  H        -3.4958346073    2.6647031984    1.7267940790
     42  H        -1.3978798805   -0.7142335453    2.4662217254
     43  H        -0.0202898810   -2.7156229461    2.3654019363
     44  H        -1.6895841535   -3.3959126724    2.3389513833
     45  H         0.4143222455   -3.5561248794    0.3140532706
     46  H        -1.2989108346   -4.0305077724   -0.0398448576
     47  H        -0.2657548875   -1.9001028301   -1.3731132834
     48  H        -4.6202882644    2.4390370500    0.3242109953
     49  H        -2.9606864911    3.0963677119    0.0586918534
     50  H         1.2269542352    3.7767282758    2.8840455985
     51  H         1.7241776395    2.3850907438    3.9197653266
     52  H         0.2490664516    2.2603779045    2.8756701089
     53  H        -0.2144628930    3.0437453503   -3.2559742514
     54  H        -0.5185293106    2.9784365171   -1.5060318497
     55  H        -2.4550383219    1.9943046914   -2.6867425731
     56  H        -1.3678203869    0.8933224859   -3.6296109550
   Point Group: c1    Number of degrees of freedom:   162


   Energy is  -1510.224462836

              Constraints and their Current Values
                                        Value     Constraint
   Dihedral:        1   2   3   4      148.896      148.850
   Dihedral:        3   4   5   6       82.187       82.168
   Dihedral:        4   5   6   7      170.152      170.152
   Dihedral:        5   6   7   8      179.346      179.346
   Dihedral:        6   7   8   9       54.827       54.813
   Dihedral:        7   8   9  10      -96.084      -96.068
   Dihedral:        8   9  10  11     -173.881     -173.881
   Dihedral:        9  10  11  12      166.502      166.508
   Dihedral:       11  12  13  14      110.539      110.539
 Hessian Updated using BFGS Update

   Using Lagrange Multiplier Algorithm


151 Hessian modes will be used to form the next step
  Hessian Eigenvalues:
    -0.977753   -0.977753   -0.977753   -0.977753   -0.977566    0.044978
     0.045000    0.045039    0.045367    0.045588    0.045594    0.046064
     0.046230    0.048867    0.048876    0.054510    0.059823    0.059982
     0.062481    0.062574    0.066933    0.067085    0.067439    0.067535
     0.070214    0.070755    0.071649    0.073793    0.073899    0.075667
     0.075971    0.077049    0.077247    0.082382    0.082543    0.083257
     0.083449    0.084420    0.084523    0.085848    0.085965    0.086156
     0.086660    0.086855    0.087007    0.088546    0.088643    0.089080
     0.089111    0.089835    0.089916    0.093820    0.093907    0.096627
     0.096630    0.111542    0.111615    0.114641    0.114680    0.115897
     0.116012    0.116665    0.117053    0.117899    0.118418    0.119708
     0.122551    0.123189    0.129680    0.131068    0.131647    0.140593
     0.141306    0.159644    0.161513    0.170996    0.171993    0.172835
     0.173441    0.218966    0.222448    0.228799    0.237841    0.240221
     0.241810    0.246412    0.248731    0.249426    0.255201    0.258377
     0.261944    0.267239    0.267576    0.278353    0.279977    0.283182
     0.288687    0.295320    0.297839    0.301324    0.308864    0.310634
     0.312217    0.318475    0.321571    0.321833    0.321888    0.322010
     0.322079    0.322163    0.322373    0.322863    0.323155    0.323389
     0.323475    0.323605    0.323728    0.324388    0.324424    0.324468
     0.324481    0.324622    0.324745    0.324833    0.325053    0.325100
     0.325571    0.326593    0.326804    0.329032    0.368473    0.370056
     0.384296    0.399323    0.406648    0.421117    0.475322    0.492046
     0.518670    0.523440    0.530027    0.536919    0.930849    0.942298
     0.942865    0.996759    1.022753    1.022753    1.022753    1.022753
     1.025550

 Minimum Search - Taking P-RFO Step
 Searching for Lamda that Maximizes Along the Constraint modes Only
 Value Taken    Lamda =   0.00001739
 Searching for Lamda that Minimizes Along All other modes
 Value Taken    Lamda =  -0.07702238
 Calculated Step too Large.  Step scaled by  0.625496
 Step Taken.  Stepsize is  0.300000

                             Maximum     Tolerance    Cnvgd?
         Gradient            0.066814       0.000300      NO
         Displacement        0.097655       0.001200      NO
         Energy change     -0.069780       0.000001      NO


 New Cartesian Coordinates Obtained by Inverse Iteration

 Displacement from previous Coordinates is:  1.194485
 Adding empirical dispersion correction 
 ----------------------------------------------------------------
 Doing -D3(op) with
 s6 =   1.00000
 s8 =   0.78311
 a1 =   0.30000
 a2 =   4.25000
 n  =  10.00000
 -D3 energy without 3body term =     -0.0762205176 hartrees
 ----------------------------------------------------------------
             Standard Nuclear Orientation (Angstroms)
    I     Atom           X                Y                Z
 ----------------------------------------------------------------
    1      O      -4.3839793087     0.1565400779     2.0103665632
    2      C      -3.5308249817    -0.0016951326     1.1115857381
    3      C      -2.7553300573    -1.3102630729     0.8326044509
    4      C      -2.3343565679    -1.6039129990    -0.6536244418
    5      C      -2.5760545581    -0.4606078004    -1.6806642263
    6      O      -1.5127353052     0.4541105322    -1.6038118828
    7      C      -1.5229024514     1.4422207281    -2.6795322639
    8      C      -0.2990272365     2.3716826264    -2.4276775747
    9      O       0.9213054086     1.5730805875    -2.3293751919
   10      C       1.2405959207     1.2972666793    -0.9859480742
   11      C       2.6094709535     0.5868296907    -0.8950175744
   12      C       3.2183244277     0.5288853105     0.5458333856
   13      C       2.2352621520     0.8965396640     1.6929794506
   14      O       1.7705235021     0.1130760872     2.5450016499
   15      O      -2.9745834077     1.0961295720     0.4453723600
   16      O       2.0671806736     2.2856518660     1.7872699294
   17      O       0.4769847260     1.5612698908    -0.0378628852
   18      C       1.2101197319     2.7067811528     2.8596002560
   19      C       2.5451353134    -0.9415277138    -1.2697654087
   20      C       3.9728046006    -1.3989478087    -1.7114760693
   21      C       4.7221915764    -1.3580460827    -0.3481356379
   22      C       3.5401569017    -1.0125795184     0.6263525395
   23      O       2.3718631397    -1.6236148573     0.0059220827
   24      H       3.2995641964     1.1180419972    -1.5798274690
   25      H       4.1295989064     1.1456371461     0.6637968950
   26      H       1.7758453660    -1.1780737154    -2.0306530209
   27      H       3.8966809265    -2.4479049048    -2.0508327761
   28      H       4.4245092011    -0.7952257106    -2.5169788753
   29      H       5.1249452234    -2.3608103054    -0.1232174464
   30      H       5.5337937184    -0.6125447356    -0.2874752023
   31      H       3.7446025999    -1.3548753131     1.6603387217
   32      O      -3.4115427058    -0.4870687490    -2.6068281630
   33      C      -3.5765383725     2.3649257354     0.7442561866
   34      C      -1.3235238785    -1.3057103642     1.5204220626
   35      C      -0.8802380238    -2.7862238418     1.7553242623
   36      C      -0.5959454180    -3.2426115884     0.2961827561
   37      C      -0.7983770830    -1.8925834377    -0.4728964019
   38      O      -0.4001109833    -0.8702874201     0.4851557666
   39      H      -3.3521957467    -2.1271390090     1.2798613297
   40      H      -2.8858754383    -2.4838683775    -1.0369613372
   41      H      -3.4825653192     2.6206065116     1.8221030768
   42      H      -1.2806360928    -0.7102562938     2.4540699478
   43      H       0.0738300143    -2.7532906577     2.3123404761
   44      H      -1.5987788060    -3.4105561810     2.3138347707
   45      H       0.4534436375    -3.5761628648     0.2153975398
   46      H      -1.2677195091    -4.0321703581    -0.0833526359
   47      H      -0.2491842093    -1.8728600097    -1.4336290903
   48      H      -4.6534733798     2.3851304660     0.4688335644
   49      H      -3.0388766802     3.1266777858     0.1471904990
   50      H       1.1574258164     3.8120386050     2.8229513429
   51      H       1.6080103790     2.3974485155     3.8508642235
   52      H       0.1841648083     2.2937322929     2.7457250645
   53      H      -0.1879368734     3.0783286781    -3.2774003819
   54      H      -0.4727487623     2.9824347668    -1.5145785894
   55      H      -2.4625124240     2.0390901639    -2.6920676386
   56      H      -1.4106517754     0.9415723947    -3.6680627559
 ----------------------------------------------------------------
 Molecular Point Group                 C1    NOp =  1
 Largest Abelian Subgroup              C1    NOp =  1
 Nuclear Repulsion Energy =  3475.5036029593 hartrees
 There are      113 alpha and      113 beta electrons
 Applying Cartesian multipole field
    Component          Value
    ---------          -----
     (2,0,0)        1.00000E-12
     (0,2,0)        2.00000E-11
     (0,0,2)       -3.00000E-11
 Nucleus-field energy     =    -0.0000000145 hartrees
 Requested basis set is STO-3G
 There are 86 shells and 176 basis functions
 A cutoff of  1.0D-12 yielded   2808 shell pairs
 There are     13428 function pairs
 Smallest overlap matrix eigenvalue = 2.07E-01
 Guess MOs from SCF MO coefficient file
 Reading MOs from coefficient file
 Reading MOs from coefficient file
 A restricted hybrid HF-DFT SCF calculation will be
 performed using Pulay DIIS extrapolation
 Exchange:     0.2000 Hartree-Fock + 0.0800 Slater + 0.7200 B88
 Correlation:  0.1900 VWN1RPA + 0.8100 LYP
 Using SG-1 standard quadrature grid
 Dispersion:   Grimme D3
 SCF converges when DIIS error is below 1.0E-08
 Geometry optimization detected.  Setting ReadMinima to 0
 Setting SaveMinima to 0
 using 48 threads for integral computing
 -------------------------------------------------------
 OpenMP Integral computing Module                
 Release: version 1.0, May 2013, Q-Chem Inc. Pittsburgh 
 -------------------------------------------------------
 -------------------------------------------------------
 OpenMP BLAS3 based DFT computing Module                
 Release: version 1.0, May 2013, Q-Chem Inc. Pittsburgh 
 -------------------------------------------------------
 ---------------------------------------
  Cycle       Energy         DIIS Error
 ---------------------------------------
    1   -1510.1049997381      3.27E-03
    2   -1510.2573108456      9.26E-04
    3   -1510.2494421423      1.65E-03
    4   -1510.2608367450      3.00E-04
    5   -1510.2612327355      7.01E-05
    6   -1510.2612480878      3.93E-05
    7   -1510.2612540632      1.31E-05
    8   -1510.2612548425      2.44E-06
    9   -1510.2612548703      1.13E-06
   10   -1510.2612548753      4.72E-07
   11   -1510.2612548763      8.01E-08
   12   -1510.2612548764      2.90E-08
   13   -1510.2612548764      2.15E-08
   14   -1510.2612548765      4.64E-09 Convergence criterion met
 ---------------------------------------
 SCF time:  CPU 106.17 s  wall 2.22 s
 SCF   energy in the final basis set = -1510.26125488
 Total energy in the final basis set = -1510.26125488
 
 --------------------------------------------------------------
 
                    Orbital Energies (a.u.)
 --------------------------------------------------------------
 
 Alpha MOs
 -- Occupied --
-18.934 -18.931 -18.931 -18.917 -18.892 -18.885 -18.871 -18.860
-18.856 -18.848 -10.097 -10.095 -10.094 -10.088 -10.077 -10.075
-10.067 -10.062 -10.057 -10.057 -10.053 -10.051 -10.035 -10.032
-10.030 -10.028 -10.016 -10.015 -10.006 -10.004  -1.024  -1.018
 -1.009  -1.005  -0.984  -0.975  -0.937  -0.931  -0.929  -0.921
 -0.766  -0.759  -0.729  -0.722  -0.714  -0.704  -0.696  -0.662
 -0.657  -0.617  -0.595  -0.577  -0.547  -0.538  -0.533  -0.524
 -0.517  -0.509  -0.489  -0.480  -0.469  -0.463  -0.450  -0.435
 -0.429  -0.428  -0.422  -0.413  -0.410  -0.407  -0.403  -0.399
 -0.393  -0.379  -0.369  -0.369  -0.361  -0.352  -0.350  -0.344
 -0.342  -0.334  -0.333  -0.330  -0.329  -0.323  -0.319  -0.308
 -0.302  -0.299  -0.296  -0.293  -0.289  -0.283  -0.275  -0.268
 -0.265  -0.245  -0.242  -0.234  -0.231  -0.230  -0.222  -0.174
 -0.170  -0.167  -0.160  -0.147  -0.146  -0.140  -0.136  -0.133
 -0.132
 -- Virtual --
  0.103   0.109   0.111   0.123   0.236   0.248   0.261   0.269
  0.283   0.292   0.306   0.312   0.326   0.332   0.341   0.353
  0.354   0.359   0.366   0.368   0.376   0.377   0.382   0.383
  0.389   0.397   0.401   0.405   0.408   0.412   0.417   0.419
  0.421   0.423   0.426   0.426   0.434   0.438   0.441   0.446
  0.451   0.452   0.457   0.458   0.463   0.464   0.472   0.474
  0.478   0.482   0.491   0.499   0.503   0.524   0.525   0.547
  0.557   0.565   0.566   0.645   0.662   0.667   0.667
 --------------------------------------------------------------
 
          Ground-State Mulliken Net Atomic Charges

     Atom                 Charge (a.u.)
  ----------------------------------------
      1 O                    -0.224770
      2 C                     0.211584
      3 C                    -0.081034
      4 C                    -0.080017
      5 C                     0.217289
      6 O                    -0.167924
      7 C                    -0.039805
      8 C                    -0.042503
      9 O                    -0.182995
     10 C                     0.222766
     11 C                    -0.078942
     12 C                    -0.078767
     13 C                     0.228401
     14 O                    -0.224204
     15 O                    -0.179221
     16 O                    -0.187219
     17 O                    -0.195529
     18 C                    -0.114564
     19 C                     0.032545
     20 C                    -0.143403
     21 C                    -0.146152
     22 C                     0.032370
     23 O                    -0.189914
     24 H                     0.083979
     25 H                     0.083303
     26 H                     0.082140
     27 H                     0.074708
     28 H                     0.073686
     29 H                     0.075514
     30 H                     0.072137
     31 H                     0.087133
     32 O                    -0.224678
     33 C                    -0.114431
     34 C                     0.035146
     35 C                    -0.143074
     36 C                    -0.145207
     37 C                     0.034926
     38 O                    -0.180052
     39 H                     0.086622
     40 H                     0.082963
     41 H                     0.088017
     42 H                     0.085909
     43 H                     0.083488
     44 H                     0.070679
     45 H                     0.082737
     46 H                     0.068997
     47 H                     0.077862
     48 H                     0.086082
     49 H                     0.089351
     50 H                     0.085968
     51 H                     0.082136
     52 H                     0.090913
     53 H                     0.086408
     54 H                     0.097077
     55 H                     0.087068
     56 H                     0.084502
  ----------------------------------------
  Sum of atomic charges =    -0.000000

 -----------------------------------------------------------------
                    Cartesian Multipole Moments
 -----------------------------------------------------------------
    Charge (ESU x 10^10)
                -0.0000
    Dipole Moment (Debye)
         X       2.4258      Y       1.3599      Z      -1.5950
       Tot       3.2059
    Quadrupole Moments (Debye-Ang)
        XX    -160.8119     XY      -3.4183     YY    -147.3839
        XZ      -1.3713     YZ      -0.7560     ZZ    -160.5342
    Octopole Moments (Debye-Ang^2)
       XXX      82.6645    XXY      17.2621    XYY     -35.2122
       YYY      36.8535    XXZ      -4.1082    XYZ      12.0750
       YYZ       1.0931    XZZ      20.5570    YZZ      28.4500
       ZZZ       6.1487
    Hexadecapole Moments (Debye-Ang^3)
      XXXX   -6535.4267   XXXY      32.3930   XXYY   -1461.7873
      XYYY      74.9982   YYYY   -2728.2307   XXXZ      73.2189
      XXYZ     -22.4449   XYYZ       6.0730   YYYZ      16.7612
      XXZZ   -1648.5313   XYZZ      17.3155   YYZZ    -827.4873
      XZZZ      16.0522   YZZZ      20.8880   ZZZZ   -2594.7786
 -----------------------------------------------------------------
 Calculating analytic gradient of the SCF energy
 Gradient of SCF Energy
            1           2           3           4           5           6
    1   0.0146674   0.0038944  -0.0000038   0.0148021  -0.0028947  -0.0146957
    2   0.0055026  -0.0070412   0.0029319   0.0133354   0.0130378  -0.0056874
    3  -0.0043588  -0.0267674   0.0008187  -0.0018220   0.0127911  -0.0123682
            7           8           9          10          11          12
    1   0.0074361   0.0104786  -0.0138191   0.0078579  -0.0103642  -0.0065735
    2  -0.0025543  -0.0129053  -0.0037606   0.0055331  -0.0160275   0.0010884
    3   0.0108400  -0.0001310   0.0212809  -0.0185095   0.0116174   0.0001178
           13          14          15          16          17          18
    1   0.0068313   0.0057919  -0.0309969  -0.0262612   0.0050925   0.0166349
    2   0.0107033   0.0100781   0.0125946  -0.0250638  -0.0039362   0.0012894
    3  -0.0179858  -0.0027862   0.0340432   0.0288023  -0.0085556  -0.0197751
           19          20          21          22          23          24
    1   0.0012059  -0.0042223  -0.0086376  -0.0196550   0.0179551   0.0012913
    2  -0.0046577   0.0085407   0.0028175  -0.0043256   0.0162786   0.0022349
    3   0.0229132   0.0097916  -0.0009450  -0.0185799  -0.0073968   0.0000468
           25          26          27          28          29          30
    1   0.0018655   0.0043311  -0.0018499   0.0015576  -0.0022093   0.0006949
    2  -0.0008112   0.0026002  -0.0031369  -0.0012662  -0.0039636   0.0018382
    3   0.0045631  -0.0064960   0.0032320  -0.0026741  -0.0032224   0.0022892
           31          32          33          34          35          36
    1   0.0097454   0.0118115   0.0159629   0.0088547  -0.0060118  -0.0031662
    2   0.0031751  -0.0060108  -0.0175625   0.0024938   0.0064978   0.0099701
    3   0.0002056   0.0031952  -0.0107398  -0.0240221  -0.0107326   0.0023974
           37          38          39          40          41          42
    1   0.0002307  -0.0155239   0.0013619  -0.0014534   0.0016331  -0.0043473
    2   0.0122170  -0.0200480  -0.0005025  -0.0008681  -0.0006302  -0.0063933
    3   0.0193095   0.0009069   0.0053127  -0.0002983   0.0002448   0.0053925
           43          44          45          46          47          48
    1   0.0035845   0.0010969   0.0027564  -0.0010204  -0.0033507   0.0000803
    2   0.0020539  -0.0021569   0.0004205  -0.0003304  -0.0079415  -0.0013111
    3  -0.0016878   0.0026459   0.0045004  -0.0028252  -0.0033343  -0.0014346
           49          50          51          52          53          54
    1  -0.0008578  -0.0011489   0.0017362  -0.0001482  -0.0022752  -0.0020891
    2   0.0017801   0.0005697   0.0001417  -0.0000620   0.0035637   0.0050053
    3   0.0002873   0.0013555  -0.0004585  -0.0012985   0.0024926  -0.0026701
           55          56
    1   0.0001879   0.0021451
    2   0.0008609  -0.0001996
    3   0.0003299   0.0001522
 Max gradient component =       3.404E-02
 RMS gradient           =       9.753E-03
 Gradient time:  CPU 32.46 s  wall 0.68 s
 Geometry Optimization Parameters
   NAtoms,    NIC,     NZ,  NCons,   NDum,   NFix, NCnnct, MaxDiis
       56     458       0       9       0       0       0       0

 Cartesian Hessian Update
 Hessian Updated using BFGS Update


** CONSTRAINED OPTIMIZATION IN DELOCALIZED INTERNAL COORDINATES **
   Searching for a Minimum

   Optimization Cycle:   3

                       Coordinates (Angstroms)
     ATOM                X               Y               Z
      1  O        -4.3839793087    0.1565400779    2.0103665632
      2  C        -3.5308249817   -0.0016951326    1.1115857381
      3  C        -2.7553300573   -1.3102630729    0.8326044509
      4  C        -2.3343565679   -1.6039129990   -0.6536244418
      5  C        -2.5760545581   -0.4606078004   -1.6806642263
      6  O        -1.5127353052    0.4541105322   -1.6038118828
      7  C        -1.5229024514    1.4422207281   -2.6795322639
      8  C        -0.2990272365    2.3716826264   -2.4276775747
      9  O         0.9213054086    1.5730805875   -2.3293751919
     10  C         1.2405959207    1.2972666793   -0.9859480742
     11  C         2.6094709535    0.5868296907   -0.8950175744
     12  C         3.2183244277    0.5288853105    0.5458333856
     13  C         2.2352621520    0.8965396640    1.6929794506
     14  O         1.7705235021    0.1130760872    2.5450016499
     15  O        -2.9745834077    1.0961295720    0.4453723600
     16  O         2.0671806736    2.2856518660    1.7872699294
     17  O         0.4769847260    1.5612698908   -0.0378628852
     18  C         1.2101197319    2.7067811528    2.8596002560
     19  C         2.5451353134   -0.9415277138   -1.2697654087
     20  C         3.9728046006   -1.3989478087   -1.7114760693
     21  C         4.7221915764   -1.3580460827   -0.3481356379
     22  C         3.5401569017   -1.0125795184    0.6263525395
     23  O         2.3718631397   -1.6236148573    0.0059220827
     24  H         3.2995641964    1.1180419972   -1.5798274690
     25  H         4.1295989064    1.1456371461    0.6637968950
     26  H         1.7758453660   -1.1780737154   -2.0306530209
     27  H         3.8966809265   -2.4479049048   -2.0508327761
     28  H         4.4245092011   -0.7952257106   -2.5169788753
     29  H         5.1249452234   -2.3608103054   -0.1232174464
     30  H         5.5337937184   -0.6125447356   -0.2874752023
     31  H         3.7446025999   -1.3548753131    1.6603387217
     32  O        -3.4115427058   -0.4870687490   -2.6068281630
     33  C        -3.5765383725    2.3649257354    0.7442561866
     34  C        -1.3235238785   -1.3057103642    1.5204220626
     35  C        -0.8802380238   -2.7862238418    1.7553242623
     36  C        -0.5959454180   -3.2426115884    0.2961827561
     37  C        -0.7983770830   -1.8925834377   -0.4728964019
     38  O        -0.4001109833   -0.8702874201    0.4851557666
     39  H        -3.3521957467   -2.1271390090    1.2798613297
     40  H        -2.8858754383   -2.4838683775   -1.0369613372
     41  H        -3.4825653192    2.6206065116    1.8221030768
     42  H        -1.2806360928   -0.7102562938    2.4540699478
     43  H         0.0738300143   -2.7532906577    2.3123404761
     44  H        -1.5987788060   -3.4105561810    2.3138347707
     45  H         0.4534436375   -3.5761628648    0.2153975398
     46  H        -1.2677195091   -4.0321703581   -0.0833526359
     47  H        -0.2491842093   -1.8728600097   -1.4336290903
     48  H        -4.6534733798    2.3851304660    0.4688335644
     49  H        -3.0388766802    3.1266777858    0.1471904990
     50  H         1.1574258164    3.8120386050    2.8229513429
     51  H         1.6080103790    2.3974485155    3.8508642235
     52  H         0.1841648083    2.2937322929    2.7457250645
     53  H        -0.1879368734    3.0783286781   -3.2774003819
     54  H        -0.4727487623    2.9824347668   -1.5145785894
     55  H        -2.4625124240    2.0390901639   -2.6920676386
     56  H        -1.4106517754    0.9415723947   -3.6680627559
   Point Group: c1    Number of degrees of freedom:   162


   Energy is  -1510.261254876

              Constraints and their Current Values
                                        Value     Constraint
   Dihedral:        1   2   3   4      148.856      148.850
   Dihedral:        3   4   5   6       82.178       82.168
   Dihedral:        4   5   6   7      170.152      170.152
   Dihedral:        5   6   7   8      179.346      179.346
   Dihedral:        6   7   8   9       54.821       54.813
   Dihedral:        7   8   9  10      -96.068      -96.068
   Dihedral:        8   9  10  11     -173.881     -173.881
   Dihedral:        9  10  11  12      166.497      166.508
   Dihedral:       11  12  13  14      110.539      110.539
 Hessian Updated using BFGS Update

   Using Lagrange Multiplier Algorithm


154 Hessian modes will be used to form the next step
  Hessian Eigenvalues:
    -0.977753   -0.977753   -0.977753   -0.977738   -0.977469    0.044739
     0.045000    0.045001    0.045078    0.045259    0.045570    0.045594
     0.046023    0.046202    0.048823    0.048871    0.054510    0.059199
     0.059972    0.062492    0.062631    0.066925    0.067086    0.067416
     0.067581    0.070175    0.070762    0.071516    0.073683    0.073877
     0.075665    0.075947    0.076964    0.077313    0.082401    0.082546
     0.083258    0.083448    0.084384    0.084565    0.085650    0.086014
     0.086164    0.086653    0.086853    0.087118    0.088509    0.088846
     0.089075    0.089182    0.089869    0.089926    0.093791    0.093875
     0.096621    0.096630    0.111543    0.111625    0.114641    0.114676
     0.115896    0.116012    0.116611    0.117052    0.117900    0.118583
     0.119697    0.122548    0.123189    0.129680    0.131051    0.131641
     0.140767    0.141708    0.159806    0.160042    0.161564    0.171872
     0.172103    0.173282    0.173468    0.217303    0.222704    0.236747
     0.239689    0.241178    0.241865    0.246386    0.248724    0.249481
     0.254566    0.256405    0.261497    0.263261    0.267370    0.267574
     0.278580    0.279943    0.283182    0.289178    0.295323    0.297892
     0.301944    0.308643    0.310493    0.312792    0.317193    0.321533
     0.321786    0.321884    0.322010    0.322079    0.322156    0.322380
     0.322857    0.323154    0.323390    0.323476    0.323567    0.323693
     0.324384    0.324426    0.324459    0.324482    0.324615    0.324748
     0.324809    0.325051    0.325100    0.325571    0.326621    0.326824
     0.330915    0.368096    0.369974    0.383555    0.386563    0.406700
     0.409625    0.460798    0.492043    0.514050    0.521999    0.528781
     0.536388    0.931103    0.942387    0.942847    1.003533    1.022753
     1.022753    1.022753    1.022824    1.026882

 Minimum Search - Taking P-RFO Step
 Searching for Lamda that Maximizes Along the Constraint modes Only
 Value Taken    Lamda =   0.00001039
 Searching for Lamda that Minimizes Along All other modes
 Value Taken    Lamda =  -0.03061940
 Calculated Step too Large.  Step scaled by  0.723755
 Step Taken.  Stepsize is  0.300000

                             Maximum     Tolerance    Cnvgd?
         Gradient            0.032217       0.000300      NO
         Displacement        0.084670       0.001200      NO
         Energy change     -0.036792       0.000001      NO


 New Cartesian Coordinates Obtained by Inverse Iteration

 Displacement from previous Coordinates is:  0.999253
 Adding empirical dispersion correction 
 ----------------------------------------------------------------
 Doing -D3(op) with
 s6 =   1.00000
 s8 =   0.78311
 a1 =   0.30000
 a2 =   4.25000
 n  =  10.00000
 -D3 energy without 3body term =     -0.0755031481 hartrees
 ----------------------------------------------------------------
             Standard Nuclear Orientation (Angstroms)
    I     Atom           X                Y                Z
 ----------------------------------------------------------------
    1      O      -4.4237356259     0.1451179165     2.0067242968
    2      C      -3.5670343366    -0.0109833138     1.1065249265
    3      C      -2.7791601184    -1.3251273307     0.8236699615
    4      C      -2.3520188445    -1.6205825662    -0.6697841518
    5      C      -2.5957993049    -0.4676638546    -1.7040960308
    6      O      -1.5198518284     0.4543953028    -1.6181933902
    7      C      -1.5376620768     1.4470436142    -2.7053444807
    8      C      -0.3040736459     2.3751965385    -2.4371972222
    9      O       0.9331730222     1.5787632391    -2.3311649529
   10      C       1.2384659451     1.3013243067    -0.9630352571
   11      C       2.6255955161     0.5971851587    -0.8833838560
   12      C       3.2570512439     0.5235959540     0.5620129616
   13      C       2.2939666845     0.9288240156     1.7328435263
   14      O       1.8121539190     0.1679042325     2.5988954668
   15      O      -3.0257606783     1.0785533125     0.3756571305
   16      O       2.2141939428     2.3486005559     1.8113842949
   17      O       0.4718162689     1.5732798721    -0.0158103151
   18      C       1.3462514854     2.7582640927     2.9147352728
   19      C       2.5434715943    -0.9427114200    -1.2612502853
   20      C       3.9735450775    -1.4121038338    -1.7147049754
   21      C       4.7368260196    -1.3793134117    -0.3471995856
   22      C       3.5605361234    -1.0280022527     0.6469542717
   23      O       2.3685160507    -1.6335610115     0.0278694254
   24      H       3.3086814252     1.1186366807    -1.5790851609
   25      H       4.1758879081     1.1294761313     0.6614899686
   26      H       1.7513515536    -1.1750748006    -1.9982125220
   27      H       3.8980331434    -2.4545980045    -2.0677816278
   28      H       4.4186120409    -0.7983501845    -2.5141947102
   29      H       5.1453196956    -2.3773927190    -0.1201472989
   30      H       5.5497128032    -0.6366227446    -0.2986994989
   31      H       3.7451246760    -1.3774643072     1.6812835980
   32      O      -3.4546937978    -0.4582516457    -2.6137298348
   33      C      -3.7028458098     2.3315873438     0.7090975671
   34      C      -1.3391632327    -1.3032084601     1.5211195164
   35      C      -0.8844886116    -2.7905455601     1.7551424865
   36      C      -0.5967364210    -3.2481307558     0.2856183305
[...]
     15  O        -3.2868766243    0.9523772867    0.3295299470
     16  O         2.5739513929    2.5180427897    1.6471852639
     17  O         0.5900814748    1.6039875957    0.0844341223
     18  C         1.7097365826    3.1533712906    2.6649230508
     19  C         2.5843141130   -0.9526582876   -1.3223376862
     20  C         4.0506620801   -1.4715635764   -1.6067369731
     21  C         4.6132064200   -1.6185488262   -0.1438345844
     22  C         3.3788033149   -1.1167085113    0.7039257304
     23  O         2.2160896990   -1.6272035989   -0.0598068480
     24  H         3.3405471288    1.1323664395   -1.5885538623
     25  H         4.2734941910    0.9359095387    0.5906287367
     26  H         1.8466071255   -1.1699934382   -2.1185501706
     27  H         4.0193521926   -2.4413351358   -2.1283685611
     28  H         4.6303258591   -0.7611317836   -2.2174685031
     29  H         4.8442742492   -2.6688747105    0.0951309018
     30  H         5.5148477362   -1.0097094158    0.0297758393
     31  H         3.3325683057   -1.4711549071    1.7518261414
     32  O        -3.5442735157   -0.2529692162   -2.4656589570
     33  C        -4.1010479486    2.1359758977    0.6836702756
     34  C        -1.3030994920   -1.4037043852    1.5162083024
     35  C        -0.8457741408   -2.9074838252    1.6592783238
     36  C        -0.5321846055   -3.2637113668    0.1593941688
     37  C        -0.7934916535   -1.8781611367   -0.5487760126
     38  O        -0.4060162082   -0.8775667239    0.4714045095
     39  H        -3.3288791757   -2.2706861184    1.1889935755
     40  H        -2.8928920341   -2.4898043704   -1.1187956309
     41  H        -3.9024185740    2.4708219958    1.7221905847
     42  H        -1.2266222635   -0.7928635430    2.4364868561
     43  H         0.0606985150   -2.9669778625    2.2823597355
     44  H        -1.6263867867   -3.5470614714    2.1014012144
     45  H         0.5231147075   -3.5506236943    0.0273845114
     46  H        -1.1794232450   -4.0634103598   -0.2355848743
     47  H        -0.2245018208   -1.7186863504   -1.4830275608
     48  H        -5.1864746519    1.9321925666    0.5795451571
     49  H        -3.8031188497    2.9302809188   -0.0251274091
     50  H         1.8987813135    4.2405156461    2.5957695985
     51  H         1.9504573186    2.7992449906    3.6884788155
     52  H         0.6381132216    2.9486699989    2.4636535964
     53  H        -0.1739124219    3.2093867217   -3.0993024820
     54  H        -0.4271667099    2.9672515632   -1.3102462868
     55  H        -2.4796833828    2.1617252151   -2.5070847702
     56  H        -1.4921089175    1.1151627919   -3.5931138675
   Point Group: c1    Number of degrees of freedom:   162


   Energy is  -1510.286165387

              Constraints and their Current Values
                                        Value     Constraint
   Dihedral:        1   2   3   4      148.850      148.850
   Dihedral:        3   4   5   6       82.168       82.168
   Dihedral:        4   5   6   7      170.152      170.152
   Dihedral:        5   6   7   8      179.346      179.346
   Dihedral:        6   7   8   9       54.813       54.813
   Dihedral:        7   8   9  10      -96.068      -96.068
   Dihedral:        8   9  10  11     -173.881     -173.881
   Dihedral:        9  10  11  12      166.508      166.508
   Dihedral:       11  12  13  14      110.539      110.539
 Hessian Updated using BFGS Update

153 Hessian modes will be used to form the next step
  Hessian Eigenvalues:
     0.002846    0.008616    0.019037    0.023069    0.044821    0.045003
     0.045052    0.045188    0.045502    0.045942    0.048873    0.049079
     0.053504    0.054515    0.059234    0.060269    0.062640    0.064916
     0.066234    0.066998    0.067310    0.067989    0.070338    0.071656
     0.073541    0.074371    0.075591    0.075746    0.077957    0.078836
     0.082065    0.082735    0.083352    0.084048    0.084256    0.084827
     0.085808    0.085920    0.086533    0.087248    0.087585    0.088196
     0.089017    0.089069    0.089724    0.089841    0.091009    0.093585
     0.094013    0.094545    0.096613    0.096668    0.111597    0.111678
     0.114716    0.114847    0.115585    0.115912    0.116019    0.117435
     0.117983    0.120148    0.122795    0.123285    0.124038    0.129939
     0.130278    0.131926    0.157035    0.159005    0.159670    0.159986
     0.160132    0.160447    0.161739    0.162450    0.172907    0.173748
     0.196302    0.205279    0.222329    0.236593    0.238513    0.238895
     0.240934    0.244452    0.247137    0.249066    0.250177    0.250891
     0.253755    0.258596    0.263512    0.266811    0.267236    0.273852
     0.278460    0.280942    0.284739    0.293581    0.296917    0.299688
     0.302753    0.307525    0.308530    0.311204    0.316554    0.321571
     0.321762    0.321886    0.322030    0.322087    0.322198    0.322334
     0.322844    0.323155    0.323418    0.323593    0.323741    0.323907
     0.324418    0.324438    0.324588    0.324709    0.324794    0.324904
     0.325097    0.325421    0.325604    0.326311    0.326784    0.330183
     0.331585    0.359415    0.368180    0.369580    0.374722    0.396808
     0.403449    0.421118    0.449533    0.467296    0.495575    0.504066
     0.513783    0.525418    0.544620    0.673698    0.931626    0.943002
     0.944356    1.013266    1.848660

 Minimum Search - Taking Simple RFO Step
 Searching for Lamda that Minimizes Along All modes
 Value Taken    Lamda =   0.00000000
 Step Taken.  Stepsize is  0.003104

                             Maximum     Tolerance    Cnvgd?
         Gradient           0.000055      0.000300     YES
         Displacement       0.000702      0.001200     YES
         Energy change     -0.000002      0.000001      NO

 Final energy is   -1510.28616538692     


 ******************************
 **  OPTIMIZATION CONVERGED  **
 ******************************

                       Coordinates (Angstroms)
     ATOM                X               Y               Z
      1  O        -4.4307288141   -0.0701947733    2.1258956180
      2  C        -3.6000515965   -0.1429676282    1.1927334098
      3  C        -2.7483512368   -1.4035964462    0.8258782568
      4  C        -2.3529238800   -1.6227230948   -0.6982577993
      5  C        -2.6011064950   -0.3985262406   -1.6578471297
      6  O        -1.4988414635    0.5067317175   -1.5369382413
      7  C        -1.5469018114    1.5588477913   -2.5744470235
      8  C        -0.2954168789    2.4607579708   -2.2897839213
      9  O         0.9454149981    1.6484807668   -2.2630429949
     10  C         1.2790585812    1.2975021130   -0.9137698800
     11  C         2.6691845835    0.5789457187   -0.9072629817
     12  C         3.2778132487    0.4588936623    0.5490971006
     13  C         2.3902977621    1.0918092977    1.6866023107
     14  O         1.7679875484    0.4856592136    2.5838232337
     15  O        -3.2868766243    0.9523772867    0.3295299470
     16  O         2.5739513929    2.5180427897    1.6471852639
     17  O         0.5900814748    1.6039875957    0.0844341223
     18  C         1.7097365826    3.1533712906    2.6649230508
     19  C         2.5843141130   -0.9526582876   -1.3223376862
     20  C         4.0506620801   -1.4715635764   -1.6067369731
     21  C         4.6132064200   -1.6185488262   -0.1438345844
     22  C         3.3788033149   -1.1167085113    0.7039257304
     23  O         2.2160896990   -1.6272035989   -0.0598068480
     24  H         3.3405471288    1.1323664395   -1.5885538623
     25  H         4.2734941910    0.9359095387    0.5906287367
     26  H         1.8466071255   -1.1699934382   -2.1185501706
     27  H         4.0193521926   -2.4413351358   -2.1283685611
     28  H         4.6303258591   -0.7611317836   -2.2174685031
     29  H         4.8442742492   -2.6688747105    0.0951309018
     30  H         5.5148477362   -1.0097094158    0.0297758393
     31  H         3.3325683057   -1.4711549071    1.7518261414
     32  O        -3.5442735157   -0.2529692162   -2.4656589570
     33  C        -4.1010479486    2.1359758977    0.6836702756
     34  C        -1.3030994920   -1.4037043852    1.5162083024
     35  C        -0.8457741408   -2.9074838252    1.6592783238
     36  C        -0.5321846055   -3.2637113668    0.1593941688
     37  C        -0.7934916535   -1.8781611367   -0.5487760126
     38  O        -0.4060162082   -0.8775667239    0.4714045095
     39  H        -3.3288791757   -2.2706861184    1.1889935755
     40  H        -2.8928920341   -2.4898043704   -1.1187956309
     41  H        -3.9024185740    2.4708219958    1.7221905847
     42  H        -1.2266222635   -0.7928635430    2.4364868561
     43  H         0.0606985150   -2.9669778625    2.2823597355
     44  H        -1.6263867867   -3.5470614714    2.1014012144
     45  H         0.5231147075   -3.5506236943    0.0273845114
     46  H        -1.1794232450   -4.0634103598   -0.2355848743
     47  H        -0.2245018208   -1.7186863504   -1.4830275608
     48  H        -5.1864746519    1.9321925666    0.5795451571
     49  H        -3.8031188497    2.9302809188   -0.0251274091
     50  H         1.8987813135    4.2405156461    2.5957695985
     51  H         1.9504573186    2.7992449906    3.6884788155
     52  H         0.6381132216    2.9486699989    2.4636535964
     53  H        -0.1739124219    3.2093867217   -3.0993024820
     54  H        -0.4271667099    2.9672515632   -1.3102462868
     55  H        -2.4796833828    2.1617252151   -2.5070847702
     56  H        -1.4921089175    1.1151627919   -3.5931138675

Z-matrix Print:
$molecule
0 1
O 
C  1 1.474176
H  2 1.107198 1 110.496535
C  1 1.480572 2 95.042482 3 -178.808724 0
H  4 1.105445 1 110.495699 2 -178.941311 0
C  4 1.577826 1 103.937118 2 -55.190490 0
H  6 1.101545 4 109.487106 1 -85.457291 0
H  6 1.102019 4 112.278160 1 152.937256 0
C  6 1.573178 4 101.306617 1 32.235523 0
H  9 1.101573 6 111.285546 4 -113.641421 0
H  9 1.101766 6 113.102235 4 123.331102 0
C  4 1.587269 1 102.312843 2 59.604018 0
H  12 1.104648 4 112.940491 1 -158.583050 0
C  12 1.575139 4 109.709157 1 81.487147 0
O  14 1.250324 12 127.080187 4 145.283483 0
O  14 1.431467 12 108.585283 4 -30.330274 0
C  16 1.478405 14 111.453292 12 170.152009 0
H  17 1.112448 16 110.927054 14 -60.938119 0
H  17 1.112691 16 111.737552 14 59.927301 0
C  17 1.568659 16 104.826048 14 179.346026 0
H  20 1.109292 17 110.058439 16 172.886764 0
H  20 1.110580 17 109.124851 16 -65.801015 0
O  20 1.483298 17 110.843069 16 54.813055 0
C  23 1.433542 20 110.226897 17 -96.067966 0
O  24 1.251013 23 124.253256 20 2.056955 0
C  24 1.564869 23 108.849752 20 -173.880993 0
H  26 1.105061 24 107.888757 23 42.806827 0
C  26 1.582980 24 112.345972 23 166.508048 0
H  28 1.104830 26 110.385747 24 -122.830626 0
C  28 1.575495 26 114.657426 24 -0.753494 0
O  30 1.248877 28 127.187313 26 110.538979 0
O  30 1.438549 28 107.853557 26 -78.043078 0
C  32 1.478614 30 109.421931 28 177.569755 0
H  33 1.105623 32 106.230897 30 179.470838 0
H  33 1.109409 32 111.125694 30 -61.398826 0
H  33 1.109513 32 111.779172 30 60.037285 0
C  28 1.586409 26 100.928797 24 119.047389 0
H  37 1.107188 28 114.058162 26 -153.401215 0
O  37 1.481822 28 103.999071 26 -33.374356 0
C  39 1.478034 37 95.022513 28 55.895876 0
H  40 1.106978 39 111.024552 37 -179.986078 0
C  37 1.579333 28 108.237570 26 75.811907 0
H  42 1.101672 37 110.514522 28 168.521743 0
H  42 1.101718 37 112.300804 28 46.924101 0
C  42 1.574212 37 100.944381 28 -73.451672 0
H  45 1.101606 42 111.592163 37 -118.945014 0
H  45 1.101688 42 112.789692 37 118.389295 0
C  12 1.589770 4 100.152259 1 -40.960285 0
H  48 1.104857 12 109.730969 4 -108.856621 0
C  48 1.564980 12 118.107890 4 130.094062 0
O  50 1.251444 48 125.653420 12 148.850049 0
O  50 1.429328 48 110.884787 12 -32.400601 0
C  52 1.479593 50 110.359735 48 179.827171 0
H  53 1.105476 52 105.843793 50 -179.871219 0
H  53 1.109099 52 111.535766 50 61.014276 0
H  53 1.109288 52 111.654433 50 -60.666880 0
$end

 
 --------------------------------------------------------------
 
                    Orbital Energies (a.u.)
 --------------------------------------------------------------
 
 Alpha MOs
 -- Occupied --
-18.934 -18.932 -18.922 -18.912 -18.885 -18.882 -18.877 -18.867
-18.861 -18.854 -10.099 -10.094 -10.091 -10.085 -10.073 -10.070
-10.063 -10.059 -10.053 -10.050 -10.048 -10.048 -10.036 -10.029
-10.028 -10.028 -10.019 -10.017 -10.008 -10.006  -1.014  -1.008
 -0.998  -0.991  -0.967  -0.957  -0.937  -0.930  -0.925  -0.918
 -0.759  -0.752  -0.724  -0.715  -0.708  -0.698  -0.691  -0.658
 -0.650  -0.611  -0.592  -0.573  -0.543  -0.536  -0.532  -0.525
 -0.511  -0.504  -0.484  -0.475  -0.462  -0.453  -0.448  -0.429
 -0.425  -0.424  -0.418  -0.409  -0.407  -0.402  -0.399  -0.397
 -0.390  -0.375  -0.367  -0.364  -0.355  -0.347  -0.345  -0.341
 -0.337  -0.331  -0.330  -0.328  -0.323  -0.321  -0.317  -0.308
 -0.302  -0.299  -0.297  -0.293  -0.289  -0.285  -0.271  -0.268
 -0.266  -0.248  -0.242  -0.239  -0.238  -0.230  -0.220  -0.174
 -0.174  -0.165  -0.158  -0.152  -0.148  -0.142  -0.139  -0.135
 -0.126
 -- Virtual --
  0.099   0.100   0.116   0.122   0.226   0.244   0.253   0.259
  0.270   0.278   0.288   0.296   0.313   0.321   0.331   0.335
  0.345   0.347   0.351   0.355   0.359   0.363   0.372   0.374
  0.384   0.388   0.395   0.401   0.406   0.408   0.412   0.413
  0.419   0.423   0.424   0.426   0.430   0.435   0.436   0.438
  0.441   0.442   0.444   0.446   0.454   0.455   0.462   0.464
  0.471   0.477   0.488   0.494   0.499   0.511   0.519   0.545
  0.549   0.556   0.570   0.638   0.647   0.657   0.662
 --------------------------------------------------------------
 
          Ground-State Mulliken Net Atomic Charges

     Atom                 Charge (a.u.)
  ----------------------------------------
      1 O                    -0.216337
      2 C                     0.207845
      3 C                    -0.080498
      4 C                    -0.080120
      5 C                     0.215448
      6 O                    -0.166816
      7 C                    -0.044887
      8 C                    -0.049324
      9 O                    -0.174306
     10 C                     0.222642
     11 C                    -0.076477
     12 C                    -0.079959
     13 C                     0.219195
     14 O                    -0.217838
     15 O                    -0.164733
     16 O                    -0.178741
     17 O                    -0.191946
     18 C                    -0.128472
     19 C                     0.027176
     20 C                    -0.144124
     21 C                    -0.144363
     22 C                     0.025768
     23 O                    -0.186168
     24 H                     0.085033
     25 H                     0.082172
     26 H                     0.080919
     27 H                     0.076308
     28 H                     0.073106
     29 H                     0.076429
     30 H                     0.072827
     31 H                     0.088245
     32 O                    -0.222554
     33 C                    -0.125759
     34 C                     0.028978
     35 C                    -0.141474
     36 C                    -0.145221
     37 C                     0.030661
     38 O                    -0.175518
     39 H                     0.083855
     40 H                     0.082129
     41 H                     0.090471
     42 H                     0.087474
     43 H                     0.080831
     44 H                     0.070603
     45 H                     0.084818
     46 H                     0.068820
     47 H                     0.078054
     48 H                     0.089887
     49 H                     0.088268
     50 H                     0.083837
     51 H                     0.084724
     52 H                     0.091550
     53 H                     0.086809
     54 H                     0.099797
     55 H                     0.087354
     56 H                     0.083602
  ----------------------------------------
  Sum of atomic charges =     0.000000

 -----------------------------------------------------------------
                    Cartesian Multipole Moments
 -----------------------------------------------------------------
    Charge (ESU x 10^10)
                -0.0000
    Dipole Moment (Debye)
         X       2.1612      Y       0.9184      Z      -1.7376
       Tot       2.9212
    Quadrupole Moments (Debye-Ang)
        XX    -159.2765     XY      -4.6470     YY    -146.3042
        XZ      -1.3442     YZ      -0.4043     ZZ    -161.4007
    Octopole Moments (Debye-Ang^2)
       XXX      65.2435    XXY      14.6933    XYY     -35.6264
       YYY      34.4003    XXZ      -3.9861    XYZ       6.3895
       YYZ       2.0437    XZZ      21.3443    YZZ      22.1636
       ZZZ      -4.8454
    Hexadecapole Moments (Debye-Ang^3)
      XXXX   -6854.8505   XXXY     -74.2797   XXYY   -1559.4301
      XYYY      25.6102   YYYY   -2938.8977   XXXZ      -7.5445
      XXYZ      -1.8520   XYYZ       3.4712   YYYZ      15.5460
      XXZZ   -1688.5503   XYZZ      -2.3050   YYZZ    -835.7877
      XZZZ      -8.7866   YZZZ      13.8775   ZZZZ   -2454.8126
 -----------------------------------------------------------------
Archival summary:
1\1\vega02.cac.cornell.edu\OPT\ProcedureUnspecified\STO-3G\102026\jj585\SatJan1316:24:382018SatJan1316:24:382018\0\\#,OPT,ProcedureUnspecified,STO-3G,\\0,1\O\C,1,1.47418\H,2,1.1072,1,110.497\C,1,1.48057,2,95.0425,3,-178.809,0\H,4,1.10544,1,110.496,2,-178.941,0\C,4,1.57783,1,103.937,2,-55.1905,0\H,6,1.10155,4,109.487,1,-85.4573,0\H,6,1.10202,4,112.278,1,152.937,0\C,6,1.57318,4,101.307,1,32.2355,0\H,9,1.10157,6,111.286,4,-113.641,0\H,9,1.10177,6,113.102,4,123.331,0\C,4,1.58727,1,102.313,2,59.604,0\H,12,1.10465,4,112.94,1,-158.583,0\C,12,1.57514,4,109.709,1,81.4871,0\O,14,1.25032,12,127.08,4,145.283,0\O,14,1.43147,12,108.585,4,-30.3303,0\C,16,1.47841,14,111.453,12,170.152,0\H,17,1.11245,16,110.927,14,-60.9381,0\H,17,1.11269,16,111.738,14,59.9273,0\C,17,1.56866,16,104.826,14,179.346,0\H,20,1.10929,17,110.058,16,172.887,0\H,20,1.11058,17,109.125,16,-65.801,0\O,20,1.4833,17,110.843,16,54.8131,0\C,23,1.43354,20,110.227,17,-96.068,0\O,24,1.25101,23,124.253,20,2.05696,0\C,24,1.56487,23,108.85,20,-173.881,0\H,26,1.10506,24,107.889,23,42.8068,0\C,26,1.58298,24,112.346,23,166.508,0\H,28,1.10483,26,110.386,24,-122.831,0\C,28,1.57549,26,114.657,24,-0.753494,0\O,30,1.24888,28,127.187,26,110.539,0\O,30,1.43855,28,107.854,26,-78.0431,0\C,32,1.47861,30,109.422,28,177.57,0\H,33,1.10562,32,106.231,30,179.471,0\H,33,1.10941,32,111.126,30,-61.3988,0\H,33,1.10951,32,111.779,30,60.0373,0\C,28,1.58641,26,100.929,24,119.047,0\H,37,1.10719,28,114.058,26,-153.401,0\O,37,1.48182,28,103.999,26,-33.3744,0\C,39,1.47803,37,95.0225,28,55.8959,0\H,40,1.10698,39,111.025,37,-179.986,0\C,37,1.57933,28,108.238,26,75.8119,0\H,42,1.10167,37,110.515,28,168.522,0\H,42,1.10172,37,112.301,28,46.9241,0\C,42,1.57421,37,100.944,28,-73.4517,0\H,45,1.10161,42,111.592,37,-118.945,0\H,45,1.10169,42,112.79,37,118.389,0\C,12,1.58977,4,100.152,1,-40.9603,0\H,48,1.10486,12,109.731,4,-108.857,0\C,48,1.56498,12,118.108,4,130.094,0\O,50,1.25144,48,125.653,12,148.85,0\O,50,1.42933,48,110.885,12,-32.4006,0\C,52,1.47959,50,110.36,48,179.827,0\H,53,1.10548,52,105.844,50,-179.871,0\H,53,1.1091,52,111.536,50,61.0143,0\H,53,1.10929,52,111.654,50,-60.6669,0\\\@

 Total job time:  57.05s(wall), 2714.02s(cpu) 
 Sat Jan 13 16:24:38 2018

        *************************************************************
        *                                                           *
        *  Thank you very much for using Q-Chem.  Have a nice day.  *
        *                                                           *
        *************************************************************


0 sent ACK to 0 
now end server 0 ... 
