mFile = /opt/software/qchem/qchem-5.0.1//bin/mpi/machines
Process 0 of 1 is on vega02.cac.cornell.edu - thread support 0
initial socket setup ...start
initial socket setup ...done 
now start server 0 ... 
vega02.cac.cornell.edu 10.84.3
Q-Chem Developer Version! Running on 10.84.3.*
                  Welcome to Q-Chem
     A Quantum Leap Into The Future Of Chemistry


 Q-Chem 5.0, Q-Chem, Inc., Pleasanton, CA (2017)

 Yihan Shao,  Zhengting Gan,  E. Epifanovsky,  A. T. B. Gilbert,  M. Wormit,  
 J. Kussmann,  A. W. Lange,  A. Behn,  Jia Deng,  Xintian Feng,  D. Ghosh,  
 M. Goldey,  P. R. Horn,  L. D. Jacobson,  I. Kaliman,  T. Kus,  A. Landau,  
 Jie Liu,  E. I. Proynov,  R. M. Richard,  R. P. Steele,  E. J. Sundstrom,  
 H. L. Woodcock III,  P. M. Zimmerman,  D. Zuev,  B. Albrecht,  E. Alguire,  
 S. A. Baeppler,  Z. Benda,  Y. A. Bernard,  E. J. Berquist,  K. B. Bravaya,  
 D. Casanova,  Chun-Min Chang,  Yunqing Chen,  A. Chien,  K. D. Closser,  
 M. P. Coons,  S. Dasgupta,  M. Diedenhofen,  Hainam Do,  R. G. Edgar,  
 Po-Tung Fang,  S. Fatehi,  Qingguo Feng,  Qinghui Ge,  A. Ghysels,  
 J. Gomes,  J. Gonthier,  A. Gunina,  M. W. D. Hanson-Heine,  
 P. H. P. Harbach,  A. W. Hauser,  J. E. Herr,  E. G. Hohenstein,  
 Z. C. Holden,  Kerwin Hui,  T.-C. Jagau,  Hyunjun Ji,  B. Kaduk,  
 K. Khistyaev,  Jaehoon Kim,  P. Klunzinger,  K. Koh,  D. Kosenkov,  
 T. Kowalczyk,  C. M. Krauter,  A. Kunitsa,  Ka Un Lao,  A. Laurent,  
 K. V. Lawler,  Joonho Lee,  D. Lefrancois,  S. Lehtola,  D. S. Levine,  
 Yi-Pei Li,  You-Sheng Lin,  Fenglai Liu,  E. Livshits,  A. Luenser,  
 P. Manohar,  E. Mansoor,  S. F. Manzer,  Shan-Ping Mao,  Yuezhi Mao,  
 N. Mardirossian,  A. V. Marenich,  L. A. Martinez-Martinez,  S. A. Maurer,  
 N. J. Mayhall,  S. C. McKenzie,  J.-M. Mewes,  A. F. Morrison,  K. Nanda,  
 T. S. Nguyen-Beck,  R. Olivares-Amaya,  J. A. Parkhill,  T. M. Perrine,  
 F. Plasser,  S. Prager,  A. Prociuk,  D. R. Rehn,  F. Rob,  M. Schneider,  
 N. Sergueev,  S. M. Sharada,  S. Sharma,  D. W. Small,  T. Stauch,  
 T. Stein,  Yu-Chuan Su,  A. J. W. Thom,  T. Tsuchimochi,  L. Vogt,  
 O. Vydrov,  M. A. Watson,  J. Wenzel,  M. de Wergifosse,  T. A. Wesolowski,  
 A. White,  J. Witte,  A. Yamada,  Jun Yang,  K. Yao,  S. Yeganeh,  
 S. R. Yost,  Zhi-Qiang You,  A. Zech,  Igor Ying Zhang,  Xing Zhang,  
 Yan Zhao,  Ying Zhu,  B. R. Brooks,  G. K. L. Chan,  C. J. Cramer,  
 M. S. Gordon,  W. J. Hehre,  A. Klamt,  M. W. Schmidt,  C. D. Sherrill,  
 D. G. Truhlar,  A. Aspuru-Guzik,  R. Baer,  A. T. Bell,  N. A. Besley,  
 Jeng-Da Chai,  A. Dreuw,  B. D. Dunietz,  T. R. Furlani,  Chao-Ping Hsu,  
 Yousung Jung,  Jing Kong,  D. S. Lambrecht,  WanZhen Liang,  C. Ochsenfeld,  
 V. A. Rassolov,  L. V. Slipchenko,  J. E. Subotnik,  T. Van Voorhis,  
 J. M. Herbert,  A. I. Krylov,  P. M. W. Gill,  M. Head-Gordon

 Contributors to earlier versions of Q-Chem not listed above: 
 R. D. Adamson,  B. Austin,  J. Baker,  G. J. O. Beran,  K. Brandhorst,  
 S. T. Brown,  E. F. C. Byrd,  A. K. Chakraborty,  C.-L. Cheng,  
 Siu Hung Chien,  D. M. Chipman,  D. L. Crittenden,  H. Dachsel,  
 R. A. DiStasio Jr.,  R. J. Doerksen,  A. D. Dutoi,  L. Fusti-Molnar,  
 W. A. Goddard III,  A. Golubeva-Zadorozhnaya,  S. R. Gwaltney,  G. Hawkins,  
 A. Heyden,  S. Hirata,  G. Kedziora,  F. J. Keil,  C. Kelley,  Jihan Kim,  
 R. A. King,  R. Z. Khaliullin,  P. P. Korambath,  W. Kurlancheek,  
 A. M. Lee,  M. S. Lee,  S. V. Levchenko,  Ching Yeh Lin,  D. Liotard,  
 R. C. Lochan,  I. Lotan,  P. E. Maslen,  N. Nair,  D. P. O'Neill,  
 D. Neuhauser,  E. Neuscamman,  C. M. Oana,  R. Olson,  B. Peters,  
 R. Peverati,  P. A. Pieniazek,  Y. M. Rhee,  J. Ritchie,  M. A. Rohrdanz,  
 E. Rosta,  N. J. Russ,  H. F. Schaefer III,  N. E. Schultz,  N. Shenvi,  
 A. C. Simmonett,  A. Sodt,  D. Stuck,  K. S. Thanthiriwatte,  V. Vanovschi,  
 Tao Wang,  A. Warshel,  C. F. Williams,  Q. Wu,  X. Xu,  W. Zhang

 Please cite Q-Chem as follows:
 Y. Shao et al., Mol. Phys. 113, 184-215 (2015)
 DOI: 10.1080/00268976.2014.952696

 Q-Chem 5.0.1 for Intel X86 EM64T Linux

 Parts of Q-Chem use Armadillo 5.200.1 (Boston Tea Smuggler).
 http://arma.sourceforge.net/

 Q-Chem begins on Sat Jan 13 17:45:08 2018  

Host: vega02.cac.cornell.edu
0

     Scratch files written to /scratch/jj585/SOT1001/0155c.save//
 Parallel job on  1  processors

Checking the input file for inconsistencies... 	...done.

--------------------------------------------------------------
User input:
--------------------------------------------------------------
$molecule
0  1
O -3.94934 -3.66094 2.70899
C -3.26408 -4.56952 2.26188
C -3.36658 -6.02376 2.66595
C -3.85957 -6.32399 4.09097
C -4.36389 -5.14454 4.89263
O -3.4791 -4.1082 4.80005
C -2.24556 -4.47521 4.1732
C -1.07375 -4.17145 5.10095
O -1.4058 -3.07362 5.96547
C -2.07958 -3.40408 7.09506
C -3.54836 -3.05974 7.02607
C -4.35622 -3.4149 8.28285
C -3.54462 -3.71843 9.52618
O -3.60092 -4.75355 10.17419
O -2.41257 -4.30253 1.23318
O -2.68258 -2.75513 9.96095
O -1.55951 -4.13421 7.92661
C -1.8758 -2.86852 11.07401
C -3.73252 -1.4982 7.05561
C -5.06814 -1.08152 6.42197
C -6.0399 -1.65706 7.44396
C -5.05651 -2.06007 8.55666
O -3.98699 -1.1637 8.39663
H -4.35117 -3.30242 6.38763
H -5.05366 -4.27528 8.13865
H -2.89529 -0.94024 6.58193
H -5.10562 0.03092 6.47229
H -5.24286 -1.40226 5.37217
H -6.73038 -0.84555 7.76235
H -6.61657 -2.54526 7.10536
H -5.55429 -2.04613 9.55179
O -5.50748 -5.00988 5.30664
C -2.23553 -3.05436 0.67345
C -4.50051 -6.69903 1.85569
C -4.27494 -8.20902 1.78807
C -4.57759 -8.59915 3.21719
C -5.05117 -7.25065 3.7736
O -5.63963 -6.60784 2.67297
H -2.43974 -6.5586 2.34534
H -3.12468 -6.87789 4.72077
H -1.86473 -2.33871 1.43777
H -4.60941 -6.29029 0.82633
H -5.07341 -8.62323 1.131
H -3.2847 -8.53685 1.4051
H -5.40579 -9.34219 3.20996
H -3.71447 -8.996 3.79432
H -5.71122 -7.41831 4.6532
H -3.19395 -2.6864 0.24897
H -1.48707 -3.12462 -0.14214
H -1.28169 -1.93882 11.18812
H -1.17934 -3.72595 10.95584
H -2.49712 -3.01063 11.98389
H -0.83859 -5.04862 5.76623
H -0.09402 -3.99117 4.58628
H -1.87677 -3.54833 3.62902
H -1.71448 -5.44675 4.00114
$end

$opt
CONSTRAINT
tors           1           2           3           4     -28.421
tors           3           4           5           6     -47.368
tors           4           5           6           7      -9.474
tors           5           6           7           8    -123.158
tors           6           7           8           9     -28.421
tors           7           8           9          10     +85.263
tors           8           9          10          11    -104.211
tors           9          10          11          12    -180.000
tors          11          12          13          14    -123.158
ENDCONSTRAINT
$end

$rem
JOBTYPE                   OPT
METHOD                    B3LYP
DFT_D                     d3_op
BASIS                     STO-3G
GEOM_OPT_MAX_CYCLES       100
GEOM_OPT_TOL_GRADIENT     300
GEOM_OPT_TOL_DISPLACEMENT 1200
GEOM_OPT_TOL_ENERGY       100
SYMMETRY                  False
THRESH                    12
SCF_CONVERGENCE           8
MAX_SUB_FILE_NUM          128
MEM_STATIC                400
MEM_TOTAL                 4000
$end
--------------------------------------------------------------
 Adding empirical dispersion correction 
 ----------------------------------------------------------------
 Doing -D3(op) with
 s6 =   1.00000
 s8 =   0.78311
 a1 =   0.30000
 a2 =   4.25000
 n  =  10.00000
 -D3 energy without 3body term =     -0.0761613982 hartrees
 ----------------------------------------------------------------
             Standard Nuclear Orientation (Angstroms)
    I     Atom           X                Y                Z
 ----------------------------------------------------------------
    1      O      -2.2729397852     1.5601339059     0.8726469561
    2      C      -3.0416365571     1.2670419836    -0.0319019005
    3      C      -3.3468468119    -0.1386416674    -0.5004026646
    4      C      -2.2442804457    -1.1947038594    -0.3189109338
    5      C      -1.0267972270    -0.7695864232     0.4717277309
    6      O      -0.5874679978     0.4456765705     0.0295166041
    7      C      -1.2383560749     0.8773033562    -1.1701922035
    8      C      -0.2061361166     1.1492653932    -2.2595440678
    9      O       1.0404939208     1.5434918604    -1.6650848309
   10      C       1.8558590437     0.5262425201    -1.2915338115
   11      C       1.8635428358     0.2960965452     0.2009869199
   12      C       2.7729382527    -0.8469520451     0.6750251774
   13      C       3.7895551427    -1.3439445873    -0.3330338594
   14      O       3.8939021428    -2.4972909965    -0.7247784555
   15      O      -3.7854803548     2.2534920350    -0.6047800123
   16      O       4.6635914303    -0.4293991178    -0.8426925260
   17      O       2.2957069657    -0.2457600996    -2.1315241597
   18      C       5.6501468399    -0.7151763210    -1.7633953217
   19      C       2.5861302970     1.4924974786     0.9218800161
   20      C       2.1321394709     1.6197084372     2.3836297752
   21      C       2.7231616133     0.3394130169     2.9594455559
   22      C       3.5886791602    -0.1179265393     1.7723086015
   23      O       3.9155421888     1.0807807147     1.1171572543
   24      H       1.1381854826     0.0827427655     0.9353846234
   25      H       2.2137424203    -1.7446801447     1.0339878749
   26      H       2.4669657834     2.4669327647     0.3994607698
   27      H       2.6784980465     2.4937114674     2.8067971375
   28      H       1.0426393330     1.7557971888     2.5566920969
   29      H       3.3330780869     0.6079367656     3.8497152871
   30      H       1.9855722205    -0.4507532975     3.2196312051
   31      H       4.4508148605    -0.7291632956     2.1206972220
   32      O      -0.6651594660    -1.2642134427     1.5309245611
   33      C      -3.7076626680     3.5867674933    -0.2599755123
   34      C      -4.4405589906    -0.7523472872     0.4081495727
   35      C      -5.1712263912    -1.8744957977    -0.3283502299
   36      C      -4.0944671773    -2.9356372463    -0.3557516001
   37      C      -3.0167796861    -2.2527211174     0.4954461364
   38      O      -3.7395938588    -1.4587318711     1.3998780096
   39      H      -3.8194550233    -0.0925945977    -1.5115397123
   40      H      -1.8913890026    -1.6542577362    -1.2716933989
   41      H      -2.6816764387     3.9720261270    -0.4409745933
   42      H      -5.1776089436    -0.0042213125     0.7763539995
   43      H      -5.9905842167    -2.2183514181     0.3434245211
   44      H      -5.6018071961    -1.6081959067    -1.3174904251
   45      H      -4.4864077500    -3.8460561048     0.1498134741
   46      H      -3.7097191646    -3.1961469254    -1.3655281930
   47      H      -2.3492638355    -3.0214741023     0.9436798650
   48      H      -3.9753345627     3.7211392969     0.8098107765
   49      H      -4.4207560823     4.1653007850    -0.8821594884
   50      H       6.2078559530     0.2143807016    -1.9983722590
   51      H       5.1979037082    -1.1073567522    -2.6992786182
   52      H       6.3584623376    -1.4620832519    -1.3456219366
   53      H       0.0023502084     0.2251178874    -2.8676639183
   54      H      -0.5243822610     1.8854260786    -3.0431535350
   55      H      -1.2808699948     2.0116818291    -1.1189816794
   56      H      -1.8000025126     0.3544847169    -1.9867425884
 ----------------------------------------------------------------
 Molecular Point Group                 C1    NOp =  1
 Largest Abelian Subgroup              C1    NOp =  1
 Nuclear Repulsion Energy =  3407.0651523764 hartrees
 There are      113 alpha and      113 beta electrons
 Requested basis set is STO-3G
 There are 86 shells and 176 basis functions

 Total QAlloc Memory Limit   4000 MB
 Mega-Array Size       392 MB
 MEM_STATIC part       400 MB
 A cutoff of  1.0D-12 yielded   2492 shell pairs
 There are     11903 function pairs
 
 -------------------------------------------------------
 OpenMP Integral Computing Module                       
 Release: version 1.0, May 2013, Q-Chem Inc. Pittsburgh 
 -------------------------------------------------------
 Integral Job Info:
 Integral job number is                      11
 Integral operator is                         1
 short-range coefficients                     0
 long-range coefficients              100000000
 Omega coefficients                           0
 if combine SR and LR in K                    0
 Integral screening is                        0
 Integral computing path is                   2
 max size of driver memory is            800000
 size of driver memory is                 45569
 size of scratch memory is              1046100
 max col of scratch BK array                289
 max len of scratch array in speh3           22
 max len of scratch index in speh4            8
 max int batch size is                      520
 min int batch size is                       52
 fixed nKL is                                52
 max L of basis functions is                  1
 order of int derivative is                   0
 number of shells is                         86
 number of basis is                         176
 number of cartesian basis is               176
 number of contracted shell pairs          2492
 number of primitive shell pairs          12515
 maxK2 (contraction) of shell pair            9
 max number of K2 of shell pair               1
 max number of CS2 of shell pair            378
 max number of PS2 of shell pair           1440
 mem total for path MDJ                   59434
 -------------------------------------------------------
 Smallest overlap matrix eigenvalue = 1.94E-01

 Scale SEOQF with 1.000000e-02/1.000000e-01/1.000000e-01

 Standard Electronic Orientation quadrupole field applied
 Nucleus-field energy     =     0.0000000052 hartrees
 Guess from superposition of atomic densities
 Warning:  Energy on first SCF cycle will be non-variational
 A restricted hybrid HF-DFT SCF calculation will be
 performed using Pulay DIIS extrapolation
 Exchange:     0.2000 Hartree-Fock + 0.0800 Slater + 0.7200 B88
 Correlation:  0.1900 VWN1RPA + 0.8100 LYP
 Using SG-1 standard quadrature grid
 Dispersion:   Grimme D3
 SCF converges when DIIS error is below 1.0E-08
 using 48 threads for integral computing
 -------------------------------------------------------
 OpenMP Integral computing Module                
 Release: version 1.0, May 2013, Q-Chem Inc. Pittsburgh 
 -------------------------------------------------------
 -------------------------------------------------------
 OpenMP BLAS3 based DFT computing Module                
 Release: version 1.0, May 2013, Q-Chem Inc. Pittsburgh 
 -------------------------------------------------------
 ---------------------------------------
  Cycle       Energy         DIIS Error
 ---------------------------------------
    1   -1509.5549676220      8.32E-02
    2   -1509.3623178245      1.08E-02
    3   -1507.1080815683      2.66E-02
    4   -1509.8819697970      3.58E-03
    5   -1509.9307412707      1.46E-03
    6   -1509.9387804766      6.04E-04
    7   -1509.9403043067      1.54E-04
    8   -1509.9404025433      4.06E-05
    9   -1509.9404078691      2.22E-05
   10   -1509.9404098905      5.79E-06
   11   -1509.9404100354      1.19E-06
   12   -1509.9404100415      2.73E-07
   13   -1509.9404100418      1.65E-07
   14   -1509.9404100419      5.50E-08
   15   -1509.9404100420      1.02E-08
   16   -1509.9404100420      2.95E-09 Convergence criterion met
 ---------------------------------------
 SCF time:  CPU 143.95 s  wall 3.07 s
 SCF   energy in the final basis set = -1509.94041004
 Total energy in the final basis set = -1509.94041004
 
 --------------------------------------------------------------
 
                    Orbital Energies (a.u.)
 --------------------------------------------------------------
 
 Alpha MOs
 -- Occupied --
-18.979 -18.936 -18.905 -18.905 -18.902 -18.895 -18.892 -18.883
-18.853 -18.826 -10.131 -10.124 -10.120 -10.091 -10.085 -10.083
-10.080 -10.074 -10.072 -10.061 -10.055 -10.054 -10.050 -10.049
-10.023 -10.022 -10.020 -10.013 -10.004 -10.001  -1.073  -1.049
 -1.040  -1.032  -1.020  -1.007  -0.982  -0.955  -0.950  -0.920
 -0.798  -0.775  -0.762  -0.751  -0.735  -0.728  -0.707  -0.691
 -0.658  -0.633  -0.614  -0.590  -0.580  -0.547  -0.541  -0.535
 -0.530  -0.522  -0.511  -0.499  -0.495  -0.482  -0.474  -0.463
 -0.456  -0.450  -0.438  -0.435  -0.430  -0.426  -0.420  -0.410
 -0.408  -0.400  -0.398  -0.389  -0.377  -0.369  -0.358  -0.354
 -0.350  -0.344  -0.343  -0.335  -0.329  -0.328  -0.325  -0.315
 -0.313  -0.312  -0.306  -0.301  -0.294  -0.283  -0.276  -0.273
 -0.266  -0.253  -0.241  -0.234  -0.226  -0.218  -0.208  -0.200
 -0.174  -0.168  -0.161  -0.158  -0.154  -0.147  -0.135  -0.132
 -0.114
 -- Virtual --
  0.074   0.089   0.103   0.141   0.211   0.242   0.262   0.273
  0.275   0.295   0.309   0.320   0.327   0.331   0.336   0.355
  0.355   0.361   0.370   0.378   0.385   0.389   0.394   0.397
  0.398   0.403   0.410   0.412   0.420   0.420   0.421   0.423
  0.426   0.431   0.436   0.444   0.446   0.448   0.451   0.453
  0.465   0.469   0.471   0.477   0.481   0.484   0.485   0.493
  0.495   0.503   0.509   0.519   0.540   0.547   0.552   0.571
  0.571   0.578   0.632   0.664   0.677   0.693   0.714
 --------------------------------------------------------------
 
          Ground-State Mulliken Net Atomic Charges

     Atom                 Charge (a.u.)
  ----------------------------------------
      1 O                    -0.240237
      2 C                     0.237739
      3 C                    -0.082624
      4 C                    -0.095607
      5 C                     0.245928
      6 O                    -0.149461
      7 C                    -0.063154
      8 C                    -0.029726
      9 O                    -0.227977
     10 C                     0.258090
     11 C                    -0.111648
     12 C                    -0.079841
     13 C                     0.235856
     14 O                    -0.248363
     15 O                    -0.220281
     16 O                    -0.213658
     17 O                    -0.199011
     18 C                    -0.095834
     19 C                     0.041787
     20 C                    -0.143362
     21 C                    -0.147545
     22 C                     0.040602
     23 O                    -0.209637
     24 H                     0.130641
     25 H                     0.084866
     26 H                     0.080302
     27 H                     0.072390
     28 H                     0.077072
     29 H                     0.073842
     30 H                     0.074981
     31 H                     0.079604
     32 O                    -0.203740
     33 C                    -0.098866
     34 C                     0.039650
     35 C                    -0.142964
     36 C                    -0.145087
     37 C                     0.041462
     38 O                    -0.209114
     39 H                     0.085464
     40 H                     0.079603
     41 H                     0.083173
     42 H                     0.082949
     43 H                     0.077226
     44 H                     0.071143
     45 H                     0.077837
     46 H                     0.069863
     47 H                     0.091852
     48 H                     0.089458
     49 H                     0.095134
     50 H                     0.089969
     51 H                     0.085565
     52 H                     0.080543
     53 H                     0.059945
     54 H                     0.085528
     55 H                     0.115583
     56 H                     0.122089
  ----------------------------------------
  Sum of atomic charges =    -0.000000

 -----------------------------------------------------------------
                    Cartesian Multipole Moments
 -----------------------------------------------------------------
    Charge (ESU x 10^10)
                -0.0000
    Dipole Moment (Debye)
         X      -4.8685      Y       1.6547      Z      -2.6505
       Tot       5.7850
    Quadrupole Moments (Debye-Ang)
        XX    -156.5541     XY       0.2087     YY    -159.3127
        XZ      11.6382     YZ      -1.6513     ZZ    -160.7491
    Octopole Moments (Debye-Ang^2)
       XXX     -16.1709    XXY      14.8695    XYY     -48.4100
       YYY      48.2821    XXZ     -16.9711    XYZ     -12.7158
       YYZ      -1.1243    XZZ      18.8910    YZZ      11.1773
       ZZZ     -18.2380
    Hexadecapole Moments (Debye-Ang^3)
      XXXX   -9744.7794   XXXY    -137.9518   XXYY   -2084.8571
      XYYY     -67.0900   YYYY   -2424.6652   XXXZ    -161.5617
      XXYZ     -25.1327   XYYZ      12.4185   YYYZ     -53.7170
      XXZZ   -1955.9033   XYZZ     -33.4636   YYZZ    -725.7578
      XZZZ     -10.7233   YZZZ      -3.9156   ZZZZ   -1823.8824
 -----------------------------------------------------------------
 Calculating analytic gradient of the SCF energy
 Gradient of SCF Energy
            1           2           3           4           5           6
    1  -0.0157366   0.0116044   0.0496180   0.0023774   0.0406031  -0.0254371
    2  -0.0142423  -0.0199713   0.0017725   0.0489318   0.0020694  -0.0200564
    3  -0.0770516  -0.0463694   0.0316876   0.0422614  -0.0012335   0.0213326
            7           8           9          10          11          12
    1  -0.0574856  -0.0871989   0.0152492   0.0455520  -0.0709214  -0.0117726
    2  -0.0886238   0.0502665  -0.0960452   0.0377640  -0.0055319   0.0234730
    3   0.0986041   0.0707771  -0.0000621  -0.0207111  -0.0431876  -0.0056253
           13          14          15          16          17          18
    1  -0.0067673   0.0055696   0.0717965   0.0254195  -0.0387170  -0.0270968
    2   0.0228008   0.0751808   0.0542243  -0.1097938   0.0425067   0.0351540
    3   0.0267189   0.0116132   0.0884491  -0.0544975   0.0396169   0.0328904
           19          20          21          22          23          24
    1   0.0379520   0.0288509   0.0102389  -0.0228204  -0.0785116   0.0639805
    2  -0.0528543  -0.0305168   0.0194221   0.0535306  -0.0357251  -0.0041243
    3   0.0194539  -0.0184515  -0.0387124  -0.0382589   0.0261203   0.0113663
           25          26          27          28          29          30
    1  -0.0033552  -0.0092166   0.0096528  -0.0067404   0.0027886  -0.0024927
    2  -0.0098918   0.0051906   0.0048747   0.0018813   0.0122379  -0.0091962
    3   0.0037517   0.0049342   0.0017546   0.0040052   0.0056682  -0.0030313
           31          32          33          34          35          36
    1  -0.0039403  -0.0331230  -0.0196410   0.0549416   0.0503749  -0.0009127
    2  -0.0085588   0.0188212  -0.0439260  -0.0450166   0.0024408   0.0433906
    3   0.0073865  -0.0374720  -0.0305288   0.0084522   0.0172000   0.0227441
           37          38          39          40          41          42
    1  -0.0451838   0.0020097  -0.0159734   0.0065424  -0.0017433  -0.0092711
    2   0.0566711  -0.0062840   0.0006423  -0.0068557  -0.0078520   0.0010954
    3   0.0073686  -0.0880293  -0.0033476  -0.0026151  -0.0042633  -0.0089715
           43          44          45          46          47          48
    1  -0.0019428  -0.0040154  -0.0109045   0.0060417   0.0003843  -0.0031209
    2  -0.0049571  -0.0003343  -0.0027388   0.0000233  -0.0111581  -0.0081911
    3   0.0102209  -0.0073146   0.0072252  -0.0065485  -0.0096134  -0.0029828
           49          50          51          52          53          54
    1   0.0004717   0.0023770  -0.0060312  -0.0054562   0.0005658   0.0039464
    2   0.0033500  -0.0013234   0.0043117   0.0040061  -0.0013240  -0.0032300
    3   0.0012857  -0.0025408   0.0052176   0.0070770  -0.0026738  -0.0165978
           55          56
    1   0.0435022   0.0331186
    2   0.0238257  -0.0015361
    3  -0.0200176  -0.0444745
 Max gradient component =       1.098E-01
 RMS gradient           =       3.343E-02
 Gradient time:  CPU 36.03 s  wall 0.76 s
 Geometry Optimization Parameters
   NAtoms,    NIC,     NZ,  NCons,   NDum,   NFix, NCnnct, MaxDiis
       56     458       0       9       0       0       0       0


** CONSTRAINED OPTIMIZATION IN DELOCALIZED INTERNAL COORDINATES **
   Searching for a Minimum

   Optimization Cycle:   1

                       Coordinates (Angstroms)
     ATOM                X               Y               Z
      1  O        -2.2729397852    1.5601339059    0.8726469561
      2  C        -3.0416365571    1.2670419836   -0.0319019005
      3  C        -3.3468468119   -0.1386416674   -0.5004026646
      4  C        -2.2442804457   -1.1947038594   -0.3189109338
      5  C        -1.0267972270   -0.7695864232    0.4717277309
      6  O        -0.5874679978    0.4456765705    0.0295166041
      7  C        -1.2383560749    0.8773033562   -1.1701922035
      8  C        -0.2061361166    1.1492653932   -2.2595440678
      9  O         1.0404939208    1.5434918604   -1.6650848309
     10  C         1.8558590437    0.5262425201   -1.2915338115
     11  C         1.8635428358    0.2960965452    0.2009869199
     12  C         2.7729382527   -0.8469520451    0.6750251774
     13  C         3.7895551427   -1.3439445873   -0.3330338594
     14  O         3.8939021428   -2.4972909965   -0.7247784555
     15  O        -3.7854803548    2.2534920350   -0.6047800123
     16  O         4.6635914303   -0.4293991178   -0.8426925260
     17  O         2.2957069657   -0.2457600996   -2.1315241597
     18  C         5.6501468399   -0.7151763210   -1.7633953217
     19  C         2.5861302970    1.4924974786    0.9218800161
     20  C         2.1321394709    1.6197084372    2.3836297752
     21  C         2.7231616133    0.3394130169    2.9594455559
     22  C         3.5886791602   -0.1179265393    1.7723086015
     23  O         3.9155421888    1.0807807147    1.1171572543
     24  H         1.1381854826    0.0827427655    0.9353846234
     25  H         2.2137424203   -1.7446801447    1.0339878749
     26  H         2.4669657834    2.4669327647    0.3994607698
     27  H         2.6784980465    2.4937114674    2.8067971375
     28  H         1.0426393330    1.7557971888    2.5566920969
     29  H         3.3330780869    0.6079367656    3.8497152871
     30  H         1.9855722205   -0.4507532975    3.2196312051
     31  H         4.4508148605   -0.7291632956    2.1206972220
     32  O        -0.6651594660   -1.2642134427    1.5309245611
     33  C        -3.7076626680    3.5867674933   -0.2599755123
     34  C        -4.4405589906   -0.7523472872    0.4081495727
     35  C        -5.1712263912   -1.8744957977   -0.3283502299
     36  C        -4.0944671773   -2.9356372463   -0.3557516001
     37  C        -3.0167796861   -2.2527211174    0.4954461364
     38  O        -3.7395938588   -1.4587318711    1.3998780096
     39  H        -3.8194550233   -0.0925945977   -1.5115397123
     40  H        -1.8913890026   -1.6542577362   -1.2716933989
     41  H        -2.6816764387    3.9720261270   -0.4409745933
     42  H        -5.1776089436   -0.0042213125    0.7763539995
     43  H        -5.9905842167   -2.2183514181    0.3434245211
     44  H        -5.6018071961   -1.6081959067   -1.3174904251
     45  H        -4.4864077500   -3.8460561048    0.1498134741
     46  H        -3.7097191646   -3.1961469254   -1.3655281930
     47  H        -2.3492638355   -3.0214741023    0.9436798650
     48  H        -3.9753345627    3.7211392969    0.8098107765
     49  H        -4.4207560823    4.1653007850   -0.8821594884
     50  H         6.2078559530    0.2143807016   -1.9983722590
     51  H         5.1979037082   -1.1073567522   -2.6992786182
     52  H         6.3584623376   -1.4620832519   -1.3456219366
     53  H         0.0023502084    0.2251178874   -2.8676639183
     54  H        -0.5243822610    1.8854260786   -3.0431535350
     55  H        -1.2808699948    2.0116818291   -1.1189816794
     56  H        -1.8000025126    0.3544847169   -1.9867425884
   Point Group: c1    Number of degrees of freedom:   162


   Energy is  -1509.940410042

              Constraints and their Current Values
                                        Value     Constraint
   Dihedral:        1   2   3   4      -28.421      -28.421
   Dihedral:        3   4   5   6      -47.368      -47.368
   Dihedral:        4   5   6   7       -9.473       -9.474
   Dihedral:        5   6   7   8     -123.158     -123.158
   Dihedral:        6   7   8   9      -28.421      -28.421
   Dihedral:        7   8   9  10       85.263       85.263
   Dihedral:        8   9  10  11     -104.210     -104.211
   Dihedral:        9  10  11  12     -180.000     -180.000
   Dihedral:       11  12  13  14     -123.158     -123.158

 Attempting to Generate Delocalized Internal Coordinates

   Using Lagrange Multiplier Algorithm


165 Hessian modes will be used to form the next step
  Hessian Eigenvalues:
    -0.977753   -0.977753   -0.977753   -0.977753   -0.977753   -0.977753
     0.045000    0.045000    0.045000    0.045000    0.045000    0.045153
     0.045602    0.045706    0.045811    0.046070    0.048910    0.048940
     0.055181    0.059549    0.060049    0.060709    0.063393    0.065134
     0.065659    0.066658    0.067087    0.069437    0.069770    0.071148
     0.072097    0.073185    0.075174    0.075827    0.076140    0.076624
     0.080918    0.082669    0.082790    0.082835    0.084454    0.084509
     0.085576    0.085960    0.086674    0.087559    0.088369    0.088807
     0.088934    0.089105    0.089427    0.090094    0.090461    0.092668
     0.094345    0.095806    0.096693    0.097260    0.107153    0.110651
     0.111523    0.112356    0.114577    0.114658    0.115443    0.115875
     0.115931    0.116378    0.118803    0.119261    0.125456    0.128437
     0.129019    0.129804    0.134983    0.137650    0.160000    0.160000
     0.160000    0.160000    0.160000    0.160000    0.168939    0.170351
     0.170624    0.172004    0.217960    0.218896    0.227961    0.237074
     0.241678    0.243320    0.249349    0.249999    0.250000    0.250000
     0.250000    0.250000    0.250000    0.250000    0.250000    0.250000
     0.257002    0.258088    0.262105    0.266647    0.271570    0.273265
     0.280498    0.280669    0.288320    0.295443    0.298745    0.299641
     0.308056    0.309873    0.310698    0.310860    0.313324    0.314349
     0.315122    0.318613    0.318801    0.320628    0.321585    0.321863
     0.322966    0.323082    0.323170    0.323454    0.323826    0.323844
     0.324103    0.324364    0.324394    0.324757    0.324998    0.325026
     0.325041    0.325176    0.326846    0.326853    0.370576    0.371390
     0.385309    0.387291    0.393221    0.401009    0.407713    0.492181
     0.492238    0.517912    0.521770    0.525796    0.537323    0.937813
     0.941893    0.941950    0.942745    1.022753    1.022753    1.022753
     1.022753    1.022753    1.022753

 Minimum Search - Taking P-RFO Step
 Searching for Lamda that Maximizes Along the Constraint modes Only
 Value Taken    Lamda =   0.08987519


 ********************************************
 ** ERROR IN DETERMINING Lamda IN CONFormD **
 ********************************************


 ** Scaling Hessian by  3.994453 **


165 Hessian modes will be used to form the next step
  Hessian Eigenvalues:
    -0.977753   -0.977753   -0.977753   -0.977753   -0.914155   -0.914155
     0.179750    0.179750    0.179750    0.179750    0.179751    0.180361
     0.182153    0.182570    0.182989    0.184023    0.195369    0.195489
     0.220420    0.237868    0.239863    0.242500    0.253222    0.260175
     0.262271    0.266263    0.267976    0.277362    0.278693    0.284198
     0.287989    0.292336    0.300281    0.302888    0.304136    0.306070
     0.323224    0.330216    0.330702    0.330880    0.337346    0.337566
     0.341828    0.343365    0.346213    0.349751    0.352987    0.354736
     0.355241    0.355924    0.357211    0.359875    0.361341    0.370159
     0.376855    0.382692    0.386236    0.388501    0.428019    0.441992
     0.445473    0.448799    0.457671    0.457995    0.461133    0.462855
     0.463081    0.464867    0.474555    0.476383    0.501126    0.513034
     0.515359    0.518495    0.539185    0.549837    0.639112    0.639112
     0.639112    0.639112    0.639112    0.639112    0.674818    0.680458
     0.681551    0.687062    0.870632    0.874370    0.910578    0.946981
     0.965369    0.971932    0.996013    0.998610    0.998613    0.998613
     0.998613    0.998613    0.998613    0.998613    0.998613    0.998613
     1.022753    1.022753    1.022753    1.022753    1.026583    1.030920
     1.046964    1.065109    1.084772    1.091545    1.093906    1.093906
     1.120434    1.121118    1.151680    1.180134    1.193321    1.196901
     1.230516    1.237771    1.241068    1.241715    1.251556    1.255651
     1.258741    1.272686    1.273434    1.280733    1.284557    1.285665
     1.290074    1.290537    1.290888    1.292023    1.293508    1.293578
     1.294613    1.295656    1.295777    1.297229    1.298189    1.298303
     1.298362    1.298899    1.305572    1.305598    1.480249    1.483498
     1.539098    1.547018    1.570705    1.601813    1.628589    1.965995
     1.966220    2.068773    2.084187    2.100269    2.146313    3.746050
     3.762348    3.762574    3.765751

 Minimum Search - Taking P-RFO Step
 Searching for Lamda that Maximizes Along the Constraint modes Only
 Value Taken    Lamda =   0.08912408
 Searching for Lamda that Minimizes Along All other modes
 Value Taken    Lamda =  -0.30821885
 Calculated Step too Large.  Step scaled by  0.635300
 Step Taken.  Stepsize is  0.300000

                             Maximum     Tolerance    Cnvgd?
         Gradient            0.382405       0.000300      NO
         Displacement        0.325633       0.001200      NO
         Energy change     *********       0.000001      NO


 New Cartesian Coordinates Obtained by Inverse Iteration

 Displacement from previous Coordinates is:  4.141032
 Adding empirical dispersion correction 
 ----------------------------------------------------------------
 Doing -D3(op) with
 s6 =   1.00000
 s8 =   0.78311
 a1 =   0.30000
 a2 =   4.25000
 n  =  10.00000
 -D3 energy without 3body term =     -0.0742926869 hartrees
 ----------------------------------------------------------------
             Standard Nuclear Orientation (Angstroms)
    I     Atom           X                Y                Z
 ----------------------------------------------------------------
    1      O      -2.6760666096     1.7682571959     0.7958737476
    2      C      -3.3606402591     1.3324664232    -0.1264504897
    3      C      -3.4908449318    -0.1300002513    -0.5313408461
    4      C      -2.3129057217    -1.1103696828    -0.2635372348
    5      C      -1.0745877811    -0.5784049763     0.4642908236
    6      O      -0.5912421865     0.6331398675     0.0020851872
    7      C      -1.1461463049     1.1723616146    -1.2063988268
    8      C      -0.0195476649     1.4148969186    -2.2416782147
    9      O       1.2580923668     1.6848241773    -1.6214390678
   10      C       2.0164044408     0.6005519037    -1.2679915451
   11      C       2.0125881294     0.3004550831     0.2198773259
   12      C       2.8628258370    -0.9218315384     0.6360509399
   13      C       3.8569072898    -1.4263186038    -0.4020160398
   14      O       3.8965214400    -2.5689050267    -0.8520016494
   15      O      -4.2013186807     2.1787214741    -0.7977452262
   16      O       4.7795345709    -0.5180234643    -0.8517261813
   17      O       2.4262351480    -0.1673748758    -2.1346672053
   18      C       5.7522500048    -0.8285693283    -1.7929192591
   19      C       2.7988161923     1.4229238422     1.0057532115
   20      C       2.3293340058     1.4920658379     2.4735645174
   21      C       2.8496458275     0.1456573059     2.9865450211
   22      C       3.7124178441    -0.2933190986     1.7799570621
   23      O       4.1123111268     0.9277408608     1.1883391658
   24      H       1.2542648661     0.0948404168     0.9319286633
   25      H       2.2545506025    -1.8031169047     0.9453460973
   26      H       2.7408410170     2.4262401488     0.5312575495
   27      H       2.9111305128     2.3111014448     2.9508724460
   28      H       1.2472475041     1.6745979306     2.6402481362
   29      H       3.4601864631     0.3287537954     3.8954968289
   30      H       2.0690271839    -0.6156344450     3.1955311315
   31      H       4.5393635972    -0.9649048715     2.0986072456
   32      O      -0.6808286206    -1.0249416811     1.5380807612
   33      C      -4.2877726165     3.5355192874    -0.5134124770
   34      C      -4.5557196893    -0.7621972638     0.4177375173
   35      C      -5.2037400955    -1.9854717300    -0.2462799006
   36      C      -4.0529357165    -2.9741310081    -0.1934806185
   37      C      -3.0248663450    -2.1631399665     0.6203140952
   38      O      -3.8113503380    -1.3510968990     1.4716325012
   39      H      -3.9407680143    -0.1909157728    -1.5497113190
   40      H      -1.9321391604    -1.6022306283    -1.1872500717
   41      H      -3.3072706118     4.0338316256    -0.6740974122
   42      H      -5.3457140046    -0.0436889433     0.7281088391
   43      H      -6.0057318871    -2.3365504960     0.4393841147
   44      H      -5.6394234775    -1.8159827442    -1.2524855255
   45      H      -4.3838288183    -3.8730730662     0.3687620232
   46      H      -3.6435094585    -3.2747858781    -1.1802840081
   47      H      -2.3128698484    -2.8555902697     1.1194635505
   48      H      -4.6141701586     3.6943153853     0.5372218497
   49      H      -5.0351170365     3.9952400665    -1.1917348207
   50      H       6.3661533777     0.0754850652    -1.9822706014
   51      H       5.2827688862    -1.1474905246    -2.7487884349
   52      H       6.4153365461    -1.6381723785    -1.4179419936
   53      H       0.1373258038     0.5048194432    -2.8844767861
   54      H      -0.2572993030     2.2098166969    -2.9932137568
   55      H      -1.1466122703     2.2963654082    -1.0756775351
   56      H      -1.7343018220     0.7329695194    -2.0481940167
 ----------------------------------------------------------------
 Molecular Point Group                 C1    NOp =  1
 Largest Abelian Subgroup              C1    NOp =  1
 Nuclear Repulsion Energy =  3333.7640838370 hartrees
 There are      113 alpha and      113 beta electrons
 Applying Cartesian multipole field
    Component          Value
    ---------          -----
     (2,0,0)        1.00000E-12
     (0,2,0)        2.00000E-11
     (0,0,2)       -3.00000E-11
 Nucleus-field energy     =     0.0000000053 hartrees
 Requested basis set is STO-3G
 There are 86 shells and 176 basis functions
 A cutoff of  1.0D-12 yielded   2408 shell pairs
 There are     11510 function pairs
 Smallest overlap matrix eigenvalue = 1.97E-01
 Guess MOs from SCF MO coefficient file
 Reading MOs from coefficient file
 Reading MOs from coefficient file
 A restricted hybrid HF-DFT SCF calculation will be
 performed using Pulay DIIS extrapolation
 Exchange:     0.2000 Hartree-Fock + 0.0800 Slater + 0.7200 B88
 Correlation:  0.1900 VWN1RPA + 0.8100 LYP
 Using SG-1 standard quadrature grid
 Dispersion:   Grimme D3
 SCF converges when DIIS error is below 1.0E-08
 Geometry optimization detected.  Setting ReadMinima to 0
 Setting SaveMinima to 0
 using 48 threads for integral computing
 -------------------------------------------------------
 OpenMP Integral computing Module                
 Release: version 1.0, May 2013, Q-Chem Inc. Pittsburgh 
 -------------------------------------------------------
 -------------------------------------------------------
 OpenMP BLAS3 based DFT computing Module                
 Release: version 1.0, May 2013, Q-Chem Inc. Pittsburgh 
 -------------------------------------------------------
 ---------------------------------------
  Cycle       Energy         DIIS Error
 ---------------------------------------
    1   -1509.9026971682      6.25E-03
    2   -1510.0406657348      8.11E-04
    3   -1510.0367985454      1.27E-03
    4   -1510.0438192622      3.75E-04
    5   -1510.0444300954      5.43E-05
    6   -1510.0444368423      3.94E-05
    7   -1510.0444434133      1.18E-05
    8   -1510.0444440173      2.62E-06
    9   -1510.0444440517      7.39E-07
   10   -1510.0444440546      3.49E-07
   11   -1510.0444440550      1.95E-07
   12   -1510.0444440552      5.02E-08
   13   -1510.0444440553      1.41E-08
   14   -1510.0444440553      3.47E-09 Convergence criterion met
 ---------------------------------------
 SCF time:  CPU 105.59 s  wall 2.21 s
 SCF   energy in the final basis set = -1510.04444406
 Total energy in the final basis set = -1510.04444406
 
 --------------------------------------------------------------
 
                    Orbital Energies (a.u.)
 --------------------------------------------------------------
 
 Alpha MOs
 -- Occupied --
-18.972 -18.942 -18.907 -18.904 -18.901 -18.892 -18.891 -18.883
-18.864 -18.828 -10.128 -10.122 -10.120 -10.090 -10.085 -10.084
-10.077 -10.074 -10.073 -10.060 -10.054 -10.054 -10.051 -10.049
-10.024 -10.023 -10.021 -10.015 -10.004 -10.001  -1.056  -1.046
 -1.032  -1.024  -1.015  -1.001  -0.973  -0.954  -0.946  -0.919
 -0.789  -0.769  -0.751  -0.747  -0.733  -0.725  -0.704  -0.689
 -0.657  -0.627  -0.612  -0.587  -0.571  -0.545  -0.539  -0.534
 -0.528  -0.521  -0.508  -0.494  -0.485  -0.478  -0.470  -0.456
 -0.449  -0.443  -0.436  -0.433  -0.429  -0.425  -0.417  -0.407
 -0.406  -0.398  -0.393  -0.387  -0.375  -0.368  -0.354  -0.353
 -0.347  -0.343  -0.342  -0.334  -0.328  -0.327  -0.324  -0.316
 -0.314  -0.312  -0.307  -0.303  -0.293  -0.284  -0.278  -0.273
 -0.269  -0.255  -0.243  -0.239  -0.224  -0.217  -0.204  -0.198
 -0.181  -0.167  -0.160  -0.158  -0.154  -0.148  -0.145  -0.133
 -0.117
 -- Virtual --
  0.073   0.088   0.104   0.138   0.213   0.236   0.257   0.271
  0.274   0.289   0.304   0.312   0.320   0.324   0.333   0.349
  0.354   0.357   0.362   0.377   0.380   0.384   0.392   0.393
  0.397   0.402   0.405   0.406   0.414   0.415   0.417   0.419
  0.420   0.428   0.432   0.437   0.440   0.445   0.446   0.450
  0.460   0.465   0.468   0.470   0.472   0.477   0.480   0.486
  0.486   0.498   0.503   0.522   0.531   0.538   0.546   0.560
  0.564   0.573   0.622   0.651   0.665   0.681   0.704
 --------------------------------------------------------------
 
          Ground-State Mulliken Net Atomic Charges

     Atom                 Charge (a.u.)
  ----------------------------------------
      1 O                    -0.230585
      2 C                     0.232330
      3 C                    -0.085429
      4 C                    -0.090079
      5 C                     0.241607
      6 O                    -0.157040
      7 C                    -0.060194
      8 C                    -0.031054
      9 O                    -0.225311
     10 C                     0.254098
     11 C                    -0.110333
     12 C                    -0.079097
     13 C                     0.231966
     14 O                    -0.245235
     15 O                    -0.211645
     16 O                    -0.208079
     17 O                    -0.196092
     18 C                    -0.098943
     19 C                     0.039705
     20 C                    -0.143422
     21 C                    -0.147479
     22 C                     0.038638
     23 O                    -0.205808
     24 H                     0.126658
     25 H                     0.084088
     26 H                     0.081115
     27 H                     0.072706
     28 H                     0.077072
     29 H                     0.073974
     30 H                     0.075248
     31 H                     0.079644
     32 O                    -0.205128
     33 C                    -0.101610
     34 C                     0.038714
     35 C                    -0.143224
     36 C                    -0.144954
     37 C                     0.039622
     38 O                    -0.203378
     39 H                     0.087024
     40 H                     0.080767
     41 H                     0.085351
     42 H                     0.083108
     43 H                     0.077582
     44 H                     0.072444
     45 H                     0.078479
     46 H                     0.071491
     47 H                     0.093536
     48 H                     0.089583
     49 H                     0.095287
     50 H                     0.090048
     51 H                     0.085785
     52 H                     0.080668
     53 H                     0.061525
     54 H                     0.084902
     55 H                     0.107773
     56 H                     0.111584
  ----------------------------------------
  Sum of atomic charges =    -0.000000

 -----------------------------------------------------------------
                    Cartesian Multipole Moments
 -----------------------------------------------------------------
    Charge (ESU x 10^10)
                -0.0000
    Dipole Moment (Debye)
         X      -4.9800      Y       1.3891      Z      -2.5797
       Tot       5.7779
    Quadrupole Moments (Debye-Ang)
        XX    -154.4981     XY      -0.4683     YY    -158.2738
        XZ      11.9574     YZ      -3.7628     ZZ    -161.0598
    Octopole Moments (Debye-Ang^2)
       XXX     -32.9817    XXY      14.0079    XYY     -51.8294
       YYY      40.2448    XXZ     -19.3298    XYZ      -8.9979
       YYZ      -1.5965    XZZ      20.3393    YZZ       8.9931
       ZZZ     -16.7231
    Hexadecapole Moments (Debye-Ang^3)
      XXXX  -10476.0907   XXXY     -82.7304   XXYY   -2180.8153
      XYYY      46.9964   YYYY   -2478.4061   XXXZ    -179.3608
      XXYZ     -16.9473   XYYZ      26.2721   YYYZ      -5.2935
      XXZZ   -2111.6644   XYZZ       8.4339   YYZZ    -735.8830
      XZZZ     -19.2558   YZZZ      59.1500   ZZZZ   -1879.2287
 -----------------------------------------------------------------
 Calculating analytic gradient of the SCF energy
 Gradient of SCF Energy
            1           2           3           4           5           6
    1  -0.0263543  -0.0079668   0.0303193  -0.0096887   0.0415231  -0.0124294
    2  -0.0107861  -0.0149604   0.0047592   0.0226017  -0.0097640  -0.0119062
    3  -0.0486653  -0.0278724   0.0283697   0.0454887  -0.0008096   0.0066419
            7           8           9          10          11          12
    1  -0.0481692  -0.0720957   0.0112053   0.0524193  -0.0631770  -0.0107796
    2  -0.0733761   0.0534410  -0.0854114   0.0351315  -0.0016788   0.0180697
    3   0.0629964   0.0564008  -0.0101595  -0.0110899  -0.0402023  -0.0038716
           13          14          15          16          17          18
    1  -0.0034450   0.0074536   0.0516488   0.0173371  -0.0322861  -0.0231311
    2   0.0237032   0.0589542   0.0607218  -0.0953067   0.0350106   0.0323598
    3   0.0266575   0.0118164   0.0777984  -0.0537182   0.0340510   0.0320728
           19          20          21          22          23          24
    1   0.0309679   0.0214513   0.0099792  -0.0139797  -0.0677180   0.0634022
    2  -0.0470657  -0.0253108   0.0166338   0.0485657  -0.0276941  -0.0083404
    3   0.0129341  -0.0167196  -0.0301397  -0.0303555   0.0206030   0.0147495
           25          26          27          28          29          30
    1  -0.0028110  -0.0085351   0.0087133  -0.0055571   0.0026121  -0.0021926
    2  -0.0087117   0.0048231   0.0034602   0.0023091   0.0105642  -0.0080647
    3   0.0023616   0.0046455   0.0013979   0.0039537   0.0052490  -0.0031436
           31          32          33          34          35          36
    1  -0.0046233  -0.0316672  -0.0122203   0.0498094   0.0417434  -0.0042248
    2  -0.0082103   0.0166892  -0.0449741  -0.0312495   0.0057232   0.0369580
    3   0.0061850  -0.0331627  -0.0266308   0.0112742   0.0136629   0.0169661
           37          38          39          40          41          42
    1  -0.0416473   0.0044347  -0.0150343   0.0077076   0.0000582  -0.0088096
    2   0.0451368  -0.0113770  -0.0011603  -0.0060102  -0.0061108  -0.0003431
    3   0.0025746  -0.0712205  -0.0020642   0.0012342  -0.0035226  -0.0093556
           43          44          45          46          47          48
    1  -0.0010777  -0.0038479  -0.0098806   0.0052432   0.0009105  -0.0019021
    2  -0.0037940  -0.0011466  -0.0023199  -0.0000970  -0.0114319  -0.0067862
    3   0.0091767  -0.0059488   0.0061550  -0.0053541  -0.0095070  -0.0017777
           49          50          51          52          53          54
    1  -0.0000868   0.0023653  -0.0047682  -0.0037908   0.0030007   0.0035102
    2   0.0034847  -0.0011004   0.0036177   0.0030326  -0.0009802  -0.0034215
    3   0.0008916  -0.0025321   0.0039068   0.0060488  -0.0029301  -0.0151650
           55          56
    1   0.0487126   0.0373692
    2   0.0181086   0.0050302
    3  -0.0200585  -0.0402868
 Max gradient component =       9.531E-02
 RMS gradient           =       2.851E-02
 Gradient time:  CPU 32.16 s  wall 0.68 s
 Geometry Optimization Parameters
   NAtoms,    NIC,     NZ,  NCons,   NDum,   NFix, NCnnct, MaxDiis
       56     458       0       9       0       0       0       0

 Cartesian Hessian Update
 Hessian Updated using BFGS Update


** CONSTRAINED OPTIMIZATION IN DELOCALIZED INTERNAL COORDINATES **
   Searching for a Minimum

   Optimization Cycle:   2

                       Coordinates (Angstroms)
     ATOM                X               Y               Z
      1  O        -2.6760666096    1.7682571959    0.7958737476
      2  C        -3.3606402591    1.3324664232   -0.1264504897
      3  C        -3.4908449318   -0.1300002513   -0.5313408461
      4  C        -2.3129057217   -1.1103696828   -0.2635372348
      5  C        -1.0745877811   -0.5784049763    0.4642908236
      6  O        -0.5912421865    0.6331398675    0.0020851872
      7  C        -1.1461463049    1.1723616146   -1.2063988268
      8  C        -0.0195476649    1.4148969186   -2.2416782147
      9  O         1.2580923668    1.6848241773   -1.6214390678
     10  C         2.0164044408    0.6005519037   -1.2679915451
     11  C         2.0125881294    0.3004550831    0.2198773259
     12  C         2.8628258370   -0.9218315384    0.6360509399
     13  C         3.8569072898   -1.4263186038   -0.4020160398
     14  O         3.8965214400   -2.5689050267   -0.8520016494
     15  O        -4.2013186807    2.1787214741   -0.7977452262
     16  O         4.7795345709   -0.5180234643   -0.8517261813
     17  O         2.4262351480   -0.1673748758   -2.1346672053
     18  C         5.7522500048   -0.8285693283   -1.7929192591
     19  C         2.7988161923    1.4229238422    1.0057532115
     20  C         2.3293340058    1.4920658379    2.4735645174
     21  C         2.8496458275    0.1456573059    2.9865450211
     22  C         3.7124178441   -0.2933190986    1.7799570621
     23  O         4.1123111268    0.9277408608    1.1883391658
     24  H         1.2542648661    0.0948404168    0.9319286633
     25  H         2.2545506025   -1.8031169047    0.9453460973
     26  H         2.7408410170    2.4262401488    0.5312575495
     27  H         2.9111305128    2.3111014448    2.9508724460
     28  H         1.2472475041    1.6745979306    2.6402481362
     29  H         3.4601864631    0.3287537954    3.8954968289
     30  H         2.0690271839   -0.6156344450    3.1955311315
     31  H         4.5393635972   -0.9649048715    2.0986072456
     32  O        -0.6808286206   -1.0249416811    1.5380807612
     33  C        -4.2877726165    3.5355192874   -0.5134124770
     34  C        -4.5557196893   -0.7621972638    0.4177375173
     35  C        -5.2037400955   -1.9854717300   -0.2462799006
     36  C        -4.0529357165   -2.9741310081   -0.1934806185
     37  C        -3.0248663450   -2.1631399665    0.6203140952
     38  O        -3.8113503380   -1.3510968990    1.4716325012
     39  H        -3.9407680143   -0.1909157728   -1.5497113190
     40  H        -1.9321391604   -1.6022306283   -1.1872500717
     41  H        -3.3072706118    4.0338316256   -0.6740974122
     42  H        -5.3457140046   -0.0436889433    0.7281088391
     43  H        -6.0057318871   -2.3365504960    0.4393841147
     44  H        -5.6394234775   -1.8159827442   -1.2524855255
     45  H        -4.3838288183   -3.8730730662    0.3687620232
     46  H        -3.6435094585   -3.2747858781   -1.1802840081
     47  H        -2.3128698484   -2.8555902697    1.1194635505
     48  H        -4.6141701586    3.6943153853    0.5372218497
     49  H        -5.0351170365    3.9952400665   -1.1917348207
     50  H         6.3661533777    0.0754850652   -1.9822706014
     51  H         5.2827688862   -1.1474905246   -2.7487884349
     52  H         6.4153365461   -1.6381723785   -1.4179419936
     53  H         0.1373258038    0.5048194432   -2.8844767861
     54  H        -0.2572993030    2.2098166969   -2.9932137568
     55  H        -1.1466122703    2.2963654082   -1.0756775351
     56  H        -1.7343018220    0.7329695194   -2.0481940167
   Point Group: c1    Number of degrees of freedom:   162


   Energy is  -1510.044444055

              Constraints and their Current Values
                                        Value     Constraint
   Dihedral:        1   2   3   4      -28.421      -28.421
   Dihedral:        3   4   5   6      -46.460      -47.368
   Dihedral:        4   5   6   7       -8.996       -9.474
   Dihedral:        5   6   7   8     -123.158     -123.158
   Dihedral:        6   7   8   9      -28.291      -28.421
   Dihedral:        7   8   9  10       85.263       85.263
   Dihedral:        8   9  10  11     -103.991     -104.211
   Dihedral:        9  10  11  12      179.939     -180.000
   Dihedral:       11  12  13  14     -123.174     -123.158
 Hessian Updated using BFGS Update

   Using Lagrange Multiplier Algorithm


153 Hessian modes will be used to form the next step
  Hessian Eigenvalues:
    -0.977753   -0.977753   -0.977753   -0.976835   -0.914156   -0.726972
     0.179716    0.179751    0.179751    0.180280    0.182297    0.182640
     0.183431    0.184632    0.195472    0.198277    0.220059    0.237228
     0.239214    0.242324    0.252533    0.260002    0.263901    0.264738
     0.267214    0.269930    0.277371    0.286781    0.292309    0.295427
     0.299768    0.301397    0.303283    0.304919    0.311420    0.329395
     0.330872    0.331608    0.337328    0.338526    0.341791    0.346112
     0.347441    0.349638    0.352934    0.354697    0.354991    0.355434
     0.358408    0.360702    0.363312    0.365141    0.376994    0.382228
     0.386222    0.387001    0.427328    0.439516    0.442242    0.445650
     0.449559    0.457677    0.458002    0.462855    0.463081    0.471222
     0.473829    0.476473    0.500909    0.512706    0.514719    0.523774
     0.539173    0.563088    0.619883    0.639123    0.656397    0.677871
     0.681985    0.692597    0.707645    0.876475    0.888296    0.910723
     0.947307    0.965559    0.972139    0.996097    0.998610    1.005301
     1.022753    1.022753    1.022753    1.024067    1.026640    1.029927
     1.046855    1.064906    1.084441    1.090860    1.093906    1.119631
     1.120537    1.149654    1.170447    1.182725    1.196777    1.226155
     1.233399    1.237769    1.241219    1.250780    1.255599    1.258558
     1.272558    1.273316    1.280678    1.284432    1.285562    1.290045
     1.290504    1.290770    1.292000    1.293378    1.293572    1.294532
     1.295541    1.295740    1.297151    1.298175    1.298292    1.298352
     1.298885    1.305570    1.305597    1.476695    1.481818    1.483773
     1.541551    1.569287    1.597418    1.628085    1.932558    1.966087
     1.998428    2.077653    2.096265    2.134210    2.871683    3.696396
     3.750614    3.762823    3.764693

 Minimum Search - Taking P-RFO Step
 Searching for Lamda that Maximizes Along the Constraint modes Only
 Value Taken    Lamda =   0.05723226
 Searching for Lamda that Minimizes Along All other modes
 Value Taken    Lamda =  -0.15921734
 Calculated Step too Large.  Step scaled by  0.702562
 Step Taken.  Stepsize is  0.300000

                             Maximum     Tolerance    Cnvgd?
         Gradient            0.187934       0.000300      NO
         Displacement        0.361496       0.001200      NO
         Energy change     -0.104034       0.000001      NO


 New Cartesian Coordinates Obtained by Inverse Iteration

 Displacement from previous Coordinates is:  1.544568
 Adding empirical dispersion correction 
 ----------------------------------------------------------------
 Doing -D3(op) with
 s6 =   1.00000
 s8 =   0.78311
 a1 =   0.30000
 a2 =   4.25000
 n  =  10.00000
 -D3 energy without 3body term =     -0.0734079543 hartrees
 ----------------------------------------------------------------
             Standard Nuclear Orientation (Angstroms)
    I     Atom           X                Y                Z
 ----------------------------------------------------------------
    1      O      -2.7826126526     1.8234484370     0.7637382470
    2      C      -3.4815090766     1.3513028309    -0.1409780818
    3      C      -3.5793632794    -0.1274228372    -0.5312892830
    4      C      -2.3547615247    -1.0716009479    -0.2825005644
    5      C      -1.0961858657    -0.4909893680     0.4105337152
    6      O      -0.5937153515     0.7244333439    -0.0637994649
    7      C      -1.1067968374     1.2871568071    -1.2842517465
    8      C       0.0843141675     1.5109844028    -2.2940151986
    9      O       1.3668148522     1.7493667874    -1.6529533610
   10      C       2.0990252418     0.6298331592    -1.2880368859
   11      C       2.0795493975     0.3177931193     0.2075380891
   12      C       2.9035778206    -0.9425659396     0.6191094297
   13      C       3.9052732619    -1.4616587496    -0.4222645959
   14      O       3.9211488252    -2.6074526145    -0.8898007276
   15      O      -4.3761899206     2.1435523709    -0.8303232651
   16      O       4.8534295722    -0.5411240987    -0.8245000764
   17      O       2.5155419298    -0.1493566554    -2.1538194626
   18      C       5.8289757748    -0.8961201595    -1.7697802911
   19      C       2.8822804570     1.4179107984     1.0296239445
   20      C       2.3621422020     1.4642902811     2.4917679115
   21      C       2.8442785048     0.0861002990     2.9963982548
   22      C       3.7464464418    -0.3494764769     1.8016530693
   23      O       4.1943978602     0.8856559217     1.2378392924
   24      H       1.2680945592     0.1305466642     0.8821108106
   25      H       2.2701963692    -1.8108979050     0.9006706521
   26      H       2.8664216320     2.4263444506     0.5653681434
   27      H       2.9386761862     2.2602895681     3.0060620318
   28      H       1.2807973681     1.6638645448     2.6236607615
   29      H       3.4279092981     0.2309483893     3.9261825485
   30      H       2.0422977473    -0.6591272416     3.1652156964
   31      H       4.5537021473    -1.0403840888     2.1250304943
   32      O      -0.6598947113    -0.9301835781     1.4789378216
   33      C      -4.4754697257     3.5142905080    -0.5378988294
   34      C      -4.6115572122    -0.7776856570     0.4625101224
   35      C      -5.2394677354    -2.0371257899    -0.1793511689
   36      C      -4.0454523389    -2.9956243328    -0.1422753010
   37      C      -3.0157183224    -2.1385644840     0.6452341348
   38      O      -3.8150684192    -1.3323465743     1.5163717876
   39      H      -4.0414198574    -0.2151661804    -1.5388060697
   40      H      -1.9852962674    -1.5607561500    -1.2103843787
   41      H      -3.5105147366     4.0369932980    -0.7192355359
   42      H      -5.4089881808    -0.0765375446     0.7884137504
   43      H      -6.0159986180    -2.4038211775     0.5224797912
   44      H      -5.7000898764    -1.8904437295    -1.1751226585
   45      H      -4.3274890517    -3.8987538103     0.4336713838
   46      H      -3.6514009157    -3.2929402337    -1.1334325698
   47      H      -2.2681579248    -2.7937801577     1.1396814009
   48      H      -4.7800292877     3.6790121313     0.5191763935
   49      H      -5.2465137554     3.9544727925    -1.2018600149
   50      H       6.4781522491    -0.0141903531    -1.9431154290
   51      H       5.3631340001    -1.1902599551    -2.7363470747
   52      H       6.4601577202    -1.7358203232    -1.4033817841
   53      H       0.2330423463     0.5986932379    -2.9334982737
   54      H      -0.1238626942     2.3182154692    -3.0370460724
   55      H      -1.1801954661     2.3942876188    -1.0964046430
   56      H      -1.7432471752     0.8541163039    -2.0893875810
 ----------------------------------------------------------------
 Molecular Point Group                 C1    NOp =  1
 Largest Abelian Subgroup              C1    NOp =  1
 Nuclear Repulsion Energy =  3295.6653496738 hartrees
 There are      113 alpha and      113 beta electrons
 Applying Cartesian multipole field
    Component          Value
    ---------          -----
     (2,0,0)        1.00000E-12
     (0,2,0)        2.00000E-11
     (0,0,2)       -3.00000E-11
 Nucleus-field energy     =     0.0000000054 hartrees
 Requested basis set is STO-3G
 There are 86 shells and 176 basis functions
 A cutoff of  1.0D-12 yielded   2378 shell pairs
 There are     11321 function pairs
 Smallest overlap matrix eigenvalue = 2.02E-01
 Guess MOs from SCF MO coefficient file
 Reading MOs from coefficient file
 Reading MOs from coefficient file
 A restricted hybrid HF-DFT SCF calculation will be
 performed using Pulay DIIS extrapolation
 Exchange:     0.2000 Hartree-Fock + 0.0800 Slater + 0.7200 B88
 Correlation:  0.1900 VWN1RPA + 0.8100 LYP
 Using SG-1 standard quadrature grid
 Dispersion:   Grimme D3
 SCF converges when DIIS error is below 1.0E-08
 Geometry optimization detected.  Setting ReadMinima to 0
 Setting SaveMinima to 0
 using 48 threads for integral computing
 -------------------------------------------------------
 OpenMP Integral computing Module                
 Release: version 1.0, May 2013, Q-Chem Inc. Pittsburgh 
 -------------------------------------------------------
 -------------------------------------------------------
 OpenMP BLAS3 based DFT computing Module                
 Release: version 1.0, May 2013, Q-Chem Inc. Pittsburgh 
 -------------------------------------------------------
 ---------------------------------------
  Cycle       Energy         DIIS Error
 ---------------------------------------
    1   -1510.0205172722      2.83E-03
    2   -1510.1179874332      5.45E-04
    3   -1510.1173778362      6.98E-04
    4   -1510.1193714442      2.39E-04
    5   -1510.1196268137      3.28E-05
    6   -1510.1196311834      1.42E-05
    7   -1510.1196320880      4.65E-06
    8   -1510.1196321548      2.86E-06
    9   -1510.1196321908      4.74E-07
   10   -1510.1196321919      1.91E-07
   11   -1510.1196321920      1.18E-07
   12   -1510.1196321920      3.19E-08
   13   -1510.1196321922      1.07E-08
   14   -1510.1196321923      3.28E-09 Convergence criterion met
 ---------------------------------------
 SCF time:  CPU 107.54 s  wall 2.25 s
 SCF   energy in the final basis set = -1510.11963219
 Total energy in the final basis set = -1510.11963219
 
 --------------------------------------------------------------
 
                    Orbital Energies (a.u.)
 --------------------------------------------------------------
 
 Alpha MOs
 -- Occupied --
-18.967 -18.946 -18.908 -18.906 -18.901 -18.892 -18.890 -18.882
-18.870 -18.831 -10.125 -10.118 -10.118 -10.088 -10.087 -10.082
-10.075 -10.074 -10.072 -10.057 -10.054 -10.052 -10.052 -10.048
-10.024 -10.023 -10.020 -10.016 -10.004 -10.001  -1.048  -1.040
 -1.024  -1.014  -1.009  -0.990  -0.967  -0.953  -0.941  -0.917
 -0.784  -0.762  -0.743  -0.738  -0.729  -0.719  -0.699  -0.686
 -0.654  -0.624  -0.611  -0.585  -0.566  -0.545  -0.536  -0.532
 -0.524  -0.519  -0.504  -0.490  -0.480  -0.474  -0.466  -0.451
 -0.445  -0.439  -0.433  -0.429  -0.427  -0.423  -0.411  -0.404
 -0.403  -0.394  -0.389  -0.386  -0.371  -0.366  -0.355  -0.351
 -0.347  -0.343  -0.340  -0.331  -0.327  -0.324  -0.321  -0.317
 -0.315  -0.312  -0.307  -0.303  -0.292  -0.284  -0.279  -0.272
 -0.267  -0.255  -0.245  -0.244  -0.224  -0.218  -0.209  -0.196
 -0.184  -0.167  -0.160  -0.157  -0.154  -0.150  -0.148  -0.132
 -0.119
 -- Virtual --
  0.072   0.087   0.101   0.134   0.218   0.235   0.255   0.270
  0.274   0.283   0.299   0.302   0.313   0.316   0.329   0.345
  0.351   0.353   0.358   0.369   0.375   0.378   0.387   0.388
  0.392   0.396   0.400   0.404   0.408   0.409   0.412   0.414
  0.419   0.421   0.427   0.429   0.434   0.441   0.443   0.451
  0.453   0.458   0.459   0.463   0.468   0.469   0.472   0.476
  0.482   0.489   0.497   0.513   0.524   0.526   0.540   0.547
  0.556   0.568   0.608   0.637   0.650   0.668   0.690
 --------------------------------------------------------------
 
          Ground-State Mulliken Net Atomic Charges

     Atom                 Charge (a.u.)
  ----------------------------------------
      1 O                    -0.224542
      2 C                     0.223348
      3 C                    -0.085906
      4 C                    -0.087373
      5 C                     0.235777
      6 O                    -0.159021
      7 C                    -0.054379
      8 C                    -0.033096
      9 O                    -0.219737
     10 C                     0.246940
     11 C                    -0.105272
     12 C                    -0.079022
     13 C                     0.225458
     14 O                    -0.240427
     15 O                    -0.202348
     16 O                    -0.198952
     17 O                    -0.192271
     18 C                    -0.104162
     19 C                     0.036527
     20 C                    -0.143688
     21 C                    -0.147414
     22 C                     0.035595
     23 O                    -0.200412
     24 H                     0.122842
     25 H                     0.083579
     26 H                     0.081362
     27 H                     0.072719
     28 H                     0.077675
     29 H                     0.073889
     30 H                     0.076049
     31 H                     0.079467
     32 O                    -0.203805
     33 C                    -0.106912
     34 C                     0.036290
     35 C                    -0.143802
     36 C                    -0.145319
     37 C                     0.036890
     38 O                    -0.197748
     39 H                     0.087522
     40 H                     0.081113
     41 H                     0.086035
     42 H                     0.083314
     43 H                     0.077905
     44 H                     0.073313
     45 H                     0.078984
     46 H                     0.072267
     47 H                     0.093711
     48 H                     0.089843
     49 H                     0.095060
     50 H                     0.089698
     51 H                     0.086009
     52 H                     0.080987
     53 H                     0.065062
     54 H                     0.084720
     55 H                     0.101970
     56 H                     0.103687
  ----------------------------------------
  Sum of atomic charges =    -0.000000

 -----------------------------------------------------------------
                    Cartesian Multipole Moments
 -----------------------------------------------------------------
    Charge (ESU x 10^10)
                -0.0000
    Dipole Moment (Debye)
         X      -5.1359      Y       1.2616      Z      -2.5131
       Tot       5.8553
    Quadrupole Moments (Debye-Ang)
        XX    -153.5914     XY      -1.0046     YY    -157.9437
        XZ      11.4996     YZ      -4.0279     ZZ    -160.9175
    Octopole Moments (Debye-Ang^2)
       XXX     -42.1818    XXY      12.0381    XYY     -53.7230
       YYY      36.7308    XXZ     -19.5196    XYZ      -8.5859
       YYZ      -0.4832    XZZ      19.2079    YZZ       7.6859
       ZZZ     -13.7989
    Hexadecapole Moments (Debye-Ang^3)
      XXXX  -10796.5694   XXXY     -71.9624   XXYY   -2229.4594
      XYYY      81.1926   YYYY   -2516.7014   XXXZ    -185.5554
      XXYZ     -10.6470   XYYZ      33.2168   YYYZ      13.2971
      XXZZ   -2181.6970   XYZZ      19.8939   YYZZ    -745.4558
      XZZZ      -9.2513   YZZZ      77.9583   ZZZZ   -1906.8207
 -----------------------------------------------------------------
 Calculating analytic gradient of the SCF energy
 Gradient of SCF Energy
            1           2           3           4           5           6
    1  -0.0178309  -0.0149920   0.0233059  -0.0082909   0.0361826  -0.0071700
    2  -0.0079935  -0.0125941   0.0050200   0.0138590  -0.0104612  -0.0017222
    3  -0.0297272  -0.0246843   0.0181743   0.0356982  -0.0035849   0.0024199
            7           8           9          10          11          12
    1  -0.0472401  -0.0491696   0.0089051   0.0496746  -0.0582383  -0.0107374
    2  -0.0623867   0.0494054  -0.0710114   0.0349602   0.0011595   0.0101440
    3   0.0520091   0.0381392  -0.0131334  -0.0031616  -0.0405868  -0.0020936
           13          14          15          16          17          18
    1   0.0005758   0.0053196   0.0404734   0.0122789  -0.0240194  -0.0196897
    2   0.0248207   0.0374832   0.0495916  -0.0748451   0.0226369   0.0275770
    3   0.0234906   0.0075876   0.0602028  -0.0439380   0.0226816   0.0280238
           19          20          21          22          23          24
    1   0.0248530   0.0130980   0.0080653  -0.0053705  -0.0501010   0.0512747
    2  -0.0349712  -0.0172906   0.0106658   0.0379507  -0.0197505  -0.0096540
    3   0.0083398  -0.0120173  -0.0191417  -0.0226142   0.0141912   0.0195742
           25          26          27          28          29          30
    1  -0.0010802  -0.0076018   0.0069922  -0.0037100   0.0015449  -0.0010061
    2  -0.0068732   0.0039087   0.0020258   0.0026685   0.0085507  -0.0063453
    3   0.0008173   0.0038610   0.0004970   0.0037253   0.0038177  -0.0024760
           31          32          33          34          35          36
    1  -0.0050093  -0.0258220  -0.0095297   0.0387921   0.0293257  -0.0035755
    2  -0.0073445   0.0118942  -0.0390222  -0.0201552   0.0058618   0.0250108
    3   0.0048758  -0.0219087  -0.0218695   0.0111808   0.0073995   0.0115492
           37          38          39          40          41          42
    1  -0.0329412   0.0018650  -0.0128638   0.0076000   0.0004808  -0.0078182
    2   0.0335872  -0.0090248  -0.0016918  -0.0047855  -0.0034010  -0.0010090
    3   0.0044677  -0.0517443  -0.0003298   0.0017430  -0.0026097  -0.0084820
           43          44          45          46          47          48
    1   0.0000646  -0.0037782  -0.0078766   0.0042261   0.0010361  -0.0016486
    2  -0.0024196  -0.0015945  -0.0012591  -0.0001510  -0.0098428  -0.0041707
    3   0.0071882  -0.0037129   0.0046698  -0.0034881  -0.0092420  -0.0005540
           49          50          51          52          53          54
    1  -0.0002923   0.0022568  -0.0031847  -0.0017419   0.0056810   0.0026181
    2   0.0032074  -0.0007864   0.0025308   0.0017100  -0.0009857  -0.0043807
    3   0.0006288  -0.0022611   0.0017905   0.0041647  -0.0028455  -0.0129650
           55          56
    1   0.0375296   0.0283097
    2   0.0160517   0.0056416
    3  -0.0102621  -0.0334752
 Max gradient component =       7.485E-02
 RMS gradient           =       2.261E-02
 Gradient time:  CPU 32.23 s  wall 0.68 s
 Geometry Optimization Parameters
   NAtoms,    NIC,     NZ,  NCons,   NDum,   NFix, NCnnct, MaxDiis
       56     458       0       9       0       0       0       0

 Cartesian Hessian Update
 Hessian Updated using BFGS Update


** CONSTRAINED OPTIMIZATION IN DELOCALIZED INTERNAL COORDINATES **
   Searching for a Minimum

   Optimization Cycle:   3

                       Coordinates (Angstroms)
     ATOM                X               Y               Z
      1  O        -2.7826126526    1.8234484370    0.7637382470
      2  C        -3.4815090766    1.3513028309   -0.1409780818
      3  C        -3.5793632794   -0.1274228372   -0.5312892830
      4  C        -2.3547615247   -1.0716009479   -0.2825005644
      5  C        -1.0961858657   -0.4909893680    0.4105337152
      6  O        -0.5937153515    0.7244333439   -0.0637994649
      7  C        -1.1067968374    1.2871568071   -1.2842517465
      8  C         0.0843141675    1.5109844028   -2.2940151986
      9  O         1.3668148522    1.7493667874   -1.6529533610
     10  C         2.0990252418    0.6298331592   -1.2880368859
     11  C         2.0795493975    0.3177931193    0.2075380891
     12  C         2.9035778206   -0.9425659396    0.6191094297
     13  C         3.9052732619   -1.4616587496   -0.4222645959
     14  O         3.9211488252   -2.6074526145   -0.8898007276
     15  O        -4.3761899206    2.1435523709   -0.8303232651
     16  O         4.8534295722   -0.5411240987   -0.8245000764
     17  O         2.5155419298   -0.1493566554   -2.1538194626
     18  C         5.8289757748   -0.8961201595   -1.7697802911
     19  C         2.8822804570    1.4179107984    1.0296239445
     20  C         2.3621422020    1.4642902811    2.4917679115
     21  C         2.8442785048    0.0861002990    2.9963982548
     22  C         3.7464464418   -0.3494764769    1.8016530693
     23  O         4.1943978602    0.8856559217    1.2378392924
     24  H         1.2680945592    0.1305466642    0.8821108106
     25  H         2.2701963692   -1.8108979050    0.9006706521
     26  H         2.8664216320    2.4263444506    0.5653681434
     27  H         2.9386761862    2.2602895681    3.0060620318
     28  H         1.2807973681    1.6638645448    2.6236607615
     29  H         3.4279092981    0.2309483893    3.9261825485
     30  H         2.0422977473   -0.6591272416    3.1652156964
     31  H         4.5537021473   -1.0403840888    2.1250304943
     32  O        -0.6598947113   -0.9301835781    1.4789378216
     33  C        -4.4754697257    3.5142905080   -0.5378988294
     34  C        -4.6115572122   -0.7776856570    0.4625101224
     35  C        -5.2394677354   -2.0371257899   -0.1793511689
     36  C        -4.0454523389   -2.9956243328   -0.1422753010
     37  C        -3.0157183224   -2.1385644840    0.6452341348
     38  O        -3.8150684192   -1.3323465743    1.5163717876
     39  H        -4.0414198574   -0.2151661804   -1.5388060697
     40  H        -1.9852962674   -1.5607561500   -1.2103843787
     41  H        -3.5105147366    4.0369932980   -0.7192355359
     42  H        -5.4089881808   -0.0765375446    0.7884137504
     43  H        -6.0159986180   -2.4038211775    0.5224797912
     44  H        -5.7000898764   -1.8904437295   -1.1751226585
     45  H        -4.3274890517   -3.8987538103    0.4336713838
     46  H        -3.6514009157   -3.2929402337   -1.1334325698
     47  H        -2.2681579248   -2.7937801577    1.1396814009
     48  H        -4.7800292877    3.6790121313    0.5191763935
     49  H        -5.2465137554    3.9544727925   -1.2018600149
     50  H         6.4781522491   -0.0141903531   -1.9431154290
     51  H         5.3631340001   -1.1902599551   -2.7363470747
     52  H         6.4601577202   -1.7358203232   -1.4033817841
     53  H         0.2330423463    0.5986932379   -2.9334982737
     54  H        -0.1238626942    2.3182154692   -3.0370460724
     55  H        -1.1801954661    2.3942876188   -1.0964046430
     56  H        -1.7432471752    0.8541163039   -2.0893875810
   Point Group: c1    Number of degrees of freedom:   162


   Energy is  -1510.119632192

              Constraints and their Current Values
                                        Value     Constraint
   Dihedral:        1   2   3   4      -28.421      -28.421
   Dihedral:        3   4   5   6      -47.869      -47.368
   Dihedral:        4   5   6   7       -9.773       -9.474
   Dihedral:        5   6   7   8     -123.158     -123.158
   Dihedral:        6   7   8   9      -28.373      -28.421
   Dihedral:        7   8   9  10       85.263       85.263
   Dihedral:        8   9  10  11     -104.256     -104.211
   Dihedral:        9  10  11  12      179.995     -180.000
   Dihedral:       11  12  13  14     -123.166     -123.158
 Hessian Updated using BFGS Update

   Using Lagrange Multiplier Algorithm


156 Hessian modes will be used to form the next step
  Hessian Eigenvalues:
    -0.977753   -0.977753   -0.977699   -0.976667   -0.914108   -0.800464
     0.171742    0.179750    0.179751    0.179753    0.179830    0.180547
     0.182616    0.183464    0.184013    0.194912    0.196967    0.202831
     0.223859    0.238418    0.241889    0.244450    0.255414    0.260292
     0.263915    0.266585    0.269916    0.277389    0.285003    0.290024
     0.292350    0.298641    0.300709    0.303093    0.304512    0.311351
     0.329053    0.330879    0.331544    0.337202    0.338528    0.341766
     0.346086    0.347413    0.349242    0.352304    0.353277    0.354753
     0.355307    0.357584    0.358768    0.361758    0.365118    0.376993
     0.381996    0.385948    0.386626    0.422908    0.440751    0.442096
     0.445576    0.449637    0.457680    0.458005    0.462855    0.463081
     0.470521    0.473763    0.476686    0.500486    0.512374    0.514453
     0.523395    0.539261    0.564385    0.621082    0.639113    0.639326
     0.655751    0.677835    0.682316    0.689135    0.727030    0.846030
     0.886860    0.908062    0.913870    0.949443    0.966116    0.972425
     0.996769    0.998611    1.000130    1.022753    1.022753    1.022810
     1.024177    1.026793    1.029589    1.045869    1.064716    1.081945
     1.089000    1.094010    1.107110    1.120535    1.146271    1.166572
     1.184236    1.197297    1.222421    1.233448    1.237776    1.241646
     1.249975    1.255526    1.258576    1.272246    1.273206    1.280653
     1.284148    1.285420    1.289915    1.290383    1.290654    1.291960
     1.293144    1.293570    1.294398    1.295386    1.295727    1.297074
     1.298202    1.298317    1.298388    1.298909    1.305565    1.305592
     1.423776    1.480443    1.483588    1.541322    1.567960    1.596731
     1.628351    1.887817    1.966087    1.992080    2.064619    2.093925
     2.131622    2.742965    3.668544    3.751203    3.763113    3.764837

 Minimum Search - Taking P-RFO Step
 Searching for Lamda that Maximizes Along the Constraint modes Only
 Value Taken    Lamda =   0.00665804
 Searching for Lamda that Minimizes Along All other modes
 Value Taken    Lamda =  -0.11905558
 Calculated Step too Large.  Step scaled by  0.528579
 Step Taken.  Stepsize is  0.300000

                             Maximum     Tolerance    Cnvgd?
         Gradient            0.116598       0.000300      NO
         Displacement        0.076351       0.001200      NO
         Energy change     -0.075188       0.000001      NO


 New Cartesian Coordinates Obtained by Inverse Iteration

 Displacement from previous Coordinates is:  1.376277
 Adding empirical dispersion correction 
 ----------------------------------------------------------------
 Doing -D3(op) with
 s6 =   1.00000
 s8 =   0.78311
 a1 =   0.30000
 a2 =   4.25000
 n  =  10.00000
 -D3 energy without 3body term =     -0.0728650176 hartrees
 ----------------------------------------------------------------
[...]
     15  O        -4.3744630359    2.2323528104   -0.7256580605
     16  O         4.8761889801   -0.7232311399   -0.8007403875
     17  O         2.6555132326   -0.1628839621   -2.2724359401
     18  C         5.6932694112   -1.3923852991   -1.8364525517
     19  C         2.9617916931    1.5968230121    0.9413817461
     20  C         2.3125629066    1.6299622597    2.3789548500
     21  C         2.8664360600    0.2844558547    2.9796007939
     22  C         3.8186417897   -0.2092909307    1.8153071451
     23  O         4.3088885505    1.0428063845    1.1946794797
     24  H         1.1314553604    0.4928370691    0.3923111214
     25  H         2.1892241004   -1.5711497945    1.0664297897
     26  H         3.0238506452    2.5716847556    0.4200888332
     27  H         2.6735348727    2.5036437899    2.9448815998
     28  H         1.2118360913    1.6566794147    2.3380221193
     29  H         3.4373440348    0.4533524090    3.9062955492
     30  H         2.0633436819   -0.4421740642    3.1821320833
     31  H         4.6702050527   -0.8397136187    2.1367625050
     32  O        -0.6118484175   -0.7432723536    1.5455207094
     33  C        -4.4253467652    3.5681420052   -0.0855125388
     34  C        -4.8405572825   -0.9448557478    0.1071859599
     35  C        -4.9902577290   -2.3240812132   -0.6518832861
     36  C        -3.7823398496   -3.1382796194   -0.0555132220
     37  C        -3.0942007964   -2.0335554006    0.8336367054
     38  O        -4.2480692008   -1.3078362567    1.4134413075
     39  H        -3.7949335885   -0.0005690344   -1.6559826906
     40  H        -2.0353423269   -1.5036183007   -1.0431232983
     41  H        -3.4091372846    3.9887908144    0.0596644503
     42  H        -5.7836625022   -0.3812602808    0.2469707280
     43  H        -5.9571654929   -2.7931057325   -0.4113729051
     44  H        -4.9202428640   -2.1996917278   -1.7444673920
     45  H        -4.1325697271   -3.9709086670    0.5752607408
     46  H        -3.1087357619   -3.5395318689   -0.8293007741
     47  H        -2.4120603807   -2.3914945926    1.6296156253
     48  H        -4.9330358074    3.5290068131    0.8996839841
     49  H        -4.9995613115    4.2149830036   -0.7738929285
     50  H         6.5413989995   -0.7140066727   -2.0426558773
     51  H         5.1096285523   -1.5490885529   -2.7670811094
     52  H         6.0756819966   -2.3742913730   -1.4899345980
     53  H         0.2243198196    0.6606262063   -2.9878726073
     54  H        -0.0711094744    2.4307660722   -3.0121790458
     55  H        -1.4905516059    2.4095206347   -1.1585050960
     56  H        -1.7702073748    0.7531458779   -1.7940239290
   Point Group: c1    Number of degrees of freedom:   162


   Energy is  -1510.250060657

              Constraints and their Current Values
                                        Value     Constraint
   Dihedral:        1   2   3   4      -28.421      -28.421
   Dihedral:        3   4   5   6      -47.368      -47.368
   Dihedral:        4   5   6   7       -9.474       -9.474
   Dihedral:        5   6   7   8     -123.158     -123.158
   Dihedral:        6   7   8   9      -28.421      -28.421
   Dihedral:        7   8   9  10       85.263       85.263
   Dihedral:        8   9  10  11     -104.211     -104.211
   Dihedral:        9  10  11  12     -180.000     -180.000
   Dihedral:       11  12  13  14     -123.158     -123.158
 Hessian Updated using BFGS Update

153 Hessian modes will be used to form the next step
  Hessian Eigenvalues:
     0.003564    0.009878    0.027755    0.043304    0.081754    0.139802
     0.179443    0.179752    0.179844    0.180703    0.181235    0.183625
     0.184547    0.195034    0.209304    0.217719    0.238471    0.247013
     0.248149    0.260731    0.265955    0.269088    0.270840    0.274339
     0.278781    0.284762    0.293825    0.297426    0.297962    0.301728
     0.304970    0.311392    0.323224    0.325276    0.329342    0.334982
     0.337649    0.339557    0.342226    0.345445    0.348085    0.351362
     0.352875    0.353214    0.354854    0.357940    0.360827    0.361907
     0.364981    0.376684    0.378852    0.386644    0.388288    0.413547
     0.419684    0.443709    0.444018    0.451406    0.457052    0.457805
     0.461755    0.462883    0.463077    0.469501    0.477346    0.500508
     0.508291    0.517750    0.532837    0.566872    0.592281    0.620531
     0.631912    0.638693    0.639110    0.639113    0.639318    0.657659
     0.677627    0.697208    0.721356    0.757590    0.836479    0.857742
     0.911518    0.925622    0.933275    0.956492    0.983959    0.989309
     0.996137    0.997826    0.998252    0.999211    1.004485    1.010961
     1.032055    1.035835    1.061945    1.064417    1.088489    1.093401
     1.118195    1.135900    1.159148    1.171484    1.178255    1.204038
     1.225127    1.235705    1.237172    1.241845    1.244936    1.255432
     1.269680    1.272852    1.279969    1.281413    1.285207    1.288904
     1.290191    1.290474    1.291774    1.292810    1.293551    1.294056
     1.295266    1.295642    1.296117    1.296928    1.298231    1.298323
     1.298770    1.304668    1.305584    1.365413    1.458495    1.468415
     1.482224    1.514992    1.532194    1.572435    1.597489    1.746147
     1.965886    1.969543    2.049896    2.075972    2.094427    3.464736
     3.699718    3.754120    3.763202

 Minimum Search - Taking Simple RFO Step
 Searching for Lamda that Minimizes Along All modes
 Value Taken    Lamda =  -0.00000140
 Step Taken.  Stepsize is  0.004595

                             Maximum     Tolerance    Cnvgd?
         Gradient           0.000213      0.000300     YES
         Displacement       0.001094      0.001200     YES
         Energy change     -0.000002      0.000001      NO

 Final energy is   -1510.25006065739     


 ******************************
 **  OPTIMIZATION CONVERGED  **
 ******************************

                       Coordinates (Angstroms)
     ATOM                X               Y               Z
      1  O        -3.1323134593    1.6217889142    1.2043269671
      2  C        -3.6503916129    1.3216399680    0.1070575049
      3  C        -3.6681537835   -0.0956032894   -0.5637017087
      4  C        -2.4225361840   -0.9790326987   -0.1483017905
      5  C        -1.1786202009   -0.2774103689    0.5323181691
      6  O        -0.5870267602    0.9309757845    0.0073667762
      7  C        -1.0238869056    1.4147960504   -1.3182961962
      8  C         0.1891125587    1.5751927230   -2.3535259139
      9  O         1.5232842605    1.8701881015   -1.8098318688
     10  C         2.2117688417    0.6313113509   -1.4172602006
     11  C         2.2074796859    0.4531317348    0.1297097334
     12  C         2.9208342867   -0.8462373857    0.6676689168
     13  C         3.8073581089   -1.5881048484   -0.3957728311
     14  O         3.6961850643   -2.7802125980   -0.7578778575
     15  O        -4.3744630359    2.2323528104   -0.7256580605
     16  O         4.8761889801   -0.7232311399   -0.8007403875
     17  O         2.6555132326   -0.1628839621   -2.2724359401
     18  C         5.6932694112   -1.3923852991   -1.8364525517
     19  C         2.9617916931    1.5968230121    0.9413817461
     20  C         2.3125629066    1.6299622597    2.3789548500
     21  C         2.8664360600    0.2844558547    2.9796007939
     22  C         3.8186417897   -0.2092909307    1.8153071451
     23  O         4.3088885505    1.0428063845    1.1946794797
     24  H         1.1314553604    0.4928370691    0.3923111214
     25  H         2.1892241004   -1.5711497945    1.0664297897
     26  H         3.0238506452    2.5716847556    0.4200888332
     27  H         2.6735348727    2.5036437899    2.9448815998
     28  H         1.2118360913    1.6566794147    2.3380221193
     29  H         3.4373440348    0.4533524090    3.9062955492
     30  H         2.0633436819   -0.4421740642    3.1821320833
     31  H         4.6702050527   -0.8397136187    2.1367625050
     32  O        -0.6118484175   -0.7432723536    1.5455207094
     33  C        -4.4253467652    3.5681420052   -0.0855125388
     34  C        -4.8405572825   -0.9448557478    0.1071859599
     35  C        -4.9902577290   -2.3240812132   -0.6518832861
     36  C        -3.7823398496   -3.1382796194   -0.0555132220
     37  C        -3.0942007964   -2.0335554006    0.8336367054
     38  O        -4.2480692008   -1.3078362567    1.4134413075
     39  H        -3.7949335885   -0.0005690344   -1.6559826906
     40  H        -2.0353423269   -1.5036183007   -1.0431232983
     41  H        -3.4091372846    3.9887908144    0.0596644503
     42  H        -5.7836625022   -0.3812602808    0.2469707280
     43  H        -5.9571654929   -2.7931057325   -0.4113729051
     44  H        -4.9202428640   -2.1996917278   -1.7444673920
     45  H        -4.1325697271   -3.9709086670    0.5752607408
     46  H        -3.1087357619   -3.5395318689   -0.8293007741
     47  H        -2.4120603807   -2.3914945926    1.6296156253
     48  H        -4.9330358074    3.5290068131    0.8996839841
     49  H        -4.9995613115    4.2149830036   -0.7738929285
     50  H         6.5413989995   -0.7140066727   -2.0426558773
     51  H         5.1096285523   -1.5490885529   -2.7670811094
     52  H         6.0756819966   -2.3742913730   -1.4899345980
     53  H         0.2243198196    0.6606262063   -2.9878726073
     54  H        -0.0711094744    2.4307660722   -3.0121790458
     55  H        -1.4905516059    2.4095206347   -1.1585050960
     56  H        -1.7702073748    0.7531458779   -1.7940239290

Z-matrix Print:
$molecule
0 1
O 
C  1 1.444214
O  2 1.250934 1 114.860648
C  1 1.477265 2 118.625214 3 168.843035 0
H  4 1.105030 1 112.951748 2 -1.562178 0
H  4 1.110309 1 106.771910 2 117.408887 0
C  2 1.582038 1 122.464564 3 -178.317060 0
H  7 1.107165 2 106.431196 1 76.244869 0
C  7 1.582583 2 118.961246 1 -47.368022 0
H  9 1.103713 7 113.468057 2 110.804419 0
C  9 1.568060 7 112.540365 2 -15.320384 0
O  11 1.249998 9 126.670906 7 -28.421037 0
O  11 1.430766 9 108.699592 7 153.583394 0
C  13 1.482130 11 109.856967 9 177.496635 0
H  14 1.105438 13 106.036123 11 -179.666172 0
H  14 1.109005 13 111.567896 11 -60.351812 0
H  14 1.109371 13 111.519148 11 61.091340 0
C  7 1.589766 2 111.139734 1 -164.684620 0
H  18 1.107709 7 113.453595 2 -21.958393 0
O  18 1.481301 7 104.234585 2 98.788092 0
C  20 1.479561 18 94.965498 7 54.545069 0
H  21 1.107532 20 110.757303 18 178.707813 0
C  18 1.576242 7 107.512939 2 -152.399198 0
H  23 1.101587 18 112.616987 7 49.959900 0
H  23 1.101729 18 110.211867 7 171.577700 0
C  23 1.574053 18 100.731917 7 -70.747729 0
H  26 1.101245 23 111.760760 18 -122.447622 0
H  26 1.101869 23 112.663290 18 114.830377 0
C  4 1.602746 1 112.866814 2 -123.158035 0
H  29 1.110651 4 106.428375 1 -147.315984 0
H  29 1.113583 4 108.039725 1 97.378908 0
O  29 1.470592 4 117.897635 1 -28.421030 0
C  32 1.470693 29 110.757811 4 85.263013 0
O  33 1.248592 32 121.289520 29 72.336837 0
C  33 1.557203 32 111.116967 29 -104.211007 0
H  35 1.108316 33 103.530042 32 56.110246 0
C  35 1.576907 33 115.591039 32 -180.000000 0
H  37 1.104428 35 111.367713 33 -109.345639 0
C  37 1.570732 35 114.426915 33 13.428157 0
O  39 1.250840 37 126.581198 35 -123.157981 0
O  39 1.433319 37 109.097201 35 62.929230 0
C  41 1.479219 39 109.680192 37 -178.104173 0
H  42 1.105460 41 106.068931 39 -175.405862 0
H  42 1.109258 41 111.847473 39 -55.847625 0
H  42 1.109622 41 111.135586 39 65.664295 0
C  37 1.590230 35 99.878475 33 132.078718 0
H  46 1.107216 37 114.562487 35 -160.536496 0
O  46 1.480969 37 102.890964 35 -40.693123 0
C  48 1.478433 46 94.990749 37 58.501196 0
H  49 1.107228 48 111.071170 46 -177.886612 0
C  49 1.577724 48 103.103082 46 57.591109 0
H  51 1.101768 49 110.478895 48 79.345788 0
H  51 1.101812 49 112.194443 48 -158.679548 0
C  51 1.574147 49 100.657205 48 -38.584856 0
H  54 1.101465 51 111.859517 49 122.321832 0
H  54 1.101802 51 112.171359 49 -114.942004 0
$end

 
 --------------------------------------------------------------
 
                    Orbital Energies (a.u.)
 --------------------------------------------------------------
 
 Alpha MOs
 -- Occupied --
-18.953 -18.949 -18.914 -18.902 -18.902 -18.899 -18.891 -18.890
-18.876 -18.852 -10.118 -10.112 -10.104 -10.087 -10.081 -10.080
-10.076 -10.073 -10.068 -10.054 -10.053 -10.048 -10.047 -10.047
-10.031 -10.029 -10.021 -10.013 -10.006 -10.004  -1.027  -1.021
 -1.007  -0.990  -0.982  -0.958  -0.953  -0.950  -0.934  -0.916
 -0.777  -0.750  -0.734  -0.720  -0.717  -0.707  -0.690  -0.675
 -0.644  -0.617  -0.606  -0.583  -0.563  -0.548  -0.534  -0.525
 -0.525  -0.503  -0.493  -0.478  -0.473  -0.469  -0.458  -0.442
 -0.437  -0.429  -0.424  -0.422  -0.418  -0.414  -0.403  -0.397
 -0.395  -0.386  -0.382  -0.378  -0.369  -0.358  -0.354  -0.351
 -0.344  -0.341  -0.335  -0.328  -0.326  -0.323  -0.318  -0.317
 -0.313  -0.312  -0.302  -0.300  -0.295  -0.292  -0.282  -0.275
 -0.271  -0.266  -0.250  -0.245  -0.240  -0.232  -0.221  -0.194
 -0.189  -0.169  -0.165  -0.160  -0.156  -0.155  -0.153  -0.133
 -0.131
 -- Virtual --
  0.076   0.080   0.091   0.118   0.200   0.229   0.242   0.248
  0.262   0.264   0.272   0.282   0.298   0.301   0.314   0.324
  0.330   0.339   0.342   0.343   0.356   0.359   0.360   0.363
  0.374   0.378   0.380   0.384   0.390   0.392   0.403   0.410
  0.411   0.416   0.420   0.421   0.425   0.427   0.430   0.432
  0.440   0.444   0.448   0.453   0.455   0.456   0.462   0.468
  0.472   0.479   0.481   0.490   0.495   0.507   0.523   0.529
  0.541   0.561   0.569   0.605   0.636   0.637   0.664
 --------------------------------------------------------------
 
          Ground-State Mulliken Net Atomic Charges

     Atom                 Charge (a.u.)
  ----------------------------------------
      1 O                    -0.204368
      2 C                     0.204712
      3 C                    -0.082348
      4 C                    -0.085123
      5 C                     0.217087
      6 O                    -0.169551
      7 C                    -0.054345
      8 C                    -0.047298
      9 O                    -0.195297
     10 C                     0.222309
     11 C                    -0.099409
     12 C                    -0.082623
     13 C                     0.209592
     14 O                    -0.223067
     15 O                    -0.171589
     16 O                    -0.167096
     17 O                    -0.183608
     18 C                    -0.127694
     19 C                     0.026692
     20 C                    -0.142510
     21 C                    -0.144862
     22 C                     0.026756
     23 O                    -0.187244
     24 H                     0.114009
     25 H                     0.085112
     26 H                     0.084238
     27 H                     0.073800
     28 H                     0.080849
     29 H                     0.074439
     30 H                     0.079043
     31 H                     0.080458
     32 O                    -0.197621
     33 C                    -0.129460
     34 C                     0.026231
     35 C                    -0.144841
     36 C                    -0.142863
     37 C                     0.026281
     38 O                    -0.185708
     39 H                     0.084170
     40 H                     0.082258
     41 H                     0.089605
     42 H                     0.084875
     43 H                     0.080933
     44 H                     0.073903
     45 H                     0.081605
     46 H                     0.075239
     47 H                     0.097532
     48 H                     0.092958
     49 H                     0.092785
     50 H                     0.087320
     51 H                     0.088640
     52 H                     0.085808
     53 H                     0.078127
     54 H                     0.088243
     55 H                     0.086836
     56 H                     0.086081
  ----------------------------------------
  Sum of atomic charges =    -0.000000

 -----------------------------------------------------------------
                    Cartesian Multipole Moments
 -----------------------------------------------------------------
    Charge (ESU x 10^10)
                -0.0000
    Dipole Moment (Debye)
         X      -4.9238      Y       0.8018      Z      -2.4675
       Tot       5.5655
    Quadrupole Moments (Debye-Ang)
        XX    -156.8421     XY      -3.0911     YY    -157.0662
        XZ      10.9033     YZ      -1.3456     ZZ    -162.1767
    Octopole Moments (Debye-Ang^2)
       XXX     -35.2452    XXY      -9.8297    XYY     -50.5900
       YYY      31.1577    XXZ     -29.1378    XYZ      -7.3000
       YYZ       2.1437    XZZ      26.3729    YZZ      -3.1105
       ZZZ     -12.4002
    Hexadecapole Moments (Debye-Ang^3)
      XXXX  -10978.7345   XXXY    -134.0923   XXYY   -2243.7107
      XYYY      71.0427   YYYY   -2733.8362   XXXZ     -96.7986
      XXYZ      20.4328   XYYZ      24.1381   YYYZ     -55.3697
      XXZZ   -2229.0083   XYZZ      16.8403   YYZZ    -792.9997
      XZZZ      54.2531   YZZZ     -18.1168   ZZZZ   -1952.6440
 -----------------------------------------------------------------
Archival summary:
1\1\vega02.cac.cornell.edu\OPT\ProcedureUnspecified\STO-3G\102026\jj585\SatJan1317:46:422018SatJan1317:46:422018\0\\#,OPT,ProcedureUnspecified,STO-3G,\\0,1\O\C,1,1.44421\O,2,1.25093,1,114.861\C,1,1.47726,2,118.625,3,168.843,0\H,4,1.10503,1,112.952,2,-1.56218,0\H,4,1.11031,1,106.772,2,117.409,0\C,2,1.58204,1,122.465,3,-178.317,0\H,7,1.10717,2,106.431,1,76.2449,0\C,7,1.58258,2,118.961,1,-47.368,0\H,9,1.10371,7,113.468,2,110.804,0\C,9,1.56806,7,112.54,2,-15.3204,0\O,11,1.25,9,126.671,7,-28.421,0\O,11,1.43077,9,108.7,7,153.583,0\C,13,1.48213,11,109.857,9,177.497,0\H,14,1.10544,13,106.036,11,-179.666,0\H,14,1.109,13,111.568,11,-60.3518,0\H,14,1.10937,13,111.519,11,61.0913,0\C,7,1.58977,2,111.14,1,-164.685,0\H,18,1.10771,7,113.454,2,-21.9584,0\O,18,1.4813,7,104.235,2,98.7881,0\C,20,1.47956,18,94.9655,7,54.5451,0\H,21,1.10753,20,110.757,18,178.708,0\C,18,1.57624,7,107.513,2,-152.399,0\H,23,1.10159,18,112.617,7,49.9599,0\H,23,1.10173,18,110.212,7,171.578,0\C,23,1.57405,18,100.732,7,-70.7477,0\H,26,1.10124,23,111.761,18,-122.448,0\H,26,1.10187,23,112.663,18,114.83,0\C,4,1.60275,1,112.867,2,-123.158,0\H,29,1.11065,4,106.428,1,-147.316,0\H,29,1.11358,4,108.04,1,97.3789,0\O,29,1.47059,4,117.898,1,-28.421,0\C,32,1.47069,29,110.758,4,85.263,0\O,33,1.24859,32,121.29,29,72.3368,0\C,33,1.5572,32,111.117,29,-104.211,0\H,35,1.10832,33,103.53,32,56.1102,0\C,35,1.57691,33,115.591,32,-180,0\H,37,1.10443,35,111.368,33,-109.346,0\C,37,1.57073,35,114.427,33,13.4282,0\O,39,1.25084,37,126.581,35,-123.158,0\O,39,1.43332,37,109.097,35,62.9292,0\C,41,1.47922,39,109.68,37,-178.104,0\H,42,1.10546,41,106.069,39,-175.406,0\H,42,1.10926,41,111.847,39,-55.8476,0\H,42,1.10962,41,111.136,39,65.6643,0\C,37,1.59023,35,99.8785,33,132.079,0\H,46,1.10722,37,114.562,35,-160.536,0\O,46,1.48097,37,102.891,35,-40.6931,0\C,48,1.47843,46,94.9907,37,58.5012,0\H,49,1.10723,48,111.071,46,-177.887,0\C,49,1.57772,48,103.103,46,57.5911,0\H,51,1.10177,49,110.479,48,79.3458,0\H,51,1.10181,49,112.194,48,-158.68,0\C,51,1.57415,49,100.657,48,-38.5849,0\H,54,1.10146,51,111.86,49,122.322,0\H,54,1.1018,51,112.171,49,-114.942,0\\\@

 Total job time:  93.44s(wall), 4453.91s(cpu) 
 Sat Jan 13 17:46:42 2018

        *************************************************************
        *                                                           *
        *  Thank you very much for using Q-Chem.  Have a nice day.  *
        *                                                           *
        *************************************************************


0 sent ACK to 0 
now end server 0 ... 
