mFile = /opt/software/qchem/qchem-5.0.1//bin/mpi/machines
Process 0 of 1 is on vega02.cac.cornell.edu - thread support 0
initial socket setup ...start
initial socket setup ...done 
now start server 0 ... 
vega02.cac.cornell.edu 10.84.3
Q-Chem Developer Version! Running on 10.84.3.*
                  Welcome to Q-Chem
     A Quantum Leap Into The Future Of Chemistry


 Q-Chem 5.0, Q-Chem, Inc., Pleasanton, CA (2017)

 Yihan Shao,  Zhengting Gan,  E. Epifanovsky,  A. T. B. Gilbert,  M. Wormit,  
 J. Kussmann,  A. W. Lange,  A. Behn,  Jia Deng,  Xintian Feng,  D. Ghosh,  
 M. Goldey,  P. R. Horn,  L. D. Jacobson,  I. Kaliman,  T. Kus,  A. Landau,  
 Jie Liu,  E. I. Proynov,  R. M. Richard,  R. P. Steele,  E. J. Sundstrom,  
 H. L. Woodcock III,  P. M. Zimmerman,  D. Zuev,  B. Albrecht,  E. Alguire,  
 S. A. Baeppler,  Z. Benda,  Y. A. Bernard,  E. J. Berquist,  K. B. Bravaya,  
 D. Casanova,  Chun-Min Chang,  Yunqing Chen,  A. Chien,  K. D. Closser,  
 M. P. Coons,  S. Dasgupta,  M. Diedenhofen,  Hainam Do,  R. G. Edgar,  
 Po-Tung Fang,  S. Fatehi,  Qingguo Feng,  Qinghui Ge,  A. Ghysels,  
 J. Gomes,  J. Gonthier,  A. Gunina,  M. W. D. Hanson-Heine,  
 P. H. P. Harbach,  A. W. Hauser,  J. E. Herr,  E. G. Hohenstein,  
 Z. C. Holden,  Kerwin Hui,  T.-C. Jagau,  Hyunjun Ji,  B. Kaduk,  
 K. Khistyaev,  Jaehoon Kim,  P. Klunzinger,  K. Koh,  D. Kosenkov,  
 T. Kowalczyk,  C. M. Krauter,  A. Kunitsa,  Ka Un Lao,  A. Laurent,  
 K. V. Lawler,  Joonho Lee,  D. Lefrancois,  S. Lehtola,  D. S. Levine,  
 Yi-Pei Li,  You-Sheng Lin,  Fenglai Liu,  E. Livshits,  A. Luenser,  
 P. Manohar,  E. Mansoor,  S. F. Manzer,  Shan-Ping Mao,  Yuezhi Mao,  
 N. Mardirossian,  A. V. Marenich,  L. A. Martinez-Martinez,  S. A. Maurer,  
 N. J. Mayhall,  S. C. McKenzie,  J.-M. Mewes,  A. F. Morrison,  K. Nanda,  
 T. S. Nguyen-Beck,  R. Olivares-Amaya,  J. A. Parkhill,  T. M. Perrine,  
 F. Plasser,  S. Prager,  A. Prociuk,  D. R. Rehn,  F. Rob,  M. Schneider,  
 N. Sergueev,  S. M. Sharada,  S. Sharma,  D. W. Small,  T. Stauch,  
 T. Stein,  Yu-Chuan Su,  A. J. W. Thom,  T. Tsuchimochi,  L. Vogt,  
 O. Vydrov,  M. A. Watson,  J. Wenzel,  M. de Wergifosse,  T. A. Wesolowski,  
 A. White,  J. Witte,  A. Yamada,  Jun Yang,  K. Yao,  S. Yeganeh,  
 S. R. Yost,  Zhi-Qiang You,  A. Zech,  Igor Ying Zhang,  Xing Zhang,  
 Yan Zhao,  Ying Zhu,  B. R. Brooks,  G. K. L. Chan,  C. J. Cramer,  
 M. S. Gordon,  W. J. Hehre,  A. Klamt,  M. W. Schmidt,  C. D. Sherrill,  
 D. G. Truhlar,  A. Aspuru-Guzik,  R. Baer,  A. T. Bell,  N. A. Besley,  
 Jeng-Da Chai,  A. Dreuw,  B. D. Dunietz,  T. R. Furlani,  Chao-Ping Hsu,  
 Yousung Jung,  Jing Kong,  D. S. Lambrecht,  WanZhen Liang,  C. Ochsenfeld,  
 V. A. Rassolov,  L. V. Slipchenko,  J. E. Subotnik,  T. Van Voorhis,  
 J. M. Herbert,  A. I. Krylov,  P. M. W. Gill,  M. Head-Gordon

 Contributors to earlier versions of Q-Chem not listed above: 
 R. D. Adamson,  B. Austin,  J. Baker,  G. J. O. Beran,  K. Brandhorst,  
 S. T. Brown,  E. F. C. Byrd,  A. K. Chakraborty,  C.-L. Cheng,  
 Siu Hung Chien,  D. M. Chipman,  D. L. Crittenden,  H. Dachsel,  
 R. A. DiStasio Jr.,  R. J. Doerksen,  A. D. Dutoi,  L. Fusti-Molnar,  
 W. A. Goddard III,  A. Golubeva-Zadorozhnaya,  S. R. Gwaltney,  G. Hawkins,  
 A. Heyden,  S. Hirata,  G. Kedziora,  F. J. Keil,  C. Kelley,  Jihan Kim,  
 R. A. King,  R. Z. Khaliullin,  P. P. Korambath,  W. Kurlancheek,  
 A. M. Lee,  M. S. Lee,  S. V. Levchenko,  Ching Yeh Lin,  D. Liotard,  
 R. C. Lochan,  I. Lotan,  P. E. Maslen,  N. Nair,  D. P. O'Neill,  
 D. Neuhauser,  E. Neuscamman,  C. M. Oana,  R. Olson,  B. Peters,  
 R. Peverati,  P. A. Pieniazek,  Y. M. Rhee,  J. Ritchie,  M. A. Rohrdanz,  
 E. Rosta,  N. J. Russ,  H. F. Schaefer III,  N. E. Schultz,  N. Shenvi,  
 A. C. Simmonett,  A. Sodt,  D. Stuck,  K. S. Thanthiriwatte,  V. Vanovschi,  
 Tao Wang,  A. Warshel,  C. F. Williams,  Q. Wu,  X. Xu,  W. Zhang

 Please cite Q-Chem as follows:
 Y. Shao et al., Mol. Phys. 113, 184-215 (2015)
 DOI: 10.1080/00268976.2014.952696

 Q-Chem 5.0.1 for Intel X86 EM64T Linux

 Parts of Q-Chem use Armadillo 5.200.1 (Boston Tea Smuggler).
 http://arma.sourceforge.net/

 Q-Chem begins on Sat Jan 13 18:36:24 2018  

Host: vega02.cac.cornell.edu
0

     Scratch files written to /scratch/jj585/SOT1001/0165r.save//
 Parallel job on  1  processors

Checking the input file for inconsistencies... 	...done.

--------------------------------------------------------------
User input:
--------------------------------------------------------------
$molecule
0  1
O -3.2430178868 -2.4972362454 1.6670331463
C -3.4644563075 -1.6093543346 0.8129009147
C -3.4708021582 -0.0595860757 1.0583203377
C -3.314032276 0.8326165244 -0.2373217422
C -2.6723458557 0.1978044641 -1.5433815686
O -1.714161749 -0.8809094404 -1.424395328
C -0.6659469373 -0.6086858606 -0.4142227777
C 0.272295584 -1.8760254361 -0.4256130781
O 1.3837209698 -1.7721500512 0.5335211804
C 2.5364314426 -1.0594546616 -0.0111337251
C 2.6855979225 0.4106156839 0.5334057759
C 4.1897513083 0.857655217 0.7898985832
C 5.2144767633 -0.3359803427 0.7413189401
O 5.0905651643 -1.4382616352 1.3181881085
O -3.9616975122 -1.8611508895 -0.5034435023
O 6.3513402943 0.0319027331 -0.0430536334
O 3.2953655702 -1.5802824049 -0.8551997012
C 7.3078257957 -1.0976343429 -0.100416475
C 2.3122164307 1.4289257824 -0.6447521428
C 2.1650154624 2.8772442989 -0.0299126971
C 3.6737977331 3.2830965447 0.1538544937
C 4.4002796104 1.9651160241 -0.3218453436
O 3.5527042616 1.4960506671 -1.442070446
H 2.0445816769 0.5427752472 1.4219907865
H 4.2710767112 1.3048062553 1.7988501835
H 1.4739963487 1.1095996508 -1.291685683
H 1.6460674611 3.5453610337 -0.73543345
H 1.6081929224 2.8653718379 0.9206984668
H 3.9449806983 4.1269242176 -0.5005221243
H 3.9219289669 3.5479818435 1.1939811445
H 5.4509706643 2.0803784712 -0.6491597286
O -3.064729424 0.5035752079 -2.6897454707
C -4.0087358817 -3.314529076 -0.779681326
C -4.9708159875 0.3232548291 1.4569340136
C -5.0383675478 1.8414381977 1.8952907638
C -5.0293741108 2.5687435139 0.4983532166
C -4.8027993068 1.3412065779 -0.4655447783
O -5.6525864929 0.2925293915 0.1437793034
H -2.7496321705 0.1945048002 1.8539387551
H -2.6778899411 1.7020233459 0.0193981169
H -5.0168598814 -3.5623556481 -1.1636854269
H -5.4444017175 -0.3894004982 2.1602214153
H -5.9664761667 2.0406513773 2.4540923909
H -4.180416437 2.1239961113 2.5264879613
H -6.0011981673 3.0438492964 0.2886917571
H -4.2368667722 3.3292665388 0.4134843468
H -5.0633240813 1.4960713501 -1.5309386326
H -3.800997239 -3.8763492428 0.1534526785
H -3.2498153686 -3.5617687113 -1.548738394
H 8.1483518995 -0.7527215383 -0.7302328106
H 6.8444574445 -1.996513718 -0.5557617687
H 7.6834450683 -1.3664177414 0.9081641792
H -0.3284252694 -2.7542349791 -0.1078043158
H 0.6266671092 -2.056236916 -1.4653303498
H -1.0713284173 -0.4649169967 0.6076495666
H -0.0948817011 0.3018771023 -0.6870966468
$end

$rem
JOBTYPE                   OPT
METHOD                    B3LYP
DFT_D                     d3_op
BASIS                     STO-3G
GEOM_OPT_MAX_CYCLES       100
GEOM_OPT_TOL_GRADIENT     300
GEOM_OPT_TOL_DISPLACEMENT 1200
GEOM_OPT_TOL_ENERGY       100
SYMMETRY                  False
THRESH                    12
SCF_CONVERGENCE           8
MAX_SUB_FILE_NUM          128
MEM_STATIC                400
MEM_TOTAL                 4000
$end
--------------------------------------------------------------
 Adding empirical dispersion correction 
 ----------------------------------------------------------------
 Doing -D3(op) with
 s6 =   1.00000
 s8 =   0.78311
 a1 =   0.30000
 a2 =   4.25000
 n  =  10.00000
 -D3 energy without 3body term =     -0.0699418841 hartrees
 ----------------------------------------------------------------
             Standard Nuclear Orientation (Angstroms)
    I     Atom           X                Y                Z
 ----------------------------------------------------------------
    1      O      -3.3276077974    -2.3643296037     1.6809370063
    2      C      -3.5122053821    -1.4838476846     0.8105425827
    3      C      -3.4735565706     0.0691122362     1.0316180747
    4      C      -3.2751563772     0.9352869061    -0.2759252244
    5      C      -2.6389758014     0.2603539405    -1.5644436958
    6      O      -1.7158088493    -0.8451326428    -1.4176091346
    7      C      -0.6708930313    -0.5890032389    -0.3998384275
    8      C       0.2279730105    -1.8844759300    -0.3806365331
    9      O       1.3314465994    -1.7993438013     0.5894632395
   10      C       2.5114671061    -1.1310428520     0.0470145658
   11      C       2.6998009446     0.3422875061     0.5701863817
   12      C       4.2140852853     0.7471377363     0.8369250910
   13      C       5.2020654468    -0.4779150260     0.8187861999
   14      O       5.0379507674    -1.5665320031     1.4113531739
   15      O      -4.0024440718    -1.7413112677    -0.5073312638
   16      O       6.3582743059    -0.1575659289     0.0418727492
   17      O       3.2632565002    -1.6882656685    -0.7800315997
   18      C       7.2801201631    -1.3166108689     0.0131663296
   19      C       2.3709209107     1.3525919259    -0.6279572570
   20      C       2.2616026291     2.8143741632    -0.0375638302
   21      C       3.7800462021     3.1767581234     0.1571599417
   22      C       4.4708157646     1.8297356149    -0.2895017633
   23      O       3.6215857581     1.3689847433    -1.4119221799
   24      H       2.0534158124     0.5081771968     1.4491733951
   25      H       4.2980247908     1.2076536227     1.8396316691
   26      H       1.5304409011     1.0487663611    -1.2794083061
   27      H       1.7712560451     3.4866986890    -0.7593577701
   28      H       1.6942512804     2.8347326372     0.9066564094
   29      H       4.0842529473     4.0013312984    -0.5071678656
   30      H       4.0247503934     3.4505113828     1.1958012620
   31      H       5.5280944804     1.9075533082    -0.6064843383
   32      O      -3.0091250438     0.5596329151    -2.7198797356
   33      C      -4.0911431772    -3.1967975868    -0.7613394131
   34      C      -4.9653742013     0.5039876033     1.4069380463
   35      C      -4.9909935437     2.0303365522     1.8207050456
   36      C      -4.9442506427     2.7346151868     0.4127650178
   37      C      -4.7449655010     1.4854777411    -0.5291603984
   38      O      -5.6332755607     0.4731601947     0.0866775370
   39      H      -2.7537078393     0.3136981198     1.8314008828
   40      H      -2.6154241291     1.7888138818    -0.0255346493
   41      H      -5.1021294227    -3.4197671594    -1.1529802423
   42      H      -5.4683771750    -0.1825172873     2.1157915377
   43      H      -5.9186251352     2.2667549484     2.3656240582
   44      H      -4.1317513675     2.2965607093     2.4572241466
   45      H      -5.8986276334     3.2358219639     0.1845507429
   46      H      -4.1278286899     3.4690817437     0.3251296940
   47      H      -4.9888613367     1.6311999526    -1.5997677862
   48      H      -3.9110733218    -3.7497307205     0.1827877556
   49      H      -3.3317735242    -3.4793965184    -1.5176674705
   50      H       8.1377422214    -1.0076824079    -0.6122656824
   51      H       6.7943483796    -2.2080523328    -0.4333665216
   52      H       7.6361685212    -1.5806129122     1.0300742788
   53      H      -0.4029499117    -2.7387051825    -0.0560620349
   54      H       0.5880509362    -2.0920333413    -1.4132696572
   55      H      -1.0828787606    -0.4165911376     0.6149366928
   56      H      -0.0691087343     0.2991853949    -0.6803329418
 ----------------------------------------------------------------
 Molecular Point Group                 C1    NOp =  1
 Largest Abelian Subgroup              C1    NOp =  1
 Nuclear Repulsion Energy =  3113.3311212427 hartrees
 There are      113 alpha and      113 beta electrons
 Requested basis set is STO-3G
 There are 86 shells and 176 basis functions

 Total QAlloc Memory Limit   4000 MB
 Mega-Array Size       392 MB
 MEM_STATIC part       400 MB
 A cutoff of  1.0D-12 yielded   2180 shell pairs
 There are     10094 function pairs
 
 -------------------------------------------------------
 OpenMP Integral Computing Module                       
 Release: version 1.0, May 2013, Q-Chem Inc. Pittsburgh 
 -------------------------------------------------------
 Integral Job Info:
 Integral job number is                      11
 Integral operator is                         1
 short-range coefficients                     0
 long-range coefficients              100000000
 Omega coefficients                           0
 if combine SR and LR in K                    0
 Integral screening is                        0
 Integral computing path is                   2
 max size of driver memory is            800000
 size of driver memory is                 45569
 size of scratch memory is              1046100
 max col of scratch BK array                289
 max len of scratch array in speh3           22
 max len of scratch index in speh4            8
 max int batch size is                      520
 min int batch size is                       52
 fixed nKL is                                52
 max L of basis functions is                  1
 order of int derivative is                   0
 number of shells is                         86
 number of basis is                         176
 number of cartesian basis is               176
 number of contracted shell pairs          2180
 number of primitive shell pairs          11230
 maxK2 (contraction) of shell pair            9
 max number of K2 of shell pair               1
 max number of CS2 of shell pair            335
 max number of PS2 of shell pair           1264
 mem total for path MDJ                   50922
 -------------------------------------------------------
 Smallest overlap matrix eigenvalue = 2.13E-01

 Scale SEOQF with 1.000000e-02/1.000000e-01/1.000000e-01

 Standard Electronic Orientation quadrupole field applied
 Nucleus-field energy     =     0.0000000328 hartrees
 Guess from superposition of atomic densities
 Warning:  Energy on first SCF cycle will be non-variational
 A restricted hybrid HF-DFT SCF calculation will be
 performed using Pulay DIIS extrapolation
 Exchange:     0.2000 Hartree-Fock + 0.0800 Slater + 0.7200 B88
 Correlation:  0.1900 VWN1RPA + 0.8100 LYP
 Using SG-1 standard quadrature grid
 Dispersion:   Grimme D3
 SCF converges when DIIS error is below 1.0E-08
 using 48 threads for integral computing
 -------------------------------------------------------
 OpenMP Integral computing Module                
 Release: version 1.0, May 2013, Q-Chem Inc. Pittsburgh 
 -------------------------------------------------------
 -------------------------------------------------------
 OpenMP BLAS3 based DFT computing Module                
 Release: version 1.0, May 2013, Q-Chem Inc. Pittsburgh 
 -------------------------------------------------------
 ---------------------------------------
  Cycle       Energy         DIIS Error
 ---------------------------------------
    1   -1507.5846927249      7.44E-02
    2   -1509.6668477117      1.07E-02
    3   -1507.2009048167      2.76E-02
    4   -1510.1593982265      4.21E-03
    5   -1510.2284900519      1.68E-03
    6   -1510.2378215975      8.50E-04
    7   -1510.2409503081      1.59E-04
    8   -1510.2410568660      4.37E-05
    9   -1510.2410647382      1.11E-05
   10   -1510.2410652342      4.73E-06
   11   -1510.2410653154      2.14E-06
   12   -1510.2410653355      2.93E-07
   13   -1510.2410653359      1.12E-07
   14   -1510.2410653359      4.34E-08
   15   -1510.2410653359      1.95E-08
   16   -1510.2410653360      6.71E-09 Convergence criterion met
 ---------------------------------------
 SCF time:  CPU 120.67 s  wall 2.59 s
 SCF   energy in the final basis set = -1510.24106534
 Total energy in the final basis set = -1510.24106534
 
 --------------------------------------------------------------
 
                    Orbital Energies (a.u.)
 --------------------------------------------------------------
 
 Alpha MOs
 -- Occupied --
-18.937 -18.936 -18.925 -18.905 -18.903 -18.896 -18.893 -18.887
-18.877 -18.872 -10.109 -10.107 -10.103 -10.100 -10.077 -10.075
-10.070 -10.067 -10.064 -10.063 -10.063 -10.058 -10.046 -10.044
-10.042 -10.042 -10.029 -10.026 -10.026 -10.024  -1.016  -1.013
 -1.006  -1.004  -0.978  -0.976  -0.944  -0.939  -0.936  -0.934
 -0.769  -0.768  -0.729  -0.728  -0.714  -0.710  -0.706  -0.662
 -0.659  -0.614  -0.605  -0.589  -0.555  -0.551  -0.545  -0.543
 -0.518  -0.515  -0.493  -0.479  -0.473  -0.463  -0.456  -0.446
 -0.443  -0.439  -0.432  -0.417  -0.415  -0.411  -0.409  -0.405
 -0.394  -0.388  -0.379  -0.375  -0.373  -0.364  -0.355  -0.350
 -0.346  -0.344  -0.340  -0.336  -0.335  -0.328  -0.322  -0.320
 -0.317  -0.311  -0.308  -0.305  -0.300  -0.296  -0.291  -0.281
 -0.277  -0.255  -0.254  -0.244  -0.241  -0.239  -0.237  -0.182
 -0.177  -0.169  -0.165  -0.162  -0.160  -0.154  -0.151  -0.148
 -0.148
 -- Virtual --
  0.069   0.084   0.098   0.104   0.208   0.237   0.241   0.243
  0.249   0.261   0.275   0.282   0.289   0.312   0.315   0.322
  0.329   0.334   0.336   0.339   0.346   0.349   0.354   0.365
  0.366   0.370   0.376   0.380   0.390   0.397   0.400   0.401
  0.405   0.410   0.416   0.421   0.425   0.428   0.431   0.432
  0.435   0.438   0.440   0.443   0.446   0.449   0.453   0.459
  0.467   0.477   0.482   0.486   0.498   0.501   0.505   0.533
  0.534   0.547   0.561   0.612   0.624   0.641   0.643
 --------------------------------------------------------------
 
          Ground-State Mulliken Net Atomic Charges

     Atom                 Charge (a.u.)
  ----------------------------------------
      1 O                    -0.217375
      2 C                     0.208235
      3 C                    -0.081415
      4 C                    -0.083996
      5 C                     0.218061
      6 O                    -0.177861
      7 C                    -0.055089
      8 C                    -0.043383
      9 O                    -0.195522
     10 C                     0.221799
     11 C                    -0.081792
     12 C                    -0.078809
     13 C                     0.212678
     14 O                    -0.213918
     15 O                    -0.162915
     16 O                    -0.168942
     17 O                    -0.177715
     18 C                    -0.127192
     19 C                     0.024049
     20 C                    -0.144924
     21 C                    -0.143358
     22 C                     0.023659
     23 O                    -0.185776
     24 H                     0.084706
     25 H                     0.083873
     26 H                     0.078275
     27 H                     0.078832
     28 H                     0.072457
     29 H                     0.079569
     30 H                     0.074312
     31 H                     0.096171
     32 O                    -0.192172
     33 C                    -0.133878
     34 C                     0.025679
     35 C                    -0.145075
     36 C                    -0.142332
     37 C                     0.025893
     38 O                    -0.186398
     39 H                     0.082439
     40 H                     0.076872
     41 H                     0.090072
     42 H                     0.084803
     43 H                     0.079738
     44 H                     0.072855
     45 H                     0.079626
     46 H                     0.072903
     47 H                     0.094551
     48 H                     0.100530
     49 H                     0.089324
     50 H                     0.090701
     51 H                     0.094873
     52 H                     0.088530
     53 H                     0.093089
     54 H                     0.088516
     55 H                     0.080343
     56 H                     0.071825
  ----------------------------------------
  Sum of atomic charges =     0.000000

 -----------------------------------------------------------------
                    Cartesian Multipole Moments
 -----------------------------------------------------------------
    Charge (ESU x 10^10)
                 0.0000
    Dipole Moment (Debye)
         X       0.5661      Y       3.5943      Z       2.4105
       Tot       4.3646
    Quadrupole Moments (Debye-Ang)
        XX    -156.8178     XY       3.1593     YY    -156.0090
        XZ      -3.0835     YZ       9.2661     ZZ    -170.4706
    Octopole Moments (Debye-Ang^2)
       XXX     149.3350    XXY      -0.1588    XYY     -21.2508
       YYY     -30.8181    XXZ      34.8623    XYZ      -2.7287
       YYZ     -23.6789    XZZ       8.1693    YZZ      -2.5265
       ZZZ       8.0981
    Hexadecapole Moments (Debye-Ang^3)
      XXXX  -14740.5604   XXXY    -164.2571   XXYY   -2950.4579
      XYYY      93.1186   YYYY   -2933.4835   XXXZ     -63.0689
      XXYZ     108.0776   XYYZ      41.1891   YYYZ       6.9327
      XXZZ   -2843.6666   XYZZ       1.9606   YYZZ    -710.7264
      XZZZ      -4.4946   YZZZ       9.8020   ZZZZ   -1213.4299
 -----------------------------------------------------------------
 Calculating analytic gradient of the SCF energy
 Gradient of SCF Energy
            1           2           3           4           5           6
    1  -0.0052445   0.0060366   0.0094108  -0.0159873   0.0120356  -0.0059937
    2  -0.0000347   0.0001461   0.0014031  -0.0047692   0.0084347  -0.0050549
    3   0.0011121  -0.0017896   0.0031583  -0.0038558   0.0011038  -0.0002044
            7           8           9          10          11          12
    1   0.0012283  -0.0047161   0.0008087   0.0065220  -0.0044784   0.0002598
    2   0.0008442   0.0037669  -0.0064760  -0.0000327  -0.0002215   0.0016558
    3  -0.0012550   0.0050225  -0.0109677   0.0108436   0.0028322  -0.0066793
           13          14          15          16          17          18
    1   0.0008344  -0.0006364   0.0000602   0.0000089   0.0000501   0.0000029
    2   0.0006402  -0.0004525   0.0000563   0.0000381   0.0000783  -0.0000410
    3   0.0019313  -0.0010978   0.0000063  -0.0000023  -0.0000350   0.0000109
           19          20          21          22          23          24
    1  -0.0000030   0.0000538  -0.0001076   0.0000759  -0.0000342  -0.0000604
    2   0.0001651  -0.0000506   0.0000518  -0.0000281  -0.0001117   0.0000289
    3  -0.0003163   0.0000458  -0.0000580   0.0000644   0.0000635  -0.0000320
           25          26          27          28          29          30
    1  -0.0000294   0.0000384  -0.0000233   0.0000282   0.0000082   0.0000181
    2   0.0000123  -0.0000616   0.0000194  -0.0000150  -0.0000308   0.0000424
    3  -0.0000016   0.0000837   0.0000157  -0.0000133  -0.0000087  -0.0000190
           31          32          33          34          35          36
    1   0.0000659   0.0000034   0.0000253  -0.0002409   0.0001691  -0.0000340
    2  -0.0000716  -0.0000019  -0.0000941   0.0000822  -0.0000867  -0.0000234
    3  -0.0000242  -0.0000048  -0.0000349   0.0002703  -0.0001204  -0.0000712
           37          38          39          40          41          42
    1   0.0000728   0.0000008   0.0000109  -0.0000522  -0.0000174   0.0000239
    2   0.0000929  -0.0000163  -0.0000013   0.0000152   0.0000016  -0.0000025
    3  -0.0000453  -0.0000123  -0.0000121   0.0000284   0.0000255   0.0000337
           43          44          45          46          47          48
    1  -0.0000380  -0.0000259   0.0000258   0.0000039   0.0000047   0.0000220
    2  -0.0000068   0.0000096  -0.0000339   0.0000565  -0.0000292   0.0000513
    3   0.0000561   0.0000057  -0.0000040   0.0000525   0.0000011   0.0000049
           49          50          51          52          53          54
    1  -0.0000342  -0.0000106   0.0000074  -0.0000069  -0.0000141  -0.0000062
    2   0.0000196   0.0000183  -0.0000146   0.0000017   0.0000182   0.0000137
    3  -0.0000020  -0.0000210  -0.0000037  -0.0000074  -0.0000221  -0.0000018
           55          56
    1  -0.0000565  -0.0000658
    2   0.0000263  -0.0000282
    3  -0.0000021  -0.0000472
 Max gradient component =       1.599E-02
 RMS gradient           =       2.686E-03
 Gradient time:  CPU 31.57 s  wall 0.68 s
 Geometry Optimization Parameters
   NAtoms,    NIC,     NZ,  NCons,   NDum,   NFix, NCnnct, MaxDiis
       56     458       0       0       0       0       0       0


** GEOMETRY OPTIMIZATION IN DELOCALIZED INTERNAL COORDINATES **
   Searching for a Minimum

   Optimization Cycle:   1

                       Coordinates (Angstroms)
     ATOM                X               Y               Z
      1  O        -3.3276077974   -2.3643296037    1.6809370063
      2  C        -3.5122053821   -1.4838476846    0.8105425827
      3  C        -3.4735565706    0.0691122362    1.0316180747
      4  C        -3.2751563772    0.9352869061   -0.2759252244
      5  C        -2.6389758014    0.2603539405   -1.5644436958
      6  O        -1.7158088493   -0.8451326428   -1.4176091346
      7  C        -0.6708930313   -0.5890032389   -0.3998384275
      8  C         0.2279730105   -1.8844759300   -0.3806365331
      9  O         1.3314465994   -1.7993438013    0.5894632395
     10  C         2.5114671061   -1.1310428520    0.0470145658
     11  C         2.6998009446    0.3422875061    0.5701863817
     12  C         4.2140852853    0.7471377363    0.8369250910
     13  C         5.2020654468   -0.4779150260    0.8187861999
     14  O         5.0379507674   -1.5665320031    1.4113531739
     15  O        -4.0024440718   -1.7413112677   -0.5073312638
     16  O         6.3582743059   -0.1575659289    0.0418727492
     17  O         3.2632565002   -1.6882656685   -0.7800315997
     18  C         7.2801201631   -1.3166108689    0.0131663296
     19  C         2.3709209107    1.3525919259   -0.6279572570
     20  C         2.2616026291    2.8143741632   -0.0375638302
     21  C         3.7800462021    3.1767581234    0.1571599417
     22  C         4.4708157646    1.8297356149   -0.2895017633
     23  O         3.6215857581    1.3689847433   -1.4119221799
     24  H         2.0534158124    0.5081771968    1.4491733951
     25  H         4.2980247908    1.2076536227    1.8396316691
     26  H         1.5304409011    1.0487663611   -1.2794083061
     27  H         1.7712560451    3.4866986890   -0.7593577701
     28  H         1.6942512804    2.8347326372    0.9066564094
     29  H         4.0842529473    4.0013312984   -0.5071678656
     30  H         4.0247503934    3.4505113828    1.1958012620
     31  H         5.5280944804    1.9075533082   -0.6064843383
     32  O        -3.0091250438    0.5596329151   -2.7198797356
     33  C        -4.0911431772   -3.1967975868   -0.7613394131
     34  C        -4.9653742013    0.5039876033    1.4069380463
     35  C        -4.9909935437    2.0303365522    1.8207050456
     36  C        -4.9442506427    2.7346151868    0.4127650178
     37  C        -4.7449655010    1.4854777411   -0.5291603984
     38  O        -5.6332755607    0.4731601947    0.0866775370
     39  H        -2.7537078393    0.3136981198    1.8314008828
     40  H        -2.6154241291    1.7888138818   -0.0255346493
     41  H        -5.1021294227   -3.4197671594   -1.1529802423
     42  H        -5.4683771750   -0.1825172873    2.1157915377
     43  H        -5.9186251352    2.2667549484    2.3656240582
     44  H        -4.1317513675    2.2965607093    2.4572241466
     45  H        -5.8986276334    3.2358219639    0.1845507429
     46  H        -4.1278286899    3.4690817437    0.3251296940
     47  H        -4.9888613367    1.6311999526   -1.5997677862
     48  H        -3.9110733218   -3.7497307205    0.1827877556
     49  H        -3.3317735242   -3.4793965184   -1.5176674705
     50  H         8.1377422214   -1.0076824079   -0.6122656824
     51  H         6.7943483796   -2.2080523328   -0.4333665216
     52  H         7.6361685212   -1.5806129122    1.0300742788
     53  H        -0.4029499117   -2.7387051825   -0.0560620349
     54  H         0.5880509362   -2.0920333413   -1.4132696572
     55  H        -1.0828787606   -0.4165911376    0.6149366928
     56  H        -0.0691087343    0.2991853949   -0.6803329418
   Point Group: c1    Number of degrees of freedom:   162


   Energy is  -1510.241065336


 Attempting to Generate Delocalized Internal Coordinates

162 Hessian modes will be used to form the next step
  Hessian Eigenvalues:
     0.002000    0.002000    0.002000    0.002000    0.002000    0.002696
     0.002773    0.003380    0.004204    0.004370    0.004902    0.004933
     0.005044    0.005234    0.006157    0.006800    0.006844    0.007630
     0.009333    0.011746    0.011763    0.021638    0.021688    0.025674
     0.026076    0.030714    0.030794    0.034644    0.035291    0.038479
     0.040311    0.041853    0.042313    0.043729    0.044361    0.045635
     0.046174    0.049099    0.051033    0.051353    0.053580    0.053655
     0.054787    0.054889    0.055573    0.055954    0.056483    0.058368
     0.058462    0.059032    0.060086    0.060448    0.060797    0.063167
     0.063793    0.063984    0.064408    0.069746    0.070169    0.073122
     0.073157    0.091467    0.091659    0.093022    0.093025    0.095667
     0.096877    0.096941    0.100615    0.102078    0.102733    0.104664
     0.109605    0.111179    0.113706    0.121850    0.122360    0.133019
     0.138965    0.157822    0.158317    0.160000    0.160000    0.160000
     0.160000    0.160000    0.160000    0.163425    0.163934    0.216906
     0.217059    0.219197    0.220810    0.225859    0.229906    0.238269
     0.238896    0.239521    0.239539    0.242840    0.244619    0.246847
     0.247784    0.249046    0.249924    0.249939    0.250000    0.250000
     0.250000    0.250000    0.250000    0.250000    0.250000    0.250000
     0.253195    0.253400    0.254858    0.256485    0.257144    0.260896
     0.293219    0.294381    0.308093    0.309241    0.322704    0.325514
     0.326732    0.326988    0.327148    0.327227    0.327375    0.327707
     0.328486    0.328556    0.328713    0.329322    0.329637    0.329720
     0.330336    0.330818    0.332862    0.333007    0.334656    0.334758
     0.334893    0.334923    0.334987    0.335021    0.335096    0.335154
     0.344304    0.344574    0.345530    0.355337    0.368905    0.385450
     0.410641    0.410831    0.825887    0.831399    0.833684    0.836537

 Minimum Search - Taking Simple RFO Step
 Searching for Lamda that Minimizes Along All modes
 Value Taken    Lamda =  -0.01788173
 Calculated Step too Large.  Step scaled by  0.338462
 Step Taken.  Stepsize is  0.300000

                             Maximum     Tolerance    Cnvgd?
         Gradient           0.006740      0.000300      NO
         Displacement       0.105409      0.001200      NO
         Energy change     *********      0.000001      NO


 New Cartesian Coordinates Obtained by Inverse Iteration

 Displacement from previous Coordinates is:  2.483506
 Adding empirical dispersion correction 
 ----------------------------------------------------------------
 Doing -D3(op) with
 s6 =   1.00000
 s8 =   0.78311
 a1 =   0.30000
 a2 =   4.25000
 n  =  10.00000
 -D3 energy without 3body term =     -0.0686704814 hartrees
 ----------------------------------------------------------------
             Standard Nuclear Orientation (Angstroms)
    I     Atom           X                Y                Z
 ----------------------------------------------------------------
    1      O      -3.4146852302    -2.4103064821     1.7272745328
    2      C      -3.6403160943    -1.5483374429     0.8480712293
    3      C      -3.5826944957     0.0091937835     1.0295649833
    4      C      -3.3738340532     0.8395601817    -0.2997150736
    5      C      -2.7641376715     0.1188451867    -1.5762213886
    6      O      -1.7735953940    -0.9244410170    -1.4142190325
    7      C      -0.7216655873    -0.5702991474    -0.4337718873
    8      C       0.2479478580    -1.8128703549    -0.3860208760
    9      O       1.3598839852    -1.6337957940     0.5613147675
   10      C       2.5124164798    -0.9677235952    -0.0397861684
   11      C       2.7819602408     0.4716022192     0.5395315244
   12      C       4.3132547326     0.7733629315     0.8407279726
   13      C       5.2276320694    -0.5062791795     0.7797877291
   14      O       4.9984538920    -1.6033904290     1.3338666948
   15      O      -4.1535487105    -1.8357029629    -0.4547864185
   16      O       6.4086304253    -0.2234630990     0.0259465769
   17      O       3.2469917140    -1.5434140810    -0.8696416791
   18      C       7.2641752508    -1.4309426560    -0.0374901003
   19      C       2.5249456055     1.5482850537    -0.6166859258
   20      C       2.4951490257     2.9877659877     0.0347457912
   21      C       4.0299621056     3.2505825350     0.2595797335
   22      C       4.6457324129     1.8849029478    -0.2373121742
   23      O       3.7841298404     1.5233346313    -1.3867911815
   24      H       2.1404296513     0.6377857455     1.4220026635
   25      H       4.4121470205     1.1865182076     1.8625203340
   26      H       1.6756344353     1.3224231868    -1.2881273349
   27      H       2.0540977745     3.7178926213    -0.6622639407
   28      H       1.9186455607     3.0020426535     0.9735322275
   29      H       4.3902745084     4.0828713928    -0.3659464328
   30      H       4.2776789047     3.4653783082     1.3112906647
   31      H       5.7094117458     1.9135438357    -0.5407347651
   32      O      -3.1535741790     0.3793492095    -2.7347056197
   33      C      -4.2370851486    -3.2965686310    -0.6776695275
   34      C      -5.0647177573     0.4739486408     1.4038435192
   35      C      -5.0668417523     2.0109337616     1.7772152218
   36      C      -5.0179888896     2.6765814639     0.3506545698
   37      C      -4.8399243390     1.3999891715    -0.5582409895
   38      O      -5.7393959642     0.4171000913     0.0884349085
   39      H      -2.8523933520     0.2635189947     1.8167372875
   40      H      -2.7038048607     1.6937095785    -0.0807252990
   41      H      -5.2534851215    -3.5338290382    -1.0462106807
   42      H      -5.5727837332    -0.1869959826     2.1330761250
   43      H      -5.9880880059     2.2746426878     2.3203804351
   44      H      -4.2004530011     2.2820136590     2.4019028292
   45      H      -5.9668531509     3.1842488391     0.1138063011
   46      H      -4.1923576353     3.3973542421     0.2390850754
   47      H      -5.0882064739     1.5202010075    -1.6310088562
   48      H      -4.0362312435    -3.8291897004     0.2739249087
   49      H      -3.4896906713    -3.5896604872    -1.4419084956
   50      H       8.1448453419    -1.1483416511    -0.6430180775
   51      H       6.7341139684    -2.2764541104    -0.5214038122
   52      H       7.5933016675    -1.7518442334     0.9721020603
   53      H      -0.3325150127    -2.6833510262    -0.0139157707
   54      H       0.5996766733    -2.0457905112    -1.4161199763
   55      H      -1.1202638252    -0.3816760468     0.5834507416
   56      H      -0.1770759659     0.3382960991    -0.7618421396
 ----------------------------------------------------------------
 Molecular Point Group                 C1    NOp =  1
 Largest Abelian Subgroup              C1    NOp =  1
 Nuclear Repulsion Energy =  3087.6239777972 hartrees
 There are      113 alpha and      113 beta electrons
 Applying Cartesian multipole field
    Component          Value
    ---------          -----
     (2,0,0)        1.00000E-12
     (0,2,0)        2.00000E-11
     (0,0,2)       -3.00000E-11
 Nucleus-field energy     =     0.0000000349 hartrees
 Requested basis set is STO-3G
 There are 86 shells and 176 basis functions
 A cutoff of  1.0D-12 yielded   2134 shell pairs
 There are      9859 function pairs
 Smallest overlap matrix eigenvalue = 2.13E-01
 Guess MOs from SCF MO coefficient file
 Reading MOs from coefficient file
 Reading MOs from coefficient file
 A restricted hybrid HF-DFT SCF calculation will be
 performed using Pulay DIIS extrapolation
 Exchange:     0.2000 Hartree-Fock + 0.0800 Slater + 0.7200 B88
 Correlation:  0.1900 VWN1RPA + 0.8100 LYP
 Using SG-1 standard quadrature grid
 Dispersion:   Grimme D3
 SCF converges when DIIS error is below 1.0E-08
 Geometry optimization detected.  Setting ReadMinima to 0
 Setting SaveMinima to 0
 using 48 threads for integral computing
 -------------------------------------------------------
 OpenMP Integral computing Module                
 Release: version 1.0, May 2013, Q-Chem Inc. Pittsburgh 
 -------------------------------------------------------
 -------------------------------------------------------
 OpenMP BLAS3 based DFT computing Module                
 Release: version 1.0, May 2013, Q-Chem Inc. Pittsburgh 
 -------------------------------------------------------
 ---------------------------------------
  Cycle       Energy         DIIS Error
 ---------------------------------------
    1   -1510.2034210737      2.97E-03
    2   -1510.2448757224      2.19E-04
    3   -1510.2449855078      2.48E-04
    4   -1510.2452281588      1.03E-04
    5   -1510.2452620336      5.59E-05
    6   -1510.2452755460      9.76E-06
    7   -1510.2452759460      4.33E-06
    8   -1510.2452760246      1.51E-06
    9   -1510.2452760350      4.13E-07
   10   -1510.2452760358      1.96E-07
   11   -1510.2452760359      1.08E-07
   12   -1510.2452760359      1.87E-08
   13   -1510.2452760359      5.42E-09 Convergence criterion met
 ---------------------------------------
 SCF time:  CPU 91.88 s  wall 1.92 s
 SCF   energy in the final basis set = -1510.24527604
 Total energy in the final basis set = -1510.24527604
 
 --------------------------------------------------------------
 
                    Orbital Energies (a.u.)
 --------------------------------------------------------------
 
 Alpha MOs
 -- Occupied --
-18.938 -18.936 -18.925 -18.909 -18.901 -18.895 -18.893 -18.887
-18.877 -18.872 -10.108 -10.107 -10.103 -10.100 -10.078 -10.076
-10.069 -10.067 -10.063 -10.062 -10.062 -10.058 -10.046 -10.043
-10.042 -10.041 -10.028 -10.026 -10.025 -10.024  -1.016  -1.013
 -1.006  -1.004  -0.977  -0.975  -0.944  -0.939  -0.937  -0.933
 -0.768  -0.767  -0.728  -0.727  -0.714  -0.709  -0.705  -0.661
 -0.659  -0.614  -0.604  -0.588  -0.553  -0.550  -0.544  -0.543
 -0.517  -0.514  -0.492  -0.479  -0.472  -0.464  -0.455  -0.445
 -0.443  -0.439  -0.432  -0.418  -0.414  -0.411  -0.410  -0.405
 -0.394  -0.388  -0.379  -0.375  -0.373  -0.364  -0.355  -0.349
 -0.346  -0.343  -0.340  -0.336  -0.335  -0.327  -0.321  -0.319
 -0.317  -0.310  -0.307  -0.305  -0.300  -0.295  -0.290  -0.280
 -0.278  -0.255  -0.254  -0.244  -0.240  -0.239  -0.238  -0.180
 -0.176  -0.171  -0.167  -0.162  -0.160  -0.153  -0.151  -0.148
 -0.147
 -- Virtual --
  0.071   0.085   0.099   0.105   0.206   0.236   0.242   0.244
  0.248   0.263   0.276   0.282   0.289   0.313   0.315   0.324
  0.333   0.334   0.336   0.340   0.347   0.349   0.355   0.366
  0.367   0.370   0.378   0.382   0.392   0.398   0.400   0.402
  0.407   0.410   0.417   0.422   0.425   0.428   0.431   0.432
  0.435   0.439   0.440   0.443   0.445   0.449   0.454   0.460
  0.467   0.475   0.483   0.485   0.491   0.499   0.502   0.533
  0.534   0.548   0.552   0.612   0.625   0.641   0.643
 --------------------------------------------------------------
 
          Ground-State Mulliken Net Atomic Charges

     Atom                 Charge (a.u.)
  ----------------------------------------
      1 O                    -0.216871
      2 C                     0.208813
      3 C                    -0.081267
      4 C                    -0.084129
      5 C                     0.218753
      6 O                    -0.179127
      7 C                    -0.053418
      8 C                    -0.043491
      9 O                    -0.191731
     10 C                     0.219562
     11 C                    -0.081410
     12 C                    -0.078649
     13 C                     0.212527
     14 O                    -0.213961
     15 O                    -0.163471
     16 O                    -0.168982
     17 O                    -0.180151
     18 C                    -0.127210
     19 C                     0.024512
     20 C                    -0.144690
     21 C                    -0.143474
     22 C                     0.023610
     23 O                    -0.186101
     24 H                     0.084698
     25 H                     0.083967
     26 H                     0.077552
     27 H                     0.078530
     28 H                     0.072605
     29 H                     0.079290
     30 H                     0.074098
     31 H                     0.095874
     32 O                    -0.192098
     33 C                    -0.133786
     34 C                     0.025771
     35 C                    -0.145090
     36 C                    -0.142440
     37 C                     0.025702
     38 O                    -0.186441
     39 H                     0.082451
     40 H                     0.077090
     41 H                     0.090103
     42 H                     0.084598
     43 H                     0.079631
     44 H                     0.072833
     45 H                     0.079519
     46 H                     0.072666
     47 H                     0.094430
     48 H                     0.100758
     49 H                     0.089600
     50 H                     0.090587
     51 H                     0.094743
     52 H                     0.088466
     53 H                     0.092894
     54 H                     0.089781
     55 H                     0.080443
     56 H                     0.071529
  ----------------------------------------
  Sum of atomic charges =    -0.000000

 -----------------------------------------------------------------
                    Cartesian Multipole Moments
 -----------------------------------------------------------------
    Charge (ESU x 10^10)
                 0.0000
    Dipole Moment (Debye)
         X       0.5910      Y       3.5211      Z       2.4547
       Tot       4.3328
    Quadrupole Moments (Debye-Ang)
        XX    -157.0714     XY       2.4206     YY    -155.2133
        XZ      -2.7708     YZ       8.7337     ZZ    -170.4912
    Octopole Moments (Debye-Ang^2)
       XXX     155.8274    XXY      -3.9810    XYY     -18.2836
       YYY     -34.3653    XXZ      40.7002    XYZ      -0.4327
       YYZ     -22.4828    XZZ      11.5287    YZZ      -1.5501
       ZZZ      10.4653
    Hexadecapole Moments (Debye-Ang^3)
      XXXX  -15428.5892   XXXY    -323.7896   XXYY   -3043.6084
      XYYY     -38.7462   YYYY   -3003.5027   XXXZ     -56.2845
      XXYZ     107.1023   XYYZ      48.7923   YYYZ      -2.0151
      XXZZ   -2954.9172   XYZZ     -54.5201   YYZZ    -724.0475
      XZZZ       3.8835   YZZZ      -3.4910   ZZZZ   -1204.6462
 -----------------------------------------------------------------
 Calculating analytic gradient of the SCF energy
 Gradient of SCF Energy
            1           2           3           4           5           6
    1  -0.0036756   0.0015291   0.0079909  -0.0114730   0.0073086  -0.0034575
    2  -0.0003537   0.0000390   0.0013402  -0.0029588   0.0034181  -0.0028652
    3   0.0012067  -0.0010360   0.0020243  -0.0027255   0.0008912  -0.0009054
            7           8           9          10          11          12
    1   0.0006587  -0.0032259   0.0017699   0.0000789  -0.0017749   0.0003945
    2   0.0005858   0.0065156  -0.0113309   0.0047486  -0.0000469   0.0017892
    3  -0.0013800   0.0041380  -0.0076873   0.0022114   0.0032901  -0.0048312
           13          14          15          16          17          18
    1   0.0003251  -0.0006439  -0.0008051   0.0000782   0.0025329   0.0000038
    2   0.0001451  -0.0002940  -0.0009899   0.0001082  -0.0015234  -0.0000268
    3   0.0010274  -0.0008218   0.0006592   0.0002727   0.0039274   0.0000591
           19          20          21          22          23          24
    1   0.0010614  -0.0000436  -0.0004323   0.0001457  -0.0003200   0.0004868
    2   0.0005268   0.0001959  -0.0004140   0.0001678  -0.0002198   0.0000171
    3  -0.0012716   0.0000650  -0.0000110   0.0003346  -0.0000165   0.0002759
           25          26          27          28          29          30
    1   0.0001876   0.0017879  -0.0000353   0.0000624  -0.0000021   0.0000509
    2   0.0001131   0.0006522  -0.0000880   0.0000228  -0.0000027   0.0002104
    3  -0.0000243  -0.0001884   0.0000118   0.0000243  -0.0000467  -0.0000639
           31          32          33          34          35          36
    1   0.0001326   0.0018073   0.0001565  -0.0006477   0.0002037   0.0000074
    2  -0.0001225   0.0020015   0.0000661  -0.0000491  -0.0002096   0.0000470
    3  -0.0000038  -0.0003968  -0.0000461   0.0006650  -0.0001675  -0.0001205
           37          38          39          40          41          42
    1   0.0002260  -0.0000542   0.0000238  -0.0005011   0.0000097  -0.0000210
    2  -0.0005422  -0.0001956   0.0003672   0.0006752   0.0000095  -0.0000157
    3   0.0003139   0.0003750  -0.0003466  -0.0002233   0.0000379   0.0000050
           43          44          45          46          47          48
    1  -0.0000495  -0.0000119   0.0000050  -0.0000083   0.0000079  -0.0000923
    2  -0.0000422   0.0000551  -0.0000253   0.0000889  -0.0000319   0.0000877
    3   0.0000790  -0.0000212   0.0000125   0.0000283   0.0000159   0.0000694
           49          50          51          52          53          54
    1  -0.0000109  -0.0000234  -0.0000037  -0.0000232   0.0001035  -0.0001907
    2   0.0000718   0.0000416   0.0000057   0.0000039   0.0002922  -0.0004344
    3  -0.0000393  -0.0000167  -0.0000146  -0.0000267   0.0005159  -0.0002493
           55          56
    1   0.0005192  -0.0021288
    2  -0.0000227  -0.0016040
    3  -0.0004924   0.0006373
 Max gradient component =       1.147E-02
 RMS gradient           =       2.055E-03
 Gradient time:  CPU 30.95 s  wall 0.65 s
 Geometry Optimization Parameters
   NAtoms,    NIC,     NZ,  NCons,   NDum,   NFix, NCnnct, MaxDiis
       56     458       0       0       0       0       0       0

 Cartesian Hessian Update
 Hessian Updated using BFGS Update


** GEOMETRY OPTIMIZATION IN DELOCALIZED INTERNAL COORDINATES **
   Searching for a Minimum

   Optimization Cycle:   2

                       Coordinates (Angstroms)
     ATOM                X               Y               Z
      1  O        -3.4146852302   -2.4103064821    1.7272745328
      2  C        -3.6403160943   -1.5483374429    0.8480712293
      3  C        -3.5826944957    0.0091937835    1.0295649833
      4  C        -3.3738340532    0.8395601817   -0.2997150736
      5  C        -2.7641376715    0.1188451867   -1.5762213886
      6  O        -1.7735953940   -0.9244410170   -1.4142190325
      7  C        -0.7216655873   -0.5702991474   -0.4337718873
      8  C         0.2479478580   -1.8128703549   -0.3860208760
      9  O         1.3598839852   -1.6337957940    0.5613147675
     10  C         2.5124164798   -0.9677235952   -0.0397861684
     11  C         2.7819602408    0.4716022192    0.5395315244
     12  C         4.3132547326    0.7733629315    0.8407279726
     13  C         5.2276320694   -0.5062791795    0.7797877291
     14  O         4.9984538920   -1.6033904290    1.3338666948
     15  O        -4.1535487105   -1.8357029629   -0.4547864185
     16  O         6.4086304253   -0.2234630990    0.0259465769
     17  O         3.2469917140   -1.5434140810   -0.8696416791
     18  C         7.2641752508   -1.4309426560   -0.0374901003
     19  C         2.5249456055    1.5482850537   -0.6166859258
     20  C         2.4951490257    2.9877659877    0.0347457912
     21  C         4.0299621056    3.2505825350    0.2595797335
     22  C         4.6457324129    1.8849029478   -0.2373121742
     23  O         3.7841298404    1.5233346313   -1.3867911815
     24  H         2.1404296513    0.6377857455    1.4220026635
     25  H         4.4121470205    1.1865182076    1.8625203340
     26  H         1.6756344353    1.3224231868   -1.2881273349
     27  H         2.0540977745    3.7178926213   -0.6622639407
     28  H         1.9186455607    3.0020426535    0.9735322275
     29  H         4.3902745084    4.0828713928   -0.3659464328
     30  H         4.2776789047    3.4653783082    1.3112906647
     31  H         5.7094117458    1.9135438357   -0.5407347651
     32  O        -3.1535741790    0.3793492095   -2.7347056197
     33  C        -4.2370851486   -3.2965686310   -0.6776695275
     34  C        -5.0647177573    0.4739486408    1.4038435192
     35  C        -5.0668417523    2.0109337616    1.7772152218
     36  C        -5.0179888896    2.6765814639    0.3506545698
     37  C        -4.8399243390    1.3999891715   -0.5582409895
     38  O        -5.7393959642    0.4171000913    0.0884349085
     39  H        -2.8523933520    0.2635189947    1.8167372875
     40  H        -2.7038048607    1.6937095785   -0.0807252990
     41  H        -5.2534851215   -3.5338290382   -1.0462106807
     42  H        -5.5727837332   -0.1869959826    2.1330761250
     43  H        -5.9880880059    2.2746426878    2.3203804351
     44  H        -4.2004530011    2.2820136590    2.4019028292
     45  H        -5.9668531509    3.1842488391    0.1138063011
     46  H        -4.1923576353    3.3973542421    0.2390850754
     47  H        -5.0882064739    1.5202010075   -1.6310088562
     48  H        -4.0362312435   -3.8291897004    0.2739249087
     49  H        -3.4896906713   -3.5896604872   -1.4419084956
     50  H         8.1448453419   -1.1483416511   -0.6430180775
     51  H         6.7341139684   -2.2764541104   -0.5214038122
     52  H         7.5933016675   -1.7518442334    0.9721020603
     53  H        -0.3325150127   -2.6833510262   -0.0139157707
     54  H         0.5996766733   -2.0457905112   -1.4161199763
     55  H        -1.1202638252   -0.3816760468    0.5834507416
     56  H        -0.1770759659    0.3382960991   -0.7618421396
   Point Group: c1    Number of degrees of freedom:   162


   Energy is  -1510.245276036

 Hessian Updated using BFGS Update

149 Hessian modes will be used to form the next step
  Hessian Eigenvalues:
     0.001887    0.002281    0.002697    0.002722    0.003620    0.004334
     0.004444    0.004902    0.004931    0.005044    0.005575    0.005704
     0.006795    0.006843    0.009045    0.011746    0.011763    0.021421
     0.021664    0.024787    0.025963    0.029225    0.030752    0.031705
     0.035019    0.035517    0.036399    0.040306    0.041692    0.042213
     0.042727    0.044467    0.045887    0.048848    0.050814    0.051316
     0.053336    0.053580    0.054574    0.054840    0.055245    0.055844
     0.056471    0.057670    0.058370    0.058586    0.058915    0.060001
     0.060748    0.062979    0.063739    0.063837    0.063997    0.064413
     0.069745    0.070211    0.073063    0.073459    0.091471    0.092047
     0.093013    0.093056    0.095668    0.096877    0.098018    0.100618
     0.102078    0.102733    0.104764    0.109606    0.113379    0.113785
     0.122205    0.124239    0.133509    0.139985    0.157818    0.159311
     0.159998    0.160003    0.163361    0.165811    0.215641    0.217388
     0.219197    0.224166    0.225852    0.230477    0.238269    0.238896
     0.239507    0.239539    0.242847    0.244611    0.246904    0.247777
     0.249033    0.249863    0.249939    0.249942    0.253194    0.253400
     0.254850    0.256374    0.257143    0.260843    0.293018    0.294360
     0.307797    0.309199    0.321785    0.322894    0.325517    0.326732
     0.326988    0.327226    0.327360    0.327707    0.328486    0.328556
     0.328705    0.329322    0.329636    0.329713    0.329833    0.330818
     0.332860    0.332999    0.334656    0.334757    0.334893    0.334922
     0.334986    0.335021    0.335094    0.335153    0.343348    0.344307
     0.345469    0.349227    0.357633    0.385189    0.404882    0.410761
     0.410951    0.825949    0.831400    0.833702    0.836609

 Minimum Search - Taking Simple RFO Step
 Searching for Lamda that Minimizes Along All modes
 Value Taken    Lamda =  -0.01312516
 Calculated Step too Large.  Step scaled by  0.359390
 Step Taken.  Stepsize is  0.300000

                             Maximum     Tolerance    Cnvgd?
         Gradient           0.010736      0.000300      NO
         Displacement       0.090913      0.001200      NO
         Energy change     -0.004211      0.000001      NO


 New Cartesian Coordinates Obtained by Inverse Iteration

 Displacement from previous Coordinates is:  2.748913
 Adding empirical dispersion correction 
 ----------------------------------------------------------------
 Doing -D3(op) with
 s6 =   1.00000
 s8 =   0.78311
 a1 =   0.30000
 a2 =   4.25000
 n  =  10.00000
 -D3 energy without 3body term =     -0.0684765632 hartrees
 ----------------------------------------------------------------
             Standard Nuclear Orientation (Angstroms)
    I     Atom           X                Y                Z
 ----------------------------------------------------------------
    1      O      -3.4114993303    -2.3526481985     1.8082941944
    2      C      -3.6776973519    -1.5357194366     0.8981238412
    3      C      -3.6111169716     0.0283298624     0.9942637309
    4      C      -3.3759374271     0.7700973295    -0.3808469324
    5      C      -2.8070002710    -0.0607942596    -1.6062465420
    6      O      -1.7888831803    -1.0648203789    -1.3816061276
    7      C      -0.7484445981    -0.6211497481    -0.4263576417
    8      C       0.2530038428    -1.8319553714    -0.3004992392
    9      O       1.3499372187    -1.5550350317     0.6395533576
   10      C       2.4662811607    -0.8821768112    -0.0148453114
   11      C       2.8097413541     0.5096943763     0.6332592437
   12      C       4.3619477245     0.7544597839     0.8661121310
   13      C       5.2396204600    -0.5364875386     0.6637719257
   14      O       5.0260390603    -1.6599998010     1.1690447256
   15      O      -4.1812350759    -1.8906465931    -0.3918988793
   16      O       6.3757649294    -0.2289915141    -0.1472252587
   17      O       3.1224442605    -1.4218898635    -0.9303023333
   18      C       7.1998502743    -1.4450864655    -0.3371165290
   19      C       2.5054112730     1.6675775408    -0.4253945311
   20      C       2.5535622278     3.0580102963     0.3241528610
   21      C       4.1058648667     3.2711023520     0.4701062877
   22      C       4.6548141289     1.9301167863    -0.1556585969
   23      O       3.7151671223     1.6691274230    -1.2718284634
   24      H       2.2298557343     0.6272176701     1.5648759630
   25      H       4.5316331426     1.0958236130     1.9049407558
   26      H       1.6084774927     1.5058461558    -1.0533163266
   27      H       2.0896492377     3.8447929619    -0.2916715094
   28      H       2.0363701540     3.0187144161     1.2962043524
   29      H       4.4489462026     4.1370775852    -0.1182679326
   30      H       4.4224902168     3.4061196356     1.5165876535
   31      H       5.6983177596     1.9577120510    -0.5222879979
   32      O      -3.2212009309     0.1045659643    -2.7735416010
   33      C      -4.2389815450    -3.3614056380    -0.5488395875
   34      C      -5.0834314870     0.5402410360     1.3372627406
   35      C      -5.0560517411     2.0968047370     1.6183654212
   36      C      -4.9879998232     2.6744715014     0.1544739041
   37      C      -4.8326222479     1.3419835670    -0.6749880122
   38      O      -5.7545673846     0.4185053976     0.0252769301
   39      H      -2.8746555546     0.3153916540     1.7643688732
   40      H      -2.6869153194     1.6229761433    -0.2255427655
   41      H      -5.2498482964    -3.6325517841    -0.9091656554
   42      H      -5.6057240926    -0.0667314021     2.1024474396
   43      H      -5.9735939886     2.4110375209     2.1403728322
   44      H      -4.1864449233     2.3874051168     2.2296854283
   45      H      -5.9255931856     3.1858912595    -0.1168166021
   46      H      -4.1474969308     3.3703280634     0.0032242813
   47      H      -5.0769636394     1.4007178953    -1.7537866800
   48      H      -4.0322110169    -3.8474336996     0.4261498552
   49      H      -3.4840180315    -3.6757967068    -1.2970176730
   50      H       8.0459021102    -1.1421462193    -0.9809446195
   51      H       6.6221480843    -2.2507442999    -0.8343040350
   52      H       7.5859483980    -1.8316676405     0.6283445989
   53      H      -0.3048448712    -2.6936764701     0.1232122145
   54      H       0.6187241875    -2.1181594271    -1.3119724336
   55      H      -1.1551634841    -0.3811585462     0.5771105632
   56      H      -0.2244543533     0.2798443462    -0.8092085036
 ----------------------------------------------------------------
 Molecular Point Group                 C1    NOp =  1
 Largest Abelian Subgroup              C1    NOp =  1
 Nuclear Repulsion Energy =  3086.3959537933 hartrees
 There are      113 alpha and      113 beta electrons
 Applying Cartesian multipole field
    Component          Value
    ---------          -----
     (2,0,0)        1.00000E-12
     (0,2,0)        2.00000E-11
     (0,0,2)       -3.00000E-11
 Nucleus-field energy     =     0.0000000366 hartrees
 Requested basis set is STO-3G
 There are 86 shells and 176 basis functions
 A cutoff of  1.0D-12 yielded   2124 shell pairs
 There are      9783 function pairs
 Smallest overlap matrix eigenvalue = 2.13E-01
 Guess MOs from SCF MO coefficient file
 Reading MOs from coefficient file
 Reading MOs from coefficient file
 A restricted hybrid HF-DFT SCF calculation will be
 performed using Pulay DIIS extrapolation
 Exchange:     0.2000 Hartree-Fock + 0.0800 Slater + 0.7200 B88
 Correlation:  0.1900 VWN1RPA + 0.8100 LYP
 Using SG-1 standard quadrature grid
 Dispersion:   Grimme D3
 SCF converges when DIIS error is below 1.0E-08
 Geometry optimization detected.  Setting ReadMinima to 0
 Setting SaveMinima to 0
 using 48 threads for integral computing
 -------------------------------------------------------
 OpenMP Integral computing Module                
 Release: version 1.0, May 2013, Q-Chem Inc. Pittsburgh 
 -------------------------------------------------------
 -------------------------------------------------------
 OpenMP BLAS3 based DFT computing Module                
 Release: version 1.0, May 2013, Q-Chem Inc. Pittsburgh 
 -------------------------------------------------------
 ---------------------------------------
  Cycle       Energy         DIIS Error
 ---------------------------------------
    1   -1510.1663576362      4.23E-03
    2   -1510.2489585991      3.81E-04
    3   -1510.2486653958      5.45E-04
    4   -1510.2498877331      1.90E-04
    5   -1510.2500261070      6.96E-05
    6   -1510.2500474955      1.74E-05
    7   -1510.2500486233      1.00E-05
    8   -1510.2500490597      2.34E-06
    9   -1510.2500490849      7.13E-07
   10   -1510.2500490867      4.78E-07
   11   -1510.2500490877      1.75E-07
   12   -1510.2500490878      3.76E-08
   13   -1510.2500490878      1.30E-08
   14   -1510.2500490878      6.90E-09 Convergence criterion met
 ---------------------------------------
 SCF time:  CPU 99.30 s  wall 2.07 s
 SCF   energy in the final basis set = -1510.25004909
 Total energy in the final basis set = -1510.25004909
 
 --------------------------------------------------------------
 
                    Orbital Energies (a.u.)
 --------------------------------------------------------------
 
 Alpha MOs
 -- Occupied --
-18.939 -18.936 -18.925 -18.914 -18.897 -18.894 -18.893 -18.885
-18.879 -18.871 -10.106 -10.106 -10.104 -10.099 -10.078 -10.076
-10.069 -10.067 -10.063 -10.062 -10.061 -10.059 -10.046 -10.043
-10.041 -10.041 -10.028 -10.026 -10.025 -10.024  -1.017  -1.013
 -1.007  -1.004  -0.977  -0.975  -0.944  -0.940  -0.937  -0.934
 -0.768  -0.767  -0.728  -0.727  -0.714  -0.709  -0.705  -0.661
 -0.660  -0.614  -0.605  -0.588  -0.553  -0.549  -0.544  -0.543
 -0.517  -0.514  -0.492  -0.479  -0.471  -0.465  -0.454  -0.446
 -0.443  -0.438  -0.432  -0.418  -0.414  -0.411  -0.410  -0.405
 -0.393  -0.388  -0.378  -0.374  -0.373  -0.364  -0.354  -0.349
 -0.346  -0.343  -0.339  -0.336  -0.334  -0.327  -0.321  -0.319
 -0.316  -0.309  -0.307  -0.305  -0.300  -0.294  -0.290  -0.280
 -0.278  -0.256  -0.254  -0.246  -0.240  -0.239  -0.238  -0.180
 -0.176  -0.172  -0.168  -0.162  -0.161  -0.152  -0.151  -0.148
 -0.147
 -- Virtual --
  0.074   0.086   0.100   0.106   0.208   0.236   0.242   0.244
  0.248   0.265   0.277   0.283   0.289   0.313   0.316   0.324
  0.332   0.334   0.336   0.341   0.347   0.351   0.356   0.366
  0.367   0.371   0.379   0.381   0.394   0.399   0.400   0.404
  0.408   0.411   0.417   0.423   0.425   0.427   0.431   0.432
  0.435   0.439   0.440   0.443   0.445   0.449   0.454   0.461
  0.467   0.475   0.483   0.485   0.490   0.499   0.502   0.533
  0.534   0.548   0.551   0.614   0.628   0.641   0.643
 --------------------------------------------------------------
 
          Ground-State Mulliken Net Atomic Charges

     Atom                 Charge (a.u.)
  ----------------------------------------
      1 O                    -0.216121
      2 C                     0.209340
      3 C                    -0.081385
      4 C                    -0.084637
      5 C                     0.219435
      6 O                    -0.179432
      7 C                    -0.052486
      8 C                    -0.044268
      9 O                    -0.187552
     10 C                     0.216994
     11 C                    -0.080804
     12 C                    -0.078655
     13 C                     0.212466
     14 O                    -0.214000
     15 O                    -0.163156
     16 O                    -0.168848
     17 O                    -0.185071
     18 C                    -0.127214
     19 C                     0.025151
     20 C                    -0.144522
     21 C                    -0.143512
     22 C                     0.023549
     23 O                    -0.186300
     24 H                     0.085197
     25 H                     0.084142
     26 H                     0.076752
     27 H                     0.078164
     28 H                     0.073012
     29 H                     0.079133
     30 H                     0.074055
     31 H                     0.095615
     32 O                    -0.193067
     33 C                    -0.133589
     34 C                     0.025893
     35 C                    -0.145016
     36 C                    -0.142630
     37 C                     0.025586
     38 O                    -0.186723
     39 H                     0.082296
     40 H                     0.077249
     41 H                     0.090313
     42 H                     0.084438
     43 H                     0.079521
     44 H                     0.072738
     45 H                     0.079445
     46 H                     0.072507
     47 H                     0.094447
     48 H                     0.100813
     49 H                     0.090505
     50 H                     0.090578
     51 H                     0.094616
     52 H                     0.088430
     53 H                     0.092683
     54 H                     0.092141
     55 H                     0.080533
     56 H                     0.071249
  ----------------------------------------
  Sum of atomic charges =    -0.000000

 -----------------------------------------------------------------
                    Cartesian Multipole Moments
 -----------------------------------------------------------------
    Charge (ESU x 10^10)
                -0.0000
    Dipole Moment (Debye)
         X       0.6830      Y       3.4385      Z       2.5330
       Tot       4.3250
    Quadrupole Moments (Debye-Ang)
        XX    -156.8539     XY       1.7029     YY    -154.6032
        XZ      -3.0436     YZ       8.0953     ZZ    -170.6991
    Octopole Moments (Debye-Ang^2)
       XXX     163.7145    XXY      -3.4773    XYY     -19.0139
       YYY     -37.3200    XXZ      36.8578    XYZ       5.8042
       YYZ     -20.6831    XZZ      17.7315    YZZ       0.9420
       ZZZ      10.8641
    Hexadecapole Moments (Debye-Ang^3)
      XXXX  -15480.4377   XXXY    -374.7162   XXYY   -3050.5369
      XYYY     -87.1969   YYYY   -3056.7711   XXXZ    -140.6834
      XXYZ     100.2457   XYYZ      38.2640   YYYZ     -39.3050
      XXZZ   -2945.2504   XYZZ     -87.3917   YYZZ    -732.9522
      XZZZ     -20.0668   YZZZ     -45.9519   ZZZZ   -1181.8467
 -----------------------------------------------------------------
 Calculating analytic gradient of the SCF energy
 Gradient of SCF Energy
            1           2           3           4           5           6
    1  -0.0014280  -0.0026533   0.0061853  -0.0060913   0.0046039  -0.0033578
    2  -0.0003556   0.0000725   0.0011981  -0.0025968   0.0006739  -0.0025620
    3   0.0011170  -0.0002153  -0.0001905  -0.0011820   0.0012459  -0.0004137
            7           8           9          10          11          12
    1   0.0003682  -0.0008278   0.0017308  -0.0030748  -0.0001015   0.0003065
    2   0.0006123   0.0086105  -0.0144869   0.0063183   0.0016383   0.0011620
    3  -0.0012767   0.0033757  -0.0061474   0.0005255  -0.0001927  -0.0023984
           13          14          15          16          17          18
    1   0.0002486  -0.0001786   0.0006817   0.0000960   0.0031333   0.0000399
    2  -0.0002755  -0.0001682  -0.0007288   0.0001967  -0.0022734  -0.0000122
    3   0.0002626  -0.0002472  -0.0001038   0.0004665   0.0048985   0.0000471
           19          20          21          22          23          24
    1   0.0000455   0.0001896  -0.0003119   0.0002964  -0.0008922   0.0009516
    2   0.0008194  -0.0001769  -0.0004674   0.0002675  -0.0003130  -0.0001461
    3  -0.0009666  -0.0001069  -0.0000625   0.0006997  -0.0002100   0.0002541
           25          26          27          28          29          30
    1   0.0004351   0.0011353  -0.0001108   0.0000932   0.0000000   0.0000243
    2   0.0001468   0.0006792  -0.0001078  -0.0000567   0.0000234   0.0001682
    3   0.0001614  -0.0005293   0.0000048   0.0001167  -0.0000442  -0.0000398
           31          32          33          34          35          36
    1  -0.0000413   0.0022465   0.0004322  -0.0009961  -0.0002702   0.0002675
    2  -0.0000571   0.0032207   0.0002202  -0.0003752  -0.0000932   0.0003129
    3   0.0002331  -0.0008343  -0.0000182   0.0008156   0.0001090  -0.0003865
           37          38          39          40          41          42
    1   0.0003098  -0.0002743   0.0004683  -0.0008717   0.0000241  -0.0000539
    2  -0.0015491   0.0001479   0.0003363   0.0014917   0.0000280  -0.0000130
    3   0.0009691   0.0008927  -0.0009872  -0.0005237   0.0000320  -0.0000501
           43          44          45          46          47          48
    1  -0.0000389   0.0000458  -0.0000749  -0.0001052  -0.0000633  -0.0002320
    2  -0.0000612   0.0000357   0.0000409   0.0001011  -0.0001332   0.0000642
    3   0.0001191  -0.0000464   0.0000861  -0.0000966   0.0000288   0.0001538
           49          50          51          52          53          54
    1  -0.0000750   0.0000241  -0.0000550  -0.0000013  -0.0000579  -0.0007519
    2  -0.0000739  -0.0000099  -0.0000037   0.0000096   0.0002837  -0.0007287
    3  -0.0000696   0.0000157  -0.0000419   0.0000336   0.0006188  -0.0004229
           55          56
    1   0.0001941  -0.0015867
    2  -0.0000437  -0.0010106
    3  -0.0002182   0.0007398
 Max gradient component =       1.449E-02
 RMS gradient           =       1.916E-03
 Gradient time:  CPU 29.21 s  wall 0.62 s
 Geometry Optimization Parameters
   NAtoms,    NIC,     NZ,  NCons,   NDum,   NFix, NCnnct, MaxDiis
       56     458       0       0       0       0       0       0

 Cartesian Hessian Update
 Hessian Updated using BFGS Update
**WARNING** Hereditary positive definiteness endangered


** GEOMETRY OPTIMIZATION IN DELOCALIZED INTERNAL COORDINATES **
   Searching for a Minimum

   Optimization Cycle:   3

                       Coordinates (Angstroms)
     ATOM                X               Y               Z
      1  O        -3.4114993303   -2.3526481985    1.8082941944
      2  C        -3.6776973519   -1.5357194366    0.8981238412
      3  C        -3.6111169716    0.0283298624    0.9942637309
      4  C        -3.3759374271    0.7700973295   -0.3808469324
      5  C        -2.8070002710   -0.0607942596   -1.6062465420
      6  O        -1.7888831803   -1.0648203789   -1.3816061276
      7  C        -0.7484445981   -0.6211497481   -0.4263576417
      8  C         0.2530038428   -1.8319553714   -0.3004992392
      9  O         1.3499372187   -1.5550350317    0.6395533576
     10  C         2.4662811607   -0.8821768112   -0.0148453114
     11  C         2.8097413541    0.5096943763    0.6332592437
     12  C         4.3619477245    0.7544597839    0.8661121310
     13  C         5.2396204600   -0.5364875386    0.6637719257
     14  O         5.0260390603   -1.6599998010    1.1690447256
     15  O        -4.1812350759   -1.8906465931   -0.3918988793
     16  O         6.3757649294   -0.2289915141   -0.1472252587
     17  O         3.1224442605   -1.4218898635   -0.9303023333
     18  C         7.1998502743   -1.4450864655   -0.3371165290
     19  C         2.5054112730    1.6675775408   -0.4253945311
     20  C         2.5535622278    3.0580102963    0.3241528610
     21  C         4.1058648667    3.2711023520    0.4701062877
     22  C         4.6548141289    1.9301167863   -0.1556585969
     23  O         3.7151671223    1.6691274230   -1.2718284634
     24  H         2.2298557343    0.6272176701    1.5648759630
     25  H         4.5316331426    1.0958236130    1.9049407558
     26  H         1.6084774927    1.5058461558   -1.0533163266
     27  H         2.0896492377    3.8447929619   -0.2916715094
     28  H         2.0363701540    3.0187144161    1.2962043524
     29  H         4.4489462026    4.1370775852   -0.1182679326
     30  H         4.4224902168    3.4061196356    1.5165876535
     31  H         5.6983177596    1.9577120510   -0.5222879979
     32  O        -3.2212009309    0.1045659643   -2.7735416010
     33  C        -4.2389815450   -3.3614056380   -0.5488395875
     34  C        -5.0834314870    0.5402410360    1.3372627406
     35  C        -5.0560517411    2.0968047370    1.6183654212
     36  C        -4.9879998232    2.6744715014    0.1544739041
     37  C        -4.8326222479    1.3419835670   -0.6749880122
     38  O        -5.7545673846    0.4185053976    0.0252769301
     39  H        -2.8746555546    0.3153916540    1.7643688732
     40  H        -2.6869153194    1.6229761433   -0.2255427655
     41  H        -5.2498482964   -3.6325517841   -0.9091656554
     42  H        -5.6057240926   -0.0667314021    2.1024474396
     43  H        -5.9735939886    2.4110375209    2.1403728322
     44  H        -4.1864449233    2.3874051168    2.2296854283
     45  H        -5.9255931856    3.1858912595   -0.1168166021
     46  H        -4.1474969308    3.3703280634    0.0032242813
     47  H        -5.0769636394    1.4007178953   -1.7537866800
     48  H        -4.0322110169   -3.8474336996    0.4261498552
     49  H        -3.4840180315   -3.6757967068   -1.2970176730
     50  H         8.0459021102   -1.1421462193   -0.9809446195
     51  H         6.6221480843   -2.2507442999   -0.8343040350
     52  H         7.5859483980   -1.8316676405    0.6283445989
     53  H        -0.3048448712   -2.6936764701    0.1232122145
     54  H         0.6187241875   -2.1181594271   -1.3119724336
     55  H        -1.1551634841   -0.3811585462    0.5771105632
     56  H        -0.2244543533    0.2798443462   -0.8092085036
   Point Group: c1    Number of degrees of freedom:   162


   Energy is  -1510.250049088

 Hessian Updated using BFGS Update

152 Hessian modes will be used to form the next step
  Hessian Eigenvalues:
     0.000000    0.002026    0.002138    0.002506    0.002708    0.002840
     0.004077    0.004421    0.004902    0.004931    0.005044    0.005520
     0.006708    0.006841    0.008554    0.011604    0.011759    0.014315
     0.021619    0.022054    0.025760    0.027125    0.030077    0.030811
     0.031708    0.035008    0.036089    0.040280    0.040925    0.042112
     0.042340    0.044409    0.045734    0.048022    0.050552    0.051224
     0.052631    0.053407    0.053827    0.054620    0.054956    0.055822
     0.056321    0.056754    0.058364    0.058376    0.058835    0.059970
     0.060650    0.062673    0.063369    0.063802    0.063991    0.064410
     0.069655    0.070014    0.072875    0.073379    0.090521    0.092023
     0.092806    0.093048    0.095657    0.096844    0.097473    0.100228
     0.102023    0.102714    0.104509    0.104749    0.112423    0.113706
     0.122028    0.123591    0.133356    0.137518    0.143464    0.157929
     0.158790    0.159995    0.160001    0.160137    0.165532    0.185705
     0.216635    0.218201    0.219952    0.223848    0.226435    0.231140
     0.238259    0.239016    0.239490    0.239587    0.243272    0.244604
     0.247017    0.247829    0.249077    0.249668    0.249935    0.249940
     0.253185    0.253366    0.254840    0.256206    0.257080    0.260819
     0.281820    0.293581    0.294831    0.306840    0.308990    0.322694
     0.325063    0.325889    0.326749    0.326993    0.327243    0.327375
     0.327707    0.328485    0.328556    0.328667    0.329320    0.329388
     0.329677    0.330020    0.330818    0.332800    0.332998    0.334656
     0.334749    0.334889    0.334923    0.334984    0.335020    0.335095
     0.335153    0.344271    0.344642    0.345545    0.347568    0.370853
     0.384360    0.410637    0.410791    0.824500    0.831274    0.832497
     0.834744    8.711549
**WARNING** Magnitude of eigenvalue   1 too small.  Replaced by     0.000100

 Minimum Search - Taking Simple RFO Step
 Searching for Lamda that Minimizes Along All modes
 Value Taken    Lamda =  -0.01654488
 Calculated Step too Large.  Step scaled by  0.312778
 Step Taken.  Stepsize is  0.300000

                             Maximum     Tolerance    Cnvgd?
         Gradient           0.009296      0.000300      NO
         Displacement       0.092625      0.001200      NO
         Energy change     -0.004773      0.000001      NO


 New Cartesian Coordinates Obtained by Inverse Iteration

 Displacement from previous Coordinates is:  2.778737
 Adding empirical dispersion correction 
 ----------------------------------------------------------------
 Doing -D3(op) with
 s6 =   1.00000
 s8 =   0.78311
 a1 =   0.30000
 a2 =   4.25000
 n  =  10.00000
 -D3 energy without 3body term =     -0.0684996887 hartrees
 ----------------------------------------------------------------
             Standard Nuclear Orientation (Angstroms)
    I     Atom           X                Y                Z
 ----------------------------------------------------------------
    1      O      -3.3952868105    -2.2933312266     1.8746672962
    2      C      -3.6931584574    -1.5190641270     0.9377208832
    3      C      -3.6315754670     0.0467312977     0.9590256159
    4      C      -3.3682331792     0.7001842233    -0.4530583316
    5      C      -2.8348447020    -0.2355208049    -1.6139175147
    6      O      -1.7931713403    -1.1969563687    -1.3229269104
    7      C      -0.7703412755    -0.6650986565    -0.3954239635
    8      C       0.2603451118    -1.8383592000    -0.1881477861
    9      O       1.3329757826    -1.4545644954     0.7407951145
   10      C       2.4031073194    -0.7833194627     0.0194921617
   11      C       2.8311953789     0.5537045420     0.7235246602
   12      C       4.3997629256     0.7351029409     0.8827589856
   13      C       5.2239531376    -0.5618478627     0.5408590652
   14      O       5.0130044311    -1.7094493022     0.9899829454
   15      O      -4.1909043401    -1.9326539579    -0.3371834278
   16      O       6.3139453488    -0.2313338827    -0.3228543288
   17      O       2.9713505903    -1.2915176443    -0.9701047897
   18      C       7.0888332749    -1.4528521018    -0.6416036376
   19      C       2.4921628356     1.7859020883    -0.2292819926
   20      C       2.6311912990     3.1190974764     0.6079859386
   21      C       4.1960001085     3.2793621995     0.6683804150
   22      C       4.6631698990     1.9696611901    -0.0786248849
   23      O       3.6479713045     1.8128015357    -1.1484361652
   24      H       2.3155568587     0.6226702496     1.6969683907
   25      H       4.6423236766     1.0018779149     1.9288321349
   26      H       1.5497623906     1.6893068125    -0.8040497845
   27      H       2.1543193940     3.9590920028     0.0783003264
   28      H       2.1751952835     3.0262371761     1.6066764818
   29      H       4.5289814208     4.1743275509     0.1189098312
   30      H       4.5808287885     3.3326086956     1.6992541209
   31      H       5.6822764869     1.9952302294    -0.5082804421
   32      O      -3.2691693442    -0.1690357328    -2.7835877561
   33      C      -4.2236468564    -3.4093205938    -0.4377034768
   34      C      -5.0956092216     0.5974620620     1.2639871335
   35      C      -5.0453888703     2.1681815304     1.4505405846
   36      C      -4.9595769317     2.6545879292    -0.0458391822
   37      C      -4.8181333536     1.2714763228    -0.7905217685
   38      O      -5.7593804216     0.4071702458    -0.0424964323
   39      H      -2.8918623788     0.3653861844     1.7137021304
   40      H      -2.6671359485     1.5517442712    -0.3581215424
   41      H      -5.2299273452    -3.7113936193    -0.7861506893
   42      H      -5.6314841863     0.0447360545     2.0602187950
   43      H      -5.9607562044     2.5276129076     1.9463123008
   44      H      -4.1747649394     2.4821497418     2.0487415425
   45      H      -5.8879693227     3.1617911846    -0.3542432602
   46      H      -4.1079323190     3.3274071712    -0.2340675603
   47      H      -5.0559744303     1.2639777879    -1.8723669504
   48      H      -4.0072846312    -3.8548199808     0.5544071585
   49      H      -3.4639275326    -3.7389954845    -1.1744160280
   50      H       7.9000545641    -1.1308701865    -1.3200703522
   51      H       6.4573506943    -2.2108994171    -1.1481386781
   52      H       7.5251376139    -1.9093472168     0.2705026800
   53      H      -0.2743327470    -2.6890991074     0.2849682451
   54      H       0.6474401068    -2.1749849793    -1.1755396117
   55      H      -1.1910406875    -0.3735986220     0.5890757805
   56      H      -0.2620672113     0.2237637112    -0.8313456855
 ----------------------------------------------------------------
 Molecular Point Group                 C1    NOp =  1
 Largest Abelian Subgroup              C1    NOp =  1
 Nuclear Repulsion Energy =  3089.6222982758 hartrees
 There are      113 alpha and      113 beta electrons
 Applying Cartesian multipole field
    Component          Value
    ---------          -----
     (2,0,0)        1.00000E-12
     (0,2,0)        2.00000E-11
     (0,0,2)       -3.00000E-11
 Nucleus-field energy     =     0.0000000375 hartrees
 Requested basis set is STO-3G
 There are 86 shells and 176 basis functions
 A cutoff of  1.0D-12 yielded   2118 shell pairs
 There are      9774 function pairs
 Smallest overlap matrix eigenvalue = 2.13E-01
 Guess MOs from SCF MO coefficient file
 Reading MOs from coefficient file
 Reading MOs from coefficient file
[...]
      6  O        -1.5225318048   -1.2826530330   -1.4517139289
      7  C        -0.7412937921   -0.3639811013   -0.5942239122
      8  C         0.7113490228   -0.9626120582   -0.5701778868
      9  O         1.5782215918   -0.2852033084    0.4219617096
     10  C         2.0393864112    0.9775320570   -0.0869922962
     11  C         3.0323197505    1.5828338126    0.9662854357
     12  C         4.2320067364    0.6129820765    1.3347844977
     13  C         4.2085147332   -0.7492899154    0.5624926442
     14  O         4.3082137026   -1.8981160954    1.0430951827
     15  O        -3.7823733399   -2.3741418627    0.1315612434
     16  O         4.0950717402   -0.4685229872   -0.8402655147
     17  O         1.6604396972    1.4826048087   -1.1640238507
     18  C         4.0914061087   -1.7295553287   -1.6149275137
     19  C         3.8116093705    2.8285228167    0.3753629083
     20  C         4.4645798363    3.6207211324    1.5746772986
     21  C         5.6555896034    2.6632603818    1.9559907426
     22  C         5.4715751110    1.5084582147    0.8931791723
     23  O         4.9734513058    2.2138324842   -0.3080420359
     24  H         2.4558994863    1.8507904223    1.8711350143
     25  H         4.2544988916    0.3867144595    2.4148612888
     26  H         3.2176814007    3.4310141161   -0.3393555982
     27  H         4.8290674397    4.6032258018    1.2350157653
     28  H         3.7580267095    3.7729562050    2.4061693577
     29  H         6.6307525410    3.1578336310    1.8219656114
     30  H         5.5879259122    2.2895090417    2.9903140329
     31  H         6.3892331514    0.9363553625    0.6549319175
     32  O        -3.4673022400   -1.4629423977   -2.6587158816
     33  C        -3.2888389228   -3.7348673037    0.4471289589
     34  C        -5.3603678330    0.1551677754    0.6984306893
     35  C        -5.7057722200    1.6960733103    0.6363932623
     36  C        -5.4456299896    2.0041599420   -0.8848031915
     37  C        -4.9851424470    0.5884227864   -1.4067101644
     38  O        -5.8038143194   -0.3581666365   -0.6138839922
     39  H        -3.2769801930    0.7334183152    1.2970361298
     40  H        -2.8795075452    1.2206345299   -1.0006787189
     41  H        -4.1577787381   -4.4156357701    0.5324257932
     42  H        -5.8446898378   -0.4051382724    1.5218261246
     43  H        -6.7598578764    1.8628670417    0.9096940935
     44  H        -5.0682572460    2.2920529123    1.3088526360
     45  H        -6.3686795485    2.3206240081   -1.3957548766
     46  H        -4.6745064264    2.7759456873   -1.0382259715
     47  H        -5.1209280079    0.3986192174   -2.4889488106
     48  H        -2.7218564660   -3.7131723593    1.3997207019
     49  H        -2.6347360145   -4.0735988718   -0.3804740455
     50  H         3.8762185860   -1.4448235930   -2.6613186661
     51  H         3.3159331019   -2.4333782203   -1.2508549387
     52  H         5.0763262663   -2.2377531811   -1.5662698765
     53  H         0.6667361727   -2.0244168247   -0.2542306343
     54  H         1.1490711165   -0.8984927927   -1.5886509281
     55  H        -1.1340194208   -0.3171300520    0.4435883800
     56  H        -0.7041345559    0.6641187799   -1.0136070031
   Point Group: c1    Number of degrees of freedom:   162


   Energy is  -1510.277626775

 Hessian Updated using BFGS Update

162 Hessian modes will be used to form the next step
  Hessian Eigenvalues:
     0.001344    0.002154    0.002478    0.002700    0.003872    0.004094
     0.004908    0.005505    0.005532    0.007824    0.010132    0.011987
     0.016237    0.020824    0.021309    0.021859    0.022969    0.025619
     0.026621    0.030392    0.030866    0.032431    0.033136    0.035205
     0.035982    0.037620    0.039703    0.041549    0.042214    0.042996
     0.044979    0.045513    0.046874    0.048502    0.049323    0.051242
     0.051797    0.053216    0.054697    0.055427    0.055738    0.056000
     0.056475    0.057370    0.057673    0.058216    0.058979    0.060472
     0.061938    0.063067    0.063600    0.064188    0.064528    0.064762
     0.067697    0.069721    0.070808    0.073011    0.073984    0.074525
     0.081817    0.092983    0.093405    0.095204    0.096971    0.098539
     0.101421    0.101586    0.102406    0.103325    0.105533    0.106147
     0.113624    0.115694    0.119407    0.131483    0.138369    0.141760
     0.148961    0.158358    0.160234    0.160471    0.160980    0.161851
     0.164974    0.168284    0.174365    0.180451    0.193853    0.213105
     0.219895    0.228718    0.229296    0.234227    0.237500    0.239317
     0.239730    0.241254    0.242027    0.245143    0.247025    0.247403
     0.249108    0.250955    0.251524    0.253089    0.254080    0.255281
     0.255945    0.257088    0.258695    0.259368    0.267361    0.271235
     0.280347    0.291472    0.295087    0.301297    0.304020    0.314299
     0.316077    0.324235    0.325164    0.326171    0.326677    0.327481
     0.328078    0.328370    0.328584    0.329035    0.329274    0.329393
     0.329932    0.330454    0.330803    0.331476    0.333336    0.333905
     0.334741    0.334902    0.334988    0.335097    0.335118    0.335205
     0.335486    0.335666    0.339127    0.341190    0.345711    0.349957
     0.356696    0.364220    0.383164    0.413831    0.424541    0.467994
     0.512388    0.633413    0.828374    0.834641    0.835864    0.843794

 Minimum Search - Taking Simple RFO Step
 Searching for Lamda that Minimizes Along All modes
 Value Taken    Lamda =   0.00000000
 Step Taken.  Stepsize is  0.004411

                             Maximum     Tolerance    Cnvgd?
         Gradient           0.000043      0.000300     YES
         Displacement       0.001214      0.001200      NO
         Energy change     -0.000001      0.000001     YES

 Final energy is   -1510.27762677469     


 ******************************
 **  OPTIMIZATION CONVERGED  **
 ******************************

                       Coordinates (Angstroms)
     ATOM                X               Y               Z
      1  O        -2.6469491317   -1.7102734432    2.1112801451
      2  C        -3.3144786111   -1.4247713785    1.0911318753
      3  C        -3.7744732538   -0.0004082201    0.6387336748
      4  C        -3.5077415368    0.3184829082   -0.8951562948
      5  C        -2.8751486084   -0.8675778352   -1.7339319710
      6  O        -1.5225318048   -1.2826530330   -1.4517139289
      7  C        -0.7412937921   -0.3639811013   -0.5942239122
      8  C         0.7113490228   -0.9626120582   -0.5701778868
      9  O         1.5782215918   -0.2852033084    0.4219617096
     10  C         2.0393864112    0.9775320570   -0.0869922962
     11  C         3.0323197505    1.5828338126    0.9662854357
     12  C         4.2320067364    0.6129820765    1.3347844977
     13  C         4.2085147332   -0.7492899154    0.5624926442
     14  O         4.3082137026   -1.8981160954    1.0430951827
     15  O        -3.7823733399   -2.3741418627    0.1315612434
     16  O         4.0950717402   -0.4685229872   -0.8402655147
     17  O         1.6604396972    1.4826048087   -1.1640238507
     18  C         4.0914061087   -1.7295553287   -1.6149275137
     19  C         3.8116093705    2.8285228167    0.3753629083
     20  C         4.4645798363    3.6207211324    1.5746772986
     21  C         5.6555896034    2.6632603818    1.9559907426
     22  C         5.4715751110    1.5084582147    0.8931791723
     23  O         4.9734513058    2.2138324842   -0.3080420359
     24  H         2.4558994863    1.8507904223    1.8711350143
     25  H         4.2544988916    0.3867144595    2.4148612888
     26  H         3.2176814007    3.4310141161   -0.3393555982
     27  H         4.8290674397    4.6032258018    1.2350157653
     28  H         3.7580267095    3.7729562050    2.4061693577
     29  H         6.6307525410    3.1578336310    1.8219656114
     30  H         5.5879259122    2.2895090417    2.9903140329
     31  H         6.3892331514    0.9363553625    0.6549319175
     32  O        -3.4673022400   -1.4629423977   -2.6587158816
     33  C        -3.2888389228   -3.7348673037    0.4471289589
     34  C        -5.3603678330    0.1551677754    0.6984306893
     35  C        -5.7057722200    1.6960733103    0.6363932623
     36  C        -5.4456299896    2.0041599420   -0.8848031915
     37  C        -4.9851424470    0.5884227864   -1.4067101644
     38  O        -5.8038143194   -0.3581666365   -0.6138839922
     39  H        -3.2769801930    0.7334183152    1.2970361298
     40  H        -2.8795075452    1.2206345299   -1.0006787189
     41  H        -4.1577787381   -4.4156357701    0.5324257932
     42  H        -5.8446898378   -0.4051382724    1.5218261246
     43  H        -6.7598578764    1.8628670417    0.9096940935
     44  H        -5.0682572460    2.2920529123    1.3088526360
     45  H        -6.3686795485    2.3206240081   -1.3957548766
     46  H        -4.6745064264    2.7759456873   -1.0382259715
     47  H        -5.1209280079    0.3986192174   -2.4889488106
     48  H        -2.7218564660   -3.7131723593    1.3997207019
     49  H        -2.6347360145   -4.0735988718   -0.3804740455
     50  H         3.8762185860   -1.4448235930   -2.6613186661
     51  H         3.3159331019   -2.4333782203   -1.2508549387
     52  H         5.0763262663   -2.2377531811   -1.5662698765
     53  H         0.6667361727   -2.0244168247   -0.2542306343
     54  H         1.1490711165   -0.8984927927   -1.5886509281
     55  H        -1.1340194208   -0.3171300520    0.4435883800
     56  H        -0.7041345559    0.6641187799   -1.0136070031

Z-matrix Print:
$molecule
0 1
O 
C  1 1.437431
O  2 1.248477 1 124.295049
C  1 1.481449 2 110.627758 3 6.055159 0
H  4 1.108712 1 105.700882 2 162.606867 0
H  4 1.110405 1 110.927821 2 44.096153 0
C  2 1.568981 1 107.712952 3 178.149092 0
H  7 1.105809 2 108.234997 1 -67.974668 0
C  4 1.571340 1 112.147772 2 -78.264447 0
H  9 1.110623 4 109.187991 1 -50.016982 0
H  9 1.110969 4 109.111473 1 69.019997 0
O  9 1.479723 4 105.095461 1 -170.794040 0
C  12 1.442743 9 115.449941 4 -174.237626 0
O  13 1.249132 12 116.880740 9 165.838284 0
C  7 1.583737 2 111.368544 1 168.754744 0
H  15 1.107506 7 113.878591 2 33.483138 0
O  15 1.481473 7 103.394878 2 -86.338981 0
C  17 1.479396 15 95.010218 7 -56.665172 0
H  18 1.107321 17 110.528695 15 -179.887609 0
C  15 1.578703 7 108.346449 2 164.228595 0
H  20 1.101606 15 110.497477 7 -167.844798 0
H  20 1.101713 15 112.174821 7 -46.297863 0
C  20 1.575003 15 101.048612 7 74.003969 0
H  23 1.101593 20 111.532090 15 118.003882 0
H  23 1.101859 20 112.769876 15 -119.333278 0
C  13 1.584443 12 119.085875 9 -12.754330 0
H  26 1.104396 13 109.498887 12 57.561146 0
C  7 1.586081 2 113.499720 1 55.239384 0
H  28 1.103752 7 111.599409 2 -121.375739 0
C  28 1.566133 7 113.951804 2 0.918707 0
O  30 1.249288 28 127.516008 7 -129.884020 0
O  30 1.435071 28 108.241499 7 52.064048 0
C  32 1.479972 30 110.190117 28 179.070438 0
H  33 1.105582 32 106.048308 30 173.135853 0
H  33 1.108726 32 111.761697 30 53.552713 0
H  33 1.109369 32 111.418092 30 -67.900473 0
C  26 1.586590 13 109.174768 12 179.389129 0
H  37 1.107115 26 113.591790 13 -32.710758 0
O  37 1.481495 26 103.492270 13 86.817080 0
C  39 1.477270 37 95.019368 26 57.024152 0
H  40 1.107470 39 110.694841 37 -179.984423 0
C  37 1.577576 26 108.531430 13 -163.588020 0
H  42 1.101472 37 110.425150 26 167.619277 0
H  42 1.101737 37 112.227257 26 46.163640 0
C  42 1.573731 37 101.090003 26 -74.274635 0
H  45 1.101640 42 111.612710 37 -117.863405 0
H  45 1.101734 42 112.857269 37 119.389036 0
C  26 1.589231 13 115.324952 12 -67.905248 0
H  48 1.104248 26 111.495818 13 124.506150 0
C  48 1.563672 26 114.371426 13 2.313302 0
O  50 1.252122 48 126.887718 26 132.794216 0
O  50 1.428638 48 108.339907 26 -46.987420 0
C  52 1.481463 50 110.989111 48 175.584344 0
H  53 1.107148 52 108.645977 50 124.368003 0
H  53 1.107933 52 108.565026 50 -116.686726 0
H  53 1.108770 52 109.596236 50 3.766137 0
$end

 
 --------------------------------------------------------------
 
                    Orbital Energies (a.u.)
 --------------------------------------------------------------
 
 Alpha MOs
 -- Occupied --
-18.942 -18.938 -18.934 -18.928 -18.891 -18.890 -18.883 -18.881
-18.875 -18.872 -10.107 -10.106 -10.100 -10.099 -10.078 -10.076
-10.065 -10.064 -10.063 -10.061 -10.060 -10.059 -10.044 -10.042
-10.040 -10.039 -10.024 -10.023 -10.022 -10.022  -1.021  -1.018
 -1.008  -1.002  -0.973  -0.972  -0.944  -0.942  -0.936  -0.934
 -0.767  -0.767  -0.729  -0.726  -0.713  -0.708  -0.703  -0.661
 -0.661  -0.615  -0.603  -0.590  -0.554  -0.547  -0.541  -0.539
 -0.516  -0.513  -0.489  -0.481  -0.473  -0.468  -0.454  -0.446
 -0.437  -0.434  -0.428  -0.419  -0.417  -0.413  -0.410  -0.404
 -0.394  -0.387  -0.376  -0.372  -0.366  -0.360  -0.359  -0.350
 -0.346  -0.340  -0.339  -0.334  -0.333  -0.328  -0.319  -0.312
 -0.311  -0.308  -0.308  -0.301  -0.298  -0.296  -0.293  -0.281
 -0.277  -0.258  -0.253  -0.252  -0.241  -0.237  -0.236  -0.184
 -0.178  -0.177  -0.171  -0.164  -0.162  -0.151  -0.147  -0.146
 -0.145
 -- Virtual --
  0.087   0.088   0.107   0.109   0.204   0.238   0.242   0.244
  0.252   0.277   0.283   0.287   0.291   0.308   0.322   0.329
  0.331   0.333   0.344   0.346   0.352   0.353   0.356   0.359
  0.364   0.372   0.382   0.391   0.396   0.399   0.405   0.409
  0.413   0.413   0.420   0.423   0.425   0.426   0.427   0.431
  0.433   0.434   0.441   0.443   0.447   0.450   0.457   0.464
  0.466   0.466   0.475   0.487   0.490   0.503   0.505   0.535
  0.538   0.549   0.550   0.628   0.638   0.639   0.648
 --------------------------------------------------------------
 
          Ground-State Mulliken Net Atomic Charges

     Atom                 Charge (a.u.)
  ----------------------------------------
      1 O                    -0.215961
      2 C                     0.205809
      3 C                    -0.082188
      4 C                    -0.084806
      5 C                     0.215058
      6 O                    -0.177129
      7 C                    -0.054021
      8 C                    -0.046241
      9 O                    -0.174820
     10 C                     0.216258
     11 C                    -0.078204
     12 C                    -0.078780
     13 C                     0.211988
     14 O                    -0.212607
     15 O                    -0.161881
     16 O                    -0.169615
     17 O                    -0.212362
     18 C                    -0.128822
     19 C                     0.024694
     20 C                    -0.143994
     21 C                    -0.143798
     22 C                     0.026062
     23 O                    -0.185383
     24 H                     0.084704
     25 H                     0.085987
     26 H                     0.089561
     27 H                     0.078516
     28 H                     0.072882
     29 H                     0.078517
     30 H                     0.074184
     31 H                     0.083133
     32 O                    -0.198706
     33 C                    -0.134270
     34 C                     0.027017
     35 C                    -0.143788
     36 C                    -0.144577
     37 C                     0.026365
     38 O                    -0.183497
     39 H                     0.082445
     40 H                     0.079193
     41 H                     0.089887
     42 H                     0.083670
     43 H                     0.079076
     44 H                     0.073159
     45 H                     0.079415
     46 H                     0.072859
     47 H                     0.093388
     48 H                     0.100601
     49 H                     0.092554
     50 H                     0.092166
     51 H                     0.089104
     52 H                     0.087836
     53 H                     0.094092
     54 H                     0.094932
     55 H                     0.083962
     56 H                     0.086372
  ----------------------------------------
  Sum of atomic charges =     0.000000

 -----------------------------------------------------------------
                    Cartesian Multipole Moments
 -----------------------------------------------------------------
    Charge (ESU x 10^10)
                 0.0000
    Dipole Moment (Debye)
         X       0.6007      Y       2.5515      Z       2.3692
       Tot       3.5333
    Quadrupole Moments (Debye-Ang)
        XX    -162.1360     XY      -6.6951     YY    -155.2304
        XZ      -4.2974     YZ       5.1731     ZZ    -166.8693
    Octopole Moments (Debye-Ang^2)
       XXX      85.0752    XXY      32.8144    XYY      -5.7994
       YYY     -75.3895    XXZ      57.2416    XYZ      58.7298
       YYZ       4.7006    XZZ      34.3631    YZZ      -0.9388
       ZZZ      -8.8269
    Hexadecapole Moments (Debye-Ang^3)
      XXXX  -15482.4779   XXXY   -1264.3694   XXYY   -3076.0372
      XYYY    -913.0600   YYYY   -3077.1192   XXXZ    -768.4550
      XXYZ     -25.0600   XYYZ    -254.1671   YYYZ    -254.7169
      XXZZ   -2844.3349   XYZZ    -414.7517   YYZZ    -825.1107
      XZZZ    -677.1048   YZZZ    -263.2631   ZZZZ   -1551.2034
 -----------------------------------------------------------------
Archival summary:
1\1\vega02.cac.cornell.edu\OPT\ProcedureUnspecified\STO-3G\102026\jj585\SatJan1318:38:312018SatJan1318:38:312018\0\\#,OPT,ProcedureUnspecified,STO-3G,\\0,1\O\C,1,1.43743\O,2,1.24848,1,124.295\C,1,1.48145,2,110.628,3,6.05516,0\H,4,1.10871,1,105.701,2,162.607,0\H,4,1.1104,1,110.928,2,44.0962,0\C,2,1.56898,1,107.713,3,178.149,0\H,7,1.10581,2,108.235,1,-67.9747,0\C,4,1.57134,1,112.148,2,-78.2644,0\H,9,1.11062,4,109.188,1,-50.017,0\H,9,1.11097,4,109.111,1,69.02,0\O,9,1.47972,4,105.095,1,-170.794,0\C,12,1.44274,9,115.45,4,-174.238,0\O,13,1.24913,12,116.881,9,165.838,0\C,7,1.58374,2,111.369,1,168.755,0\H,15,1.10751,7,113.879,2,33.4831,0\O,15,1.48147,7,103.395,2,-86.339,0\C,17,1.4794,15,95.0102,7,-56.6652,0\H,18,1.10732,17,110.529,15,-179.888,0\C,15,1.5787,7,108.346,2,164.229,0\H,20,1.10161,15,110.497,7,-167.845,0\H,20,1.10171,15,112.175,7,-46.2979,0\C,20,1.575,15,101.049,7,74.004,0\H,23,1.10159,20,111.532,15,118.004,0\H,23,1.10186,20,112.77,15,-119.333,0\C,13,1.58444,12,119.086,9,-12.7543,0\H,26,1.1044,13,109.499,12,57.5611,0\C,7,1.58608,2,113.5,1,55.2394,0\H,28,1.10375,7,111.599,2,-121.376,0\C,28,1.56613,7,113.952,2,0.918707,0\O,30,1.24929,28,127.516,7,-129.884,0\O,30,1.43507,28,108.241,7,52.064,0\C,32,1.47997,30,110.19,28,179.07,0\H,33,1.10558,32,106.048,30,173.136,0\H,33,1.10873,32,111.762,30,53.5527,0\H,33,1.10937,32,111.418,30,-67.9005,0\C,26,1.58659,13,109.175,12,179.389,0\H,37,1.10711,26,113.592,13,-32.7108,0\O,37,1.4815,26,103.492,13,86.8171,0\C,39,1.47727,37,95.0194,26,57.0242,0\H,40,1.10747,39,110.695,37,-179.984,0\C,37,1.57758,26,108.531,13,-163.588,0\H,42,1.10147,37,110.425,26,167.619,0\H,42,1.10174,37,112.227,26,46.1636,0\C,42,1.57373,37,101.09,26,-74.2746,0\H,45,1.10164,42,111.613,37,-117.863,0\H,45,1.10173,42,112.857,37,119.389,0\C,26,1.58923,13,115.325,12,-67.9052,0\H,48,1.10425,26,111.496,13,124.506,0\C,48,1.56367,26,114.371,13,2.3133,0\O,50,1.25212,48,126.888,26,132.794,0\O,50,1.42864,48,108.34,26,-46.9874,0\C,52,1.48146,50,110.989,48,175.584,0\H,53,1.10715,52,108.646,50,124.368,0\H,53,1.10793,52,108.565,50,-116.687,0\H,53,1.10877,52,109.596,50,3.76614,0\\\@

 Total job time:  126.45s(wall), 6027.53s(cpu) 
 Sat Jan 13 18:38:31 2018

        *************************************************************
        *                                                           *
        *  Thank you very much for using Q-Chem.  Have a nice day.  *
        *                                                           *
        *************************************************************


0 sent ACK to 0 
now end server 0 ... 
