mFile = /opt/software/qchem/qchem-5.0.1//bin/mpi/machines
Process 0 of 1 is on vega02.cac.cornell.edu - thread support 0
initial socket setup ...start
initial socket setup ...done 
now start server 0 ... 
vega02.cac.cornell.edu 10.84.3
Q-Chem Developer Version! Running on 10.84.3.*
                  Welcome to Q-Chem
     A Quantum Leap Into The Future Of Chemistry


 Q-Chem 5.0, Q-Chem, Inc., Pleasanton, CA (2017)

 Yihan Shao,  Zhengting Gan,  E. Epifanovsky,  A. T. B. Gilbert,  M. Wormit,  
 J. Kussmann,  A. W. Lange,  A. Behn,  Jia Deng,  Xintian Feng,  D. Ghosh,  
 M. Goldey,  P. R. Horn,  L. D. Jacobson,  I. Kaliman,  T. Kus,  A. Landau,  
 Jie Liu,  E. I. Proynov,  R. M. Richard,  R. P. Steele,  E. J. Sundstrom,  
 H. L. Woodcock III,  P. M. Zimmerman,  D. Zuev,  B. Albrecht,  E. Alguire,  
 S. A. Baeppler,  Z. Benda,  Y. A. Bernard,  E. J. Berquist,  K. B. Bravaya,  
 D. Casanova,  Chun-Min Chang,  Yunqing Chen,  A. Chien,  K. D. Closser,  
 M. P. Coons,  S. Dasgupta,  M. Diedenhofen,  Hainam Do,  R. G. Edgar,  
 Po-Tung Fang,  S. Fatehi,  Qingguo Feng,  Qinghui Ge,  A. Ghysels,  
 J. Gomes,  J. Gonthier,  A. Gunina,  M. W. D. Hanson-Heine,  
 P. H. P. Harbach,  A. W. Hauser,  J. E. Herr,  E. G. Hohenstein,  
 Z. C. Holden,  Kerwin Hui,  T.-C. Jagau,  Hyunjun Ji,  B. Kaduk,  
 K. Khistyaev,  Jaehoon Kim,  P. Klunzinger,  K. Koh,  D. Kosenkov,  
 T. Kowalczyk,  C. M. Krauter,  A. Kunitsa,  Ka Un Lao,  A. Laurent,  
 K. V. Lawler,  Joonho Lee,  D. Lefrancois,  S. Lehtola,  D. S. Levine,  
 Yi-Pei Li,  You-Sheng Lin,  Fenglai Liu,  E. Livshits,  A. Luenser,  
 P. Manohar,  E. Mansoor,  S. F. Manzer,  Shan-Ping Mao,  Yuezhi Mao,  
 N. Mardirossian,  A. V. Marenich,  L. A. Martinez-Martinez,  S. A. Maurer,  
 N. J. Mayhall,  S. C. McKenzie,  J.-M. Mewes,  A. F. Morrison,  K. Nanda,  
 T. S. Nguyen-Beck,  R. Olivares-Amaya,  J. A. Parkhill,  T. M. Perrine,  
 F. Plasser,  S. Prager,  A. Prociuk,  D. R. Rehn,  F. Rob,  M. Schneider,  
 N. Sergueev,  S. M. Sharada,  S. Sharma,  D. W. Small,  T. Stauch,  
 T. Stein,  Yu-Chuan Su,  A. J. W. Thom,  T. Tsuchimochi,  L. Vogt,  
 O. Vydrov,  M. A. Watson,  J. Wenzel,  M. de Wergifosse,  T. A. Wesolowski,  
 A. White,  J. Witte,  A. Yamada,  Jun Yang,  K. Yao,  S. Yeganeh,  
 S. R. Yost,  Zhi-Qiang You,  A. Zech,  Igor Ying Zhang,  Xing Zhang,  
 Yan Zhao,  Ying Zhu,  B. R. Brooks,  G. K. L. Chan,  C. J. Cramer,  
 M. S. Gordon,  W. J. Hehre,  A. Klamt,  M. W. Schmidt,  C. D. Sherrill,  
 D. G. Truhlar,  A. Aspuru-Guzik,  R. Baer,  A. T. Bell,  N. A. Besley,  
 Jeng-Da Chai,  A. Dreuw,  B. D. Dunietz,  T. R. Furlani,  Chao-Ping Hsu,  
 Yousung Jung,  Jing Kong,  D. S. Lambrecht,  WanZhen Liang,  C. Ochsenfeld,  
 V. A. Rassolov,  L. V. Slipchenko,  J. E. Subotnik,  T. Van Voorhis,  
 J. M. Herbert,  A. I. Krylov,  P. M. W. Gill,  M. Head-Gordon

 Contributors to earlier versions of Q-Chem not listed above: 
 R. D. Adamson,  B. Austin,  J. Baker,  G. J. O. Beran,  K. Brandhorst,  
 S. T. Brown,  E. F. C. Byrd,  A. K. Chakraborty,  C.-L. Cheng,  
 Siu Hung Chien,  D. M. Chipman,  D. L. Crittenden,  H. Dachsel,  
 R. A. DiStasio Jr.,  R. J. Doerksen,  A. D. Dutoi,  L. Fusti-Molnar,  
 W. A. Goddard III,  A. Golubeva-Zadorozhnaya,  S. R. Gwaltney,  G. Hawkins,  
 A. Heyden,  S. Hirata,  G. Kedziora,  F. J. Keil,  C. Kelley,  Jihan Kim,  
 R. A. King,  R. Z. Khaliullin,  P. P. Korambath,  W. Kurlancheek,  
 A. M. Lee,  M. S. Lee,  S. V. Levchenko,  Ching Yeh Lin,  D. Liotard,  
 R. C. Lochan,  I. Lotan,  P. E. Maslen,  N. Nair,  D. P. O'Neill,  
 D. Neuhauser,  E. Neuscamman,  C. M. Oana,  R. Olson,  B. Peters,  
 R. Peverati,  P. A. Pieniazek,  Y. M. Rhee,  J. Ritchie,  M. A. Rohrdanz,  
 E. Rosta,  N. J. Russ,  H. F. Schaefer III,  N. E. Schultz,  N. Shenvi,  
 A. C. Simmonett,  A. Sodt,  D. Stuck,  K. S. Thanthiriwatte,  V. Vanovschi,  
 Tao Wang,  A. Warshel,  C. F. Williams,  Q. Wu,  X. Xu,  W. Zhang

 Please cite Q-Chem as follows:
 Y. Shao et al., Mol. Phys. 113, 184-215 (2015)
 DOI: 10.1080/00268976.2014.952696

 Q-Chem 5.0.1 for Intel X86 EM64T Linux

 Parts of Q-Chem use Armadillo 5.200.1 (Boston Tea Smuggler).
 http://arma.sourceforge.net/

 Q-Chem begins on Sat Jan 13 19:10:24 2018  

Host: vega02.cac.cornell.edu
0

     Scratch files written to /scratch/jj585/SOT1001/0175r.save//
 Parallel job on  1  processors

Checking the input file for inconsistencies... 	...done.

--------------------------------------------------------------
User input:
--------------------------------------------------------------
$molecule
0  1
O -6.6306857418 1.0932763683 0.4866547
C -5.6840963116 0.8654053794 -0.2944091732
C -5.0991296177 -0.5275817863 -0.7224499641
C -3.5761077595 -0.6901096754 -0.2969506399
C -2.9358227067 0.6121835409 0.3072682133
O -2.0097582961 1.1758529205 -0.6460665159
C -0.770427913 1.6339016569 0.0259373461
C 0.4388225893 0.8807495852 -0.6327003198
O 1.5862595402 1.0033735164 0.2999870095
C 2.7898951219 0.5556164717 -0.3460569261
C 3.972765481 0.7501571815 0.6689250095
C 5.1190584859 -0.3318746539 0.5784867706
C 4.7713861593 -1.7931236848 0.1217516304
O 5.5753341075 -2.7523091826 0.1282872603
O -4.8821831747 1.8804163257 -0.9123265707
O 3.3699232164 -1.9483980233 -0.1136634476
O 2.8496827376 0.2249376761 -1.5483838326
C 3.0634834674 -3.354688898 -0.4597919413
C 4.7819868189 2.0200999923 0.1428509675
C 5.964436621 2.3744651457 1.1313294717
C 7.0523121072 1.315782963 0.7116823018
C 6.2166667992 0.4334538947 -0.2936711852
O 5.4561440122 1.4538399083 -1.0502392263
H 3.5748114133 0.8682097684 1.6913248691
H 5.5345623136 -0.4669383593 1.5953371107
H 4.1415010766 2.8766474365 -0.1445620262
H 6.312173613 3.4061273769 0.9653023933
H 5.6588631799 2.2713036273 2.1851158176
H 7.8961288576 1.7946008281 0.1887704583
H 7.4433900579 0.7375113198 1.5637652035
H 6.8036227058 -0.2106201194 -0.9767307996
O -3.0761473493 1.0409026037 1.472996571
C -5.2950801045 3.2198207637 -0.4349080738
C -5.7736648166 -1.6823992783 0.1220616532
C -5.3696629762 -3.0763479919 -0.4997261003
C -3.8824005804 -3.2149594646 -0.0012643393
C -3.697676128 -1.8543874893 0.7805518684
O -5.0221273556 -1.6313719636 1.3991247928
H -5.2261161581 -0.6617387371 -1.8122167362
H -2.9601774522 -0.9962805057 -1.1601435823
H -5.1119230168 3.3311920955 0.6536285546
H -6.8546811481 -1.5308231387 0.3077792657
H -6.0077568851 -3.8792071126 -0.0980320803
H -5.45012252 -3.0770564768 -1.5985670876
H -3.7657051486 -4.0685471631 0.6855008014
H -3.161593998 -3.3238560859 -0.8271807907
H -2.9055486257 -1.8534085839 1.5544681647
H -6.3684528184 3.4125934861 -0.6358157702
H -4.674842697 3.9463121369 -0.9911422027
H 1.966481326 -3.4025182794 -0.5880496433
H 3.3770092389 -4.051149397 0.3447667314
H 3.560268604 -3.6588302807 -1.4034034543
H 0.173265437 -0.1897739846 -0.7803782254
H 0.6837505902 1.3086465414 -1.6280902458
H -0.8106160792 1.4243920749 1.1162836368
H -0.6552511744 2.7309959751 -0.1095366178
$end

$rem
JOBTYPE                   OPT
METHOD                    B3LYP
DFT_D                     d3_op
BASIS                     STO-3G
GEOM_OPT_MAX_CYCLES       100
GEOM_OPT_TOL_GRADIENT     300
GEOM_OPT_TOL_DISPLACEMENT 1200
GEOM_OPT_TOL_ENERGY       100
SYMMETRY                  False
THRESH                    12
SCF_CONVERGENCE           8
MAX_SUB_FILE_NUM          128
MEM_STATIC                400
MEM_TOTAL                 4000
$end
--------------------------------------------------------------
 Adding empirical dispersion correction 
 ----------------------------------------------------------------
 Doing -D3(op) with
 s6 =   1.00000
 s8 =   0.78311
 a1 =   0.30000
 a2 =   4.25000
 n  =  10.00000
 -D3 energy without 3body term =     -0.0640260553 hartrees
 ----------------------------------------------------------------
             Standard Nuclear Orientation (Angstroms)
    I     Atom           X                Y                Z
 ----------------------------------------------------------------
    1      O      -6.5570038953     1.3259488068     0.5308399680
    2      C      -5.6242703722     1.0642398961    -0.2562649374
    3      C      -5.0896794262    -0.3487986016    -0.6844622282
    4      C      -3.5699827574    -0.5614849787    -0.2693151338
    5      C      -2.8818406989     0.7200500358     0.3266223687
    6      O      -1.9441782085     1.2496699063    -0.6348647164
    7      C      -0.6853157923     1.6674177626     0.0270187927
    8      C       0.4930973535     0.8721903318    -0.6380257070
    9      O       1.6506883886     0.9584866909     0.2861440679
   10      C       2.8338741417     0.4687018330    -0.3671399576
   11      C       4.0298929644     0.6258941504     0.6388651393
   12      C       5.1383839739    -0.4944146379     0.5433898981
   13      C       4.7383828837    -1.9442971202     0.0933102600
   14      O       5.5095697635    -2.9300302813     0.0968835746
   15      O      -4.7930620192     2.0500078624    -0.8827535652
   16      O       3.3308270244    -2.0528333269    -0.1317123044
   17      O       2.8738400916     0.1330495746    -1.5689108589
   18      C       2.9746812942    -3.4488902601    -0.4716380850
   19      C       4.8776579592     1.8664419516     0.1034368245
   20      C       6.0784530807     2.1833120727     1.0824855221
   21      C       7.1269825186     1.0874482496     0.6581586629
   22      C       6.2548689733     0.2311759829    -0.3387159876
   23      O       5.5237543599     1.2746473550    -1.0927827252
   24      H       3.6435016359     0.7599759408     1.6637208076
   25      H       5.5563958503    -0.6407532407     1.5576489054
   26      H       4.2643581878     2.7433479025    -0.1818719256
   27      H       6.4595637465     3.2022217401     0.9110483155
   28      H       5.7771567760     2.0932728915     2.1387035736
   29      H       7.9826793232     1.5361653858     0.1279078143
   30      H       7.5044601326     0.4985479616     1.5090948709
   31      H       6.8148582962    -0.4341124037    -1.0240789057
   32      O      -2.9992542797     1.1563068470     1.4920869497
   33      C      -5.1571366453     3.4038203395    -0.4062475444
   34      C      -5.7966694843    -1.4779960454     0.1681099018
   35      C      -5.4443606168    -2.8863993846    -0.4525421823
   36      C      -3.9590717097    -3.0737860866     0.0357505454
   37      C      -3.7229790117    -1.7181768172     0.8123453899
   38      O      -5.0346812254    -1.4490021547     1.4396585058
   39      H      -5.2289437975    -0.4814478403    -1.7729129165
   40      H      -2.9709413166    -0.8905121303    -1.1359772723
   41      H      -4.9625119504     3.5117993893     0.6806396792
   42      H      -6.8705999741    -1.2895626218     0.3610576011
   43      H      -6.1062500759    -3.6662276857    -0.0440389945
   44      H      -5.5326928066    -2.8872694314    -1.5507782329
   45      H      -3.8662814791    -3.9290237390     0.7241070464
   46      H      -3.2482990628    -3.2090914073    -0.7949439247
   47      H      -2.9257275098    -1.7418882896     1.5806169439
   48      H      -6.2248178719     3.6321572353    -0.6000857968
   49      H      -4.5167777087     4.1075224103    -0.9689414141
   50      H       1.8757969886    -3.4600307372    -0.5919732791
   51      H       3.2703275859    -4.1534206275     0.3326631803
   52      H       3.4541388381    -3.7720813161    -1.4178770321
   53      H       0.1905534751    -0.1891509310    -0.7807562363
   54      H       0.7451494778     1.2889772307    -1.6363468192
   55      H      -0.7247063285     1.4622367491     1.1182169986
   56      H      -0.5342022010     2.7596452810    -0.1124034063
 ----------------------------------------------------------------
 Molecular Point Group                 C1    NOp =  1
 Largest Abelian Subgroup              C1    NOp =  1
 Nuclear Repulsion Energy =  2991.9739142229 hartrees
 There are      113 alpha and      113 beta electrons
 Requested basis set is STO-3G
 There are 86 shells and 176 basis functions

 Total QAlloc Memory Limit   4000 MB
 Mega-Array Size       392 MB
 MEM_STATIC part       400 MB
 A cutoff of  1.0D-12 yielded   1991 shell pairs
 There are      9155 function pairs
 
 -------------------------------------------------------
 OpenMP Integral Computing Module                       
 Release: version 1.0, May 2013, Q-Chem Inc. Pittsburgh 
 -------------------------------------------------------
 Integral Job Info:
 Integral job number is                      11
 Integral operator is                         1
 short-range coefficients                     0
 long-range coefficients              100000000
 Omega coefficients                           0
 if combine SR and LR in K                    0
 Integral screening is                        0
 Integral computing path is                   2
 max size of driver memory is            800000
 size of driver memory is                 45569
 size of scratch memory is              1046100
 max col of scratch BK array                289
 max len of scratch array in speh3           22
 max len of scratch index in speh4            8
 max int batch size is                      520
 min int batch size is                       52
 fixed nKL is                                52
 max L of basis functions is                  1
 order of int derivative is                   0
 number of shells is                         86
 number of basis is                         176
 number of cartesian basis is               176
 number of contracted shell pairs          1991
 number of primitive shell pairs          10345
 maxK2 (contraction) of shell pair            9
 max number of K2 of shell pair               1
 max number of CS2 of shell pair            304
 max number of PS2 of shell pair           1176
 mem total for path MDJ                   49782
 -------------------------------------------------------
 Smallest overlap matrix eigenvalue = 2.13E-01

 Scale SEOQF with 1.000000e-02/1.000000e-01/1.000000e-01

 Standard Electronic Orientation quadrupole field applied
 Nucleus-field energy     =     0.0000000578 hartrees
 Guess from superposition of atomic densities
 Warning:  Energy on first SCF cycle will be non-variational
 A restricted hybrid HF-DFT SCF calculation will be
 performed using Pulay DIIS extrapolation
 Exchange:     0.2000 Hartree-Fock + 0.0800 Slater + 0.7200 B88
 Correlation:  0.1900 VWN1RPA + 0.8100 LYP
 Using SG-1 standard quadrature grid
 Dispersion:   Grimme D3
 SCF converges when DIIS error is below 1.0E-08
 using 48 threads for integral computing
 -------------------------------------------------------
 OpenMP Integral computing Module                
 Release: version 1.0, May 2013, Q-Chem Inc. Pittsburgh 
 -------------------------------------------------------
 -------------------------------------------------------
 OpenMP BLAS3 based DFT computing Module                
 Release: version 1.0, May 2013, Q-Chem Inc. Pittsburgh 
 -------------------------------------------------------
 ---------------------------------------
  Cycle       Energy         DIIS Error
 ---------------------------------------
    1   -1507.6076237125      7.46E-02
    2   -1509.7051366090      1.05E-02
    3   -1507.2619685227      2.76E-02
    4   -1510.1686992474      4.51E-03
    5   -1510.2523300231      1.48E-03
    6   -1510.2613840393      4.03E-04
    7   -1510.2620006365      1.66E-04
    8   -1510.2621140285      3.78E-05
    9   -1510.2621198200      1.15E-05
   10   -1510.2621203722      4.42E-06
   11   -1510.2621204538      1.59E-06
   12   -1510.2621204648      2.83E-07
   13   -1510.2621204651      1.18E-07
   14   -1510.2621204651      6.67E-08
   15   -1510.2621204652      1.43E-08
   16   -1510.2621204652      5.32E-09 Convergence criterion met
 ---------------------------------------
 SCF time:  CPU 114.15 s  wall 2.45 s
 SCF   energy in the final basis set = -1510.26212047
 Total energy in the final basis set = -1510.26212047
 
 --------------------------------------------------------------
 
                    Orbital Energies (a.u.)
 --------------------------------------------------------------
 
 Alpha MOs
 -- Occupied --
-18.939 -18.936 -18.928 -18.918 -18.890 -18.889 -18.880 -18.880
-18.872 -18.870 -10.101 -10.101 -10.100 -10.096 -10.072 -10.070
-10.067 -10.064 -10.062 -10.062 -10.061 -10.059 -10.039 -10.039
-10.038 -10.038 -10.023 -10.023 -10.021 -10.021  -1.015  -1.014
 -1.007  -1.004  -0.972  -0.971  -0.938  -0.938  -0.936  -0.929
 -0.765  -0.764  -0.728  -0.724  -0.713  -0.706  -0.697  -0.664
 -0.662  -0.617  -0.599  -0.579  -0.547  -0.546  -0.539  -0.539
 -0.516  -0.511  -0.486  -0.473  -0.464  -0.455  -0.455  -0.446
 -0.445  -0.433  -0.430  -0.414  -0.414  -0.412  -0.410  -0.400
 -0.389  -0.384  -0.375  -0.369  -0.362  -0.359  -0.352  -0.349
 -0.344  -0.342  -0.336  -0.333  -0.331  -0.330  -0.322  -0.315
 -0.311  -0.308  -0.307  -0.296  -0.293  -0.291  -0.282  -0.276
 -0.273  -0.255  -0.254  -0.247  -0.244  -0.235  -0.235  -0.182
 -0.179  -0.171  -0.169  -0.160  -0.154  -0.151  -0.150  -0.145
 -0.142
 -- Virtual --
  0.085   0.099   0.102   0.105   0.212   0.233   0.244   0.252
  0.261   0.276   0.281   0.286   0.301   0.315   0.324   0.326
  0.332   0.341   0.342   0.345   0.353   0.357   0.367   0.371
  0.377   0.381   0.382   0.392   0.397   0.398   0.405   0.409
  0.416   0.416   0.419   0.420   0.423   0.425   0.428   0.429
  0.432   0.434   0.436   0.438   0.439   0.443   0.451   0.453
  0.464   0.465   0.481   0.486   0.488   0.505   0.508   0.537
  0.539   0.550   0.550   0.632   0.637   0.650   0.658
 --------------------------------------------------------------
 
          Ground-State Mulliken Net Atomic Charges

     Atom                 Charge (a.u.)
  ----------------------------------------
      1 O                    -0.205064
      2 C                     0.212048
      3 C                    -0.077758
      4 C                    -0.079653
      5 C                     0.213805
      6 O                    -0.182556
      7 C                    -0.048881
      8 C                    -0.048418
      9 O                    -0.177572
     10 C                     0.216435
     11 C                    -0.077718
     12 C                    -0.080120
     13 C                     0.209181
     14 O                    -0.216909
     15 O                    -0.169761
     16 O                    -0.167051
     17 O                    -0.208751
     18 C                    -0.126291
     19 C                     0.025047
     20 C                    -0.145587
     21 C                    -0.141266
     22 C                     0.026459
     23 O                    -0.186268
     24 H                     0.086607
     25 H                     0.084600
     26 H                     0.082084
     27 H                     0.078719
     28 H                     0.074022
     29 H                     0.078548
     30 H                     0.074674
     31 H                     0.087811
     32 O                    -0.206978
     33 C                    -0.128466
     34 C                     0.024468
     35 C                    -0.144516
     36 C                    -0.143402
     37 C                     0.025295
     38 O                    -0.185672
     39 H                     0.085760
     40 H                     0.084962
     41 H                     0.092943
     42 H                     0.090133
     43 H                     0.078774
     44 H                     0.073476
     45 H                     0.078327
     46 H                     0.072861
     47 H                     0.083992
     48 H                     0.090034
     49 H                     0.091624
     50 H                     0.089730
     51 H                     0.089874
     52 H                     0.091660
     53 H                     0.082953
     54 H                     0.092426
     55 H                     0.095109
     56 H                     0.084216
  ----------------------------------------
  Sum of atomic charges =     0.000000

 -----------------------------------------------------------------
                    Cartesian Multipole Moments
 -----------------------------------------------------------------
    Charge (ESU x 10^10)
                 0.0000
    Dipole Moment (Debye)
         X       0.5794      Y      -0.2626      Z      -0.3827
       Tot       0.7424
    Quadrupole Moments (Debye-Ang)
        XX    -169.2690     XY      10.0451     YY    -149.3013
        XZ      23.3574     YZ       2.1319     ZZ    -166.7696
    Octopole Moments (Debye-Ang^2)
       XXX      51.3944    XXY      39.7274    XYY     -49.8700
       YYY      31.0377    XXZ     -32.0896    XYZ      13.2233
       YYZ      -9.0104    XZZ      11.6380    YZZ      -6.2370
       ZZZ      -1.4705
    Hexadecapole Moments (Debye-Ang^3)
      XXXX  -20496.7245   XXXY     321.6149   XXYY   -3904.3156
      XYYY    -163.8376   YYYY   -3310.9528   XXXZ     558.2993
      XXYZ      50.5753   XYYZ     -19.5280   YYYZ     -29.2489
      XXZZ   -3582.9927   XYZZ     -75.6676   YYZZ    -687.8800
      XZZZ     -16.9448   YZZZ      -5.0931   ZZZZ    -667.8859
 -----------------------------------------------------------------
 Calculating analytic gradient of the SCF energy
 Gradient of SCF Energy
            1           2           3           4           5           6
    1   0.0014083  -0.0023527   0.0014084   0.0052659  -0.0066004  -0.0024505
    2  -0.0000253  -0.0002021   0.0007401  -0.0052369   0.0038533   0.0079740
    3   0.0016755  -0.0020723  -0.0014228   0.0052577  -0.0046955   0.0030483
            7           8           9          10          11          12
    1   0.0030933   0.0003978   0.0002945  -0.0000129  -0.0028236   0.0019795
    2  -0.0077442   0.0011048   0.0022411  -0.0025067  -0.0030056   0.0026418
    3  -0.0013460  -0.0008342  -0.0007288   0.0004340   0.0069061  -0.0057226
           13          14          15          16          17          18
    1   0.0019178  -0.0016392  -0.0000047   0.0000771  -0.0000252   0.0000041
    2   0.0014276  -0.0013449  -0.0000044  -0.0000246   0.0000441  -0.0000215
    3  -0.0061623   0.0057125  -0.0000086   0.0000056  -0.0000050  -0.0000020
           19          20          21          22          23          24
    1   0.0000231   0.0000565  -0.0000839  -0.0000609  -0.0000716  -0.0000087
    2  -0.0000175  -0.0000056   0.0001679  -0.0001555   0.0000070  -0.0000264
    3   0.0001238  -0.0001085   0.0000076   0.0000204  -0.0001091   0.0000065
           25          26          27          28          29          30
    1   0.0000327   0.0000205   0.0000238  -0.0000455   0.0000236   0.0000166
    2   0.0000174   0.0000245   0.0000089  -0.0000066   0.0000230   0.0000183
    3  -0.0000427   0.0000470  -0.0000211  -0.0000306   0.0000096   0.0000100
           31          32          33          34          35          36
    1   0.0000451  -0.0000228  -0.0000071   0.0001810  -0.0001673   0.0001808
    2   0.0000143  -0.0000295  -0.0000167   0.0002537  -0.0001599  -0.0000577
    3  -0.0000219  -0.0000062  -0.0000562   0.0000009   0.0000334   0.0000005
           37          38          39          40          41          42
    1  -0.0001289   0.0000165   0.0000358  -0.0000191   0.0000047  -0.0000153
    2   0.0000671  -0.0000082  -0.0000643  -0.0000944   0.0000100   0.0000013
    3  -0.0000483  -0.0000186  -0.0000027   0.0000040  -0.0000018   0.0000421
           43          44          45          46          47          48
    1   0.0000097   0.0000225  -0.0000060   0.0000100  -0.0000140  -0.0000006
    2  -0.0000011   0.0000182   0.0000079   0.0000606   0.0000158  -0.0000089
    3  -0.0000009   0.0000111   0.0000250   0.0000048   0.0000508  -0.0000081
           49          50          51          52          53          54
    1  -0.0000175  -0.0000066  -0.0000191   0.0000270   0.0000103  -0.0000081
    2  -0.0000029   0.0000068   0.0000062   0.0000164   0.0000005   0.0000039
    3  -0.0000109   0.0000060   0.0000172   0.0000430  -0.0000111   0.0000140
           55          56
    1  -0.0000040   0.0000294
    2   0.0000050  -0.0000098
    3  -0.0000059  -0.0000125
 Max gradient component =       7.974E-03
 RMS gradient           =       1.787E-03
 Gradient time:  CPU 30.19 s  wall 0.65 s
 Geometry Optimization Parameters
   NAtoms,    NIC,     NZ,  NCons,   NDum,   NFix, NCnnct, MaxDiis
       56     458       0       0       0       0       0       0


** GEOMETRY OPTIMIZATION IN DELOCALIZED INTERNAL COORDINATES **
   Searching for a Minimum

   Optimization Cycle:   1

                       Coordinates (Angstroms)
     ATOM                X               Y               Z
      1  O        -6.5570038953    1.3259488068    0.5308399680
      2  C        -5.6242703722    1.0642398961   -0.2562649374
      3  C        -5.0896794262   -0.3487986016   -0.6844622282
      4  C        -3.5699827574   -0.5614849787   -0.2693151338
      5  C        -2.8818406989    0.7200500358    0.3266223687
      6  O        -1.9441782085    1.2496699063   -0.6348647164
      7  C        -0.6853157923    1.6674177626    0.0270187927
      8  C         0.4930973535    0.8721903318   -0.6380257070
      9  O         1.6506883886    0.9584866909    0.2861440679
     10  C         2.8338741417    0.4687018330   -0.3671399576
     11  C         4.0298929644    0.6258941504    0.6388651393
     12  C         5.1383839739   -0.4944146379    0.5433898981
     13  C         4.7383828837   -1.9442971202    0.0933102600
     14  O         5.5095697635   -2.9300302813    0.0968835746
     15  O        -4.7930620192    2.0500078624   -0.8827535652
     16  O         3.3308270244   -2.0528333269   -0.1317123044
     17  O         2.8738400916    0.1330495746   -1.5689108589
     18  C         2.9746812942   -3.4488902601   -0.4716380850
     19  C         4.8776579592    1.8664419516    0.1034368245
     20  C         6.0784530807    2.1833120727    1.0824855221
     21  C         7.1269825186    1.0874482496    0.6581586629
     22  C         6.2548689733    0.2311759829   -0.3387159876
     23  O         5.5237543599    1.2746473550   -1.0927827252
     24  H         3.6435016359    0.7599759408    1.6637208076
     25  H         5.5563958503   -0.6407532407    1.5576489054
     26  H         4.2643581878    2.7433479025   -0.1818719256
     27  H         6.4595637465    3.2022217401    0.9110483155
     28  H         5.7771567760    2.0932728915    2.1387035736
     29  H         7.9826793232    1.5361653858    0.1279078143
     30  H         7.5044601326    0.4985479616    1.5090948709
     31  H         6.8148582962   -0.4341124037   -1.0240789057
     32  O        -2.9992542797    1.1563068470    1.4920869497
     33  C        -5.1571366453    3.4038203395   -0.4062475444
     34  C        -5.7966694843   -1.4779960454    0.1681099018
     35  C        -5.4443606168   -2.8863993846   -0.4525421823
     36  C        -3.9590717097   -3.0737860866    0.0357505454
     37  C        -3.7229790117   -1.7181768172    0.8123453899
     38  O        -5.0346812254   -1.4490021547    1.4396585058
     39  H        -5.2289437975   -0.4814478403   -1.7729129165
     40  H        -2.9709413166   -0.8905121303   -1.1359772723
     41  H        -4.9625119504    3.5117993893    0.6806396792
     42  H        -6.8705999741   -1.2895626218    0.3610576011
     43  H        -6.1062500759   -3.6662276857   -0.0440389945
     44  H        -5.5326928066   -2.8872694314   -1.5507782329
     45  H        -3.8662814791   -3.9290237390    0.7241070464
     46  H        -3.2482990628   -3.2090914073   -0.7949439247
     47  H        -2.9257275098   -1.7418882896    1.5806169439
     48  H        -6.2248178719    3.6321572353   -0.6000857968
     49  H        -4.5167777087    4.1075224103   -0.9689414141
     50  H         1.8757969886   -3.4600307372   -0.5919732791
     51  H         3.2703275859   -4.1534206275    0.3326631803
     52  H         3.4541388381   -3.7720813161   -1.4178770321
     53  H         0.1905534751   -0.1891509310   -0.7807562363
     54  H         0.7451494778    1.2889772307   -1.6363468192
     55  H        -0.7247063285    1.4622367491    1.1182169986
     56  H        -0.5342022010    2.7596452810   -0.1124034063
   Point Group: c1    Number of degrees of freedom:   162


   Energy is  -1510.262120465


 Attempting to Generate Delocalized Internal Coordinates

162 Hessian modes will be used to form the next step
  Hessian Eigenvalues:
     0.002000    0.002000    0.002000    0.002000    0.002000    0.002691
     0.002852    0.004249    0.004376    0.004565    0.004600    0.004753
     0.004973    0.005020    0.005188    0.006785    0.006835    0.009869
     0.010676    0.011204    0.011736    0.021263    0.021696    0.024821
     0.026312    0.030554    0.030836    0.034450    0.035584    0.036995
     0.040973    0.042045    0.042181    0.043889    0.046859    0.047176
     0.047347    0.050853    0.050985    0.051064    0.051513    0.053137
     0.054253    0.055073    0.055480    0.055665    0.056500    0.057141
     0.057437    0.059269    0.060249    0.060493    0.060676    0.062863
     0.063854    0.064118    0.064571    0.070025    0.070084    0.073056
     0.073620    0.091129    0.091762    0.092781    0.092928    0.095879
     0.096744    0.097018    0.097590    0.102798    0.102822    0.107289
     0.108404    0.110002    0.111963    0.120845    0.123923    0.134358
     0.134970    0.157283    0.158415    0.160000    0.160000    0.160000
     0.160000    0.160000    0.160000    0.162993    0.164884    0.216558
     0.219375    0.219665    0.219714    0.225632    0.230351    0.238119
     0.238321    0.239292    0.239617    0.241748    0.247887    0.248104
     0.248419    0.248723    0.249734    0.250000    0.250000    0.250000
     0.250000    0.250000    0.250000    0.250000    0.250000    0.253096
     0.253185    0.258665    0.259606    0.259955    0.260226    0.260577
     0.292095    0.292738    0.307257    0.307415    0.323041    0.324511
     0.324923    0.325150    0.326591    0.326683    0.327148    0.327170
     0.328688    0.328731    0.328900    0.328970    0.329478    0.330801
     0.330933    0.331014    0.332733    0.333033    0.334457    0.334580
     0.334857    0.334882    0.335040    0.335126    0.335266    0.335412
     0.341423    0.343028    0.344917    0.345323    0.390871    0.399211
     0.404801    0.410533    0.826617    0.832496    0.838293    0.839033

 Minimum Search - Taking Simple RFO Step
 Searching for Lamda that Minimizes Along All modes
 Value Taken    Lamda =  -0.01700345
 Calculated Step too Large.  Step scaled by  0.360256
 Step Taken.  Stepsize is  0.300000

                             Maximum     Tolerance    Cnvgd?
         Gradient           0.006566      0.000300      NO
         Displacement       0.090110      0.001200      NO
         Energy change     *********      0.000001      NO


 New Cartesian Coordinates Obtained by Inverse Iteration

 Displacement from previous Coordinates is:  3.973356
 Adding empirical dispersion correction 
 ----------------------------------------------------------------
 Doing -D3(op) with
 s6 =   1.00000
 s8 =   0.78311
 a1 =   0.30000
 a2 =   4.25000
 n  =  10.00000
 -D3 energy without 3body term =     -0.0640501227 hartrees
 ----------------------------------------------------------------
             Standard Nuclear Orientation (Angstroms)
    I     Atom           X                Y                Z
 ----------------------------------------------------------------
    1      O      -6.4219141843     1.4249035703     0.7111605487
    2      C      -5.5431115043     1.1249322700    -0.1229489580
    3      C      -5.1805805416    -0.2999109473    -0.6744265153
    4      C      -3.6747083077    -0.6961726925    -0.3551883692
    5      C      -2.8307894568     0.4610249386     0.2928270496
    6      O      -1.9225211298     1.0018767436    -0.6904056851
    7      C      -0.6853616603     1.5067090352    -0.0485335754
    8      C       0.5295293674     0.7335823024    -0.6727003492
    9      O       1.6824467105     0.9286928280     0.2406831131
   10      C       2.8877764657     0.4606842404    -0.3875948535
   11      C       4.0751849243     0.7266644716     0.6056512571
   12      C       5.2037389395    -0.3775154891     0.6131469967
   13      C       4.8332120768    -1.8654228035     0.2761615478
   14      O       5.6366505395    -2.8247487109     0.2996899886
   15      O      -4.6364756388     2.0631627371    -0.7169726166
   16      O       3.4272653546    -2.0237001781     0.0713009766
   17      O       2.9404007130     0.0362015173    -1.5604391375
   18      C       3.1068422435    -3.4448611735    -0.1913737213
   19      C       4.9014402945     1.9355021085    -0.0255634685
   20      C       6.0902967552     2.3547606377     0.9293718397
   21      C       7.1611357643     1.2470468220     0.6019648497
   22      C       6.3101819869     0.2946971394    -0.3234435953
   23      O       5.5651571960     1.2583714840    -1.1651278135
   24      H       3.6792886179     0.9350283689     1.6143368027
   25      H       5.6223503534    -0.4330404616     1.6361762803
   26      H       4.2733937797     2.7736378390    -0.3855666203
   27      H       6.4536574493     3.3629293050     0.6756626485
   28      H       5.7845749258     2.3469346839     1.9881269447
   29      H       8.0113435780     1.6660200890     0.0395434996
   30      H       7.5446336786     0.7380292750     1.5004075246
   31      H       6.8859012905    -0.4144824163    -0.9491384994
   32      O      -2.8847206238     0.8546122285     1.4779850665
   33      C      -4.8420643396     3.4102673973    -0.1377989115
   34      C      -5.9649036460    -1.4119291573     0.1316135533
   35      C      -5.7899392286    -2.7982663006    -0.6033481067
   36      C      -4.3126630695    -3.1717005318    -0.2062506787
   37      C      -3.9012394855    -1.9089422423     0.6497690323
   38      O      -5.1487270911    -1.5556948625     1.3610753250
   39      H      -5.3791994657    -0.3352710979    -1.7611685102
   40      H      -3.1519867060    -1.0188144849    -1.2721722561
   41      H      -4.6003061323     3.4220284716     0.9449074231
   42      H      -7.0035732010    -1.1302162469     0.3920697158
   43      H      -6.5115655783    -3.5351639346    -0.2168776791
   44      H      -5.9259567451    -2.7080365949    -1.6929726520
   45      H      -4.2802688143    -4.0809500486     0.4151161063
   46      H      -3.6572670855    -3.3163775501    -1.0797939721
   47      H      -3.0779387165    -2.0710611611     1.3724617792
   48      H      -5.8863914129     3.7581052794    -0.2721488148
   49      H      -4.1519233864     4.0832426400    -0.6788176672
   50      H       2.0076366283    -3.4921963328    -0.2992821715
   51      H       3.4292687389    -4.0978066229     0.6455169801
   52      H       3.5863364157    -3.8042690305    -1.1244499127
   53      H       0.2786867603    -0.3472907234    -0.7572483893
   54      H       0.7610152462     1.1077283707    -1.6926687180
   55      H      -0.7174142934     1.3539240037     1.0514624350
   56      H      -0.5841784901     2.5965386681    -0.2415970481
 ----------------------------------------------------------------
 Molecular Point Group                 C1    NOp =  1
 Largest Abelian Subgroup              C1    NOp =  1
 Nuclear Repulsion Energy =  2987.2626363312 hartrees
 There are      113 alpha and      113 beta electrons
 Applying Cartesian multipole field
    Component          Value
    ---------          -----
     (2,0,0)        1.00000E-12
     (0,2,0)        2.00000E-11
     (0,0,2)       -3.00000E-11
 Nucleus-field energy     =     0.0000000586 hartrees
 Requested basis set is STO-3G
 There are 86 shells and 176 basis functions
 A cutoff of  1.0D-12 yielded   1969 shell pairs
 There are      9103 function pairs
 Smallest overlap matrix eigenvalue = 2.13E-01
 Guess MOs from SCF MO coefficient file
 Reading MOs from coefficient file
 Reading MOs from coefficient file
 A restricted hybrid HF-DFT SCF calculation will be
 performed using Pulay DIIS extrapolation
 Exchange:     0.2000 Hartree-Fock + 0.0800 Slater + 0.7200 B88
 Correlation:  0.1900 VWN1RPA + 0.8100 LYP
 Using SG-1 standard quadrature grid
 Dispersion:   Grimme D3
 SCF converges when DIIS error is below 1.0E-08
 Geometry optimization detected.  Setting ReadMinima to 0
 Setting SaveMinima to 0
 using 48 threads for integral computing
 -------------------------------------------------------
 OpenMP Integral computing Module                
 Release: version 1.0, May 2013, Q-Chem Inc. Pittsburgh 
 -------------------------------------------------------
 -------------------------------------------------------
 OpenMP BLAS3 based DFT computing Module                
 Release: version 1.0, May 2013, Q-Chem Inc. Pittsburgh 
 -------------------------------------------------------
 ---------------------------------------
  Cycle       Energy         DIIS Error
 ---------------------------------------
    1   -1510.1392156775      4.97E-03
    2   -1510.2652038107      5.75E-04
    3   -1510.2640335630      8.54E-04
    4   -1510.2670149673      2.78E-04
    5   -1510.2673356919      7.93E-05
    6   -1510.2673597937      3.69E-05
    7   -1510.2673651206      1.82E-05
    8   -1510.2673665702      2.41E-06
    9   -1510.2673665966      1.33E-06
   10   -1510.2673666028      7.37E-07
   11   -1510.2673666053      2.14E-07
   12   -1510.2673666055      4.18E-08
   13   -1510.2673666054      1.73E-08
   14   -1510.2673666055      6.84E-09 Convergence criterion met
 ---------------------------------------
 SCF time:  CPU 96.35 s  wall 2.01 s
 SCF   energy in the final basis set = -1510.26736661
 Total energy in the final basis set = -1510.26736661
 
 --------------------------------------------------------------
 
                    Orbital Energies (a.u.)
 --------------------------------------------------------------
 
 Alpha MOs
 -- Occupied --
-18.939 -18.936 -18.928 -18.924 -18.889 -18.888 -18.880 -18.877
-18.872 -18.869 -10.101 -10.101 -10.100 -10.096 -10.071 -10.070
-10.067 -10.064 -10.062 -10.062 -10.061 -10.059 -10.040 -10.039
-10.038 -10.038 -10.023 -10.022 -10.021 -10.021  -1.015  -1.014
 -1.007  -1.004  -0.972  -0.971  -0.938  -0.938  -0.936  -0.929
 -0.765  -0.764  -0.728  -0.724  -0.712  -0.706  -0.697  -0.664
 -0.662  -0.617  -0.599  -0.578  -0.547  -0.546  -0.539  -0.539
 -0.516  -0.510  -0.486  -0.473  -0.464  -0.455  -0.454  -0.446
 -0.445  -0.433  -0.430  -0.414  -0.414  -0.413  -0.410  -0.400
 -0.389  -0.383  -0.375  -0.369  -0.362  -0.359  -0.351  -0.349
 -0.343  -0.342  -0.335  -0.332  -0.331  -0.330  -0.322  -0.315
 -0.311  -0.308  -0.307  -0.296  -0.293  -0.291  -0.282  -0.276
 -0.273  -0.255  -0.253  -0.248  -0.245  -0.235  -0.234  -0.181
 -0.179  -0.171  -0.170  -0.160  -0.154  -0.151  -0.150  -0.145
 -0.141
 -- Virtual --
  0.089   0.100   0.104   0.105   0.210   0.233   0.244   0.252
  0.261   0.276   0.282   0.286   0.302   0.314   0.324   0.327
  0.332   0.341   0.342   0.346   0.353   0.358   0.367   0.371
  0.378   0.380   0.382   0.393   0.397   0.399   0.405   0.409
  0.416   0.417   0.419   0.420   0.423   0.425   0.428   0.429
  0.432   0.434   0.436   0.438   0.439   0.443   0.452   0.453
  0.465   0.465   0.481   0.486   0.489   0.505   0.508   0.537
  0.539   0.550   0.550   0.633   0.639   0.650   0.659
 --------------------------------------------------------------
 
          Ground-State Mulliken Net Atomic Charges

     Atom                 Charge (a.u.)
  ----------------------------------------
      1 O                    -0.205380
      2 C                     0.212218
      3 C                    -0.077706
      4 C                    -0.079500
      5 C                     0.212267
      6 O                    -0.177462
      7 C                    -0.050497
      8 C                    -0.048322
      9 O                    -0.177134
     10 C                     0.216395
     11 C                    -0.077780
     12 C                    -0.080092
     13 C                     0.209257
     14 O                    -0.216927
     15 O                    -0.170021
     16 O                    -0.167296
     17 O                    -0.209249
     18 C                    -0.126166
     19 C                     0.025071
     20 C                    -0.145631
     21 C                    -0.141226
     22 C                     0.026390
     23 O                    -0.186234
     24 H                     0.086619
     25 H                     0.084476
     26 H                     0.081953
     27 H                     0.078583
     28 H                     0.073998
     29 H                     0.078512
     30 H                     0.074550
     31 H                     0.087986
     32 O                    -0.210667
     33 C                    -0.128561
     34 C                     0.024509
     35 C                    -0.144521
     36 C                    -0.143414
     37 C                     0.025393
     38 O                    -0.185840
     39 H                     0.085972
     40 H                     0.085097
     41 H                     0.092942
     42 H                     0.090301
     43 H                     0.078735
     44 H                     0.073431
     45 H                     0.078215
     46 H                     0.073084
     47 H                     0.083891
     48 H                     0.090020
     49 H                     0.090949
     50 H                     0.089923
     51 H                     0.089904
     52 H                     0.091824
     53 H                     0.083400
     54 H                     0.091727
     55 H                     0.097882
     56 H                     0.084153
  ----------------------------------------
  Sum of atomic charges =    -0.000000

 -----------------------------------------------------------------
                    Cartesian Multipole Moments
 -----------------------------------------------------------------
    Charge (ESU x 10^10)
                 0.0000
    Dipole Moment (Debye)
         X       0.3716      Y       0.0343      Z      -0.5056
       Tot       0.6284
    Quadrupole Moments (Debye-Ang)
        XX    -168.4354     XY      10.7024     YY    -148.2857
        XZ      23.4399     YZ       2.4497     ZZ    -167.2229
    Octopole Moments (Debye-Ang^2)
       XXX      27.7676    XXY      42.1816    XYY     -45.3437
       YYY      34.1919    XXZ     -35.5344    XYZ      10.1119
       YYZ      -8.2400    XZZ       8.9999    YZZ      -2.1567
       ZZZ      -3.7145
    Hexadecapole Moments (Debye-Ang^3)
      XXXX  -20853.5507   XXXY     215.8026   XXYY   -3979.5006
      XYYY    -347.3291   YYYY   -3303.6518   XXXZ     538.1299
      XXYZ      72.5796   XYYZ     -36.9859   YYYZ     -30.5780
      XXZZ   -3663.8396   XYZZ    -131.6859   YYZZ    -687.0820
      XZZZ     -22.1839   YZZZ      -9.8116   ZZZZ    -640.1712
 -----------------------------------------------------------------
 Calculating analytic gradient of the SCF energy
 Gradient of SCF Energy
            1           2           3           4           5           6
    1   0.0009338  -0.0008459   0.0001805   0.0013711  -0.0004440  -0.0022758
    2  -0.0003220  -0.0002809  -0.0001398  -0.0042871  -0.0017284   0.0096796
    3   0.0010280  -0.0005907  -0.0014135   0.0035079  -0.0009718   0.0002633
            7           8           9          10          11          12
    1   0.0015405   0.0002707  -0.0001438   0.0007966  -0.0020781   0.0019268
    2  -0.0065134   0.0003940   0.0016439   0.0001819  -0.0028270   0.0021552
    3  -0.0003476  -0.0006417  -0.0005080  -0.0007191   0.0058019  -0.0055868
           13          14          15          16          17          18
    1   0.0004484  -0.0007831   0.0004812   0.0000942  -0.0001355  -0.0000382
    2   0.0007027  -0.0010178  -0.0002564  -0.0004326  -0.0009605  -0.0000053
    3  -0.0015569   0.0039511  -0.0001646  -0.0012807   0.0003942  -0.0001956
           19          20          21          22          23          24
    1  -0.0001999  -0.0001999   0.0003006  -0.0009649  -0.0001206   0.0002504
    2   0.0005717  -0.0000865  -0.0000837  -0.0001212   0.0006490  -0.0004626
    3  -0.0001277  -0.0000224  -0.0000700   0.0000280   0.0001303   0.0000745
           25          26          27          28          29          30
    1   0.0005794  -0.0000221  -0.0000572   0.0000833   0.0000972  -0.0000033
    2  -0.0003341   0.0000035  -0.0000329   0.0000674   0.0000671  -0.0000247
    3  -0.0002189  -0.0000074  -0.0000160   0.0000448   0.0000154  -0.0000238
           31          32          33          34          35          36
    1  -0.0000367  -0.0025219   0.0000203  -0.0000127  -0.0004728   0.0000482
    2   0.0000368   0.0020333   0.0001242   0.0002789   0.0001963  -0.0002682
    3  -0.0000000  -0.0009986   0.0000425  -0.0005861   0.0000509  -0.0002525
           37          38          39          40          41          42
    1  -0.0006143   0.0001410   0.0001924   0.0001486  -0.0000219   0.0000040
    2   0.0004664  -0.0002270  -0.0001102   0.0002020   0.0000488  -0.0001305
    3   0.0002956   0.0000677  -0.0000876   0.0001149  -0.0000104   0.0000465
           43          44          45          46          47          48
    1   0.0000706   0.0000108   0.0000533   0.0000847   0.0000452  -0.0000295
    2   0.0000945  -0.0000016  -0.0000207   0.0000700  -0.0001089  -0.0000104
    3  -0.0000226  -0.0000049   0.0000517   0.0001164   0.0002192  -0.0000262
           49          50          51          52          53          54
    1   0.0000237   0.0000039   0.0000774  -0.0000185  -0.0001291   0.0001103
    2  -0.0000275   0.0000180   0.0000013  -0.0000200   0.0000299   0.0001397
    3   0.0000030  -0.0000060   0.0000808   0.0000683  -0.0001893   0.0001422
           55          56
    1   0.0013046   0.0004762
    2   0.0005829   0.0004033
    3  -0.0001279   0.0002361
 Max gradient component =       9.680E-03
 RMS gradient           =       1.377E-03
 Gradient time:  CPU 29.88 s  wall 0.64 s
 Geometry Optimization Parameters
   NAtoms,    NIC,     NZ,  NCons,   NDum,   NFix, NCnnct, MaxDiis
       56     458       0       0       0       0       0       0

 Cartesian Hessian Update
 Hessian Updated using BFGS Update


** GEOMETRY OPTIMIZATION IN DELOCALIZED INTERNAL COORDINATES **
   Searching for a Minimum

   Optimization Cycle:   2

                       Coordinates (Angstroms)
     ATOM                X               Y               Z
      1  O        -6.4219141843    1.4249035703    0.7111605487
      2  C        -5.5431115043    1.1249322700   -0.1229489580
      3  C        -5.1805805416   -0.2999109473   -0.6744265153
      4  C        -3.6747083077   -0.6961726925   -0.3551883692
      5  C        -2.8307894568    0.4610249386    0.2928270496
      6  O        -1.9225211298    1.0018767436   -0.6904056851
      7  C        -0.6853616603    1.5067090352   -0.0485335754
      8  C         0.5295293674    0.7335823024   -0.6727003492
      9  O         1.6824467105    0.9286928280    0.2406831131
     10  C         2.8877764657    0.4606842404   -0.3875948535
     11  C         4.0751849243    0.7266644716    0.6056512571
     12  C         5.2037389395   -0.3775154891    0.6131469967
     13  C         4.8332120768   -1.8654228035    0.2761615478
     14  O         5.6366505395   -2.8247487109    0.2996899886
     15  O        -4.6364756388    2.0631627371   -0.7169726166
     16  O         3.4272653546   -2.0237001781    0.0713009766
     17  O         2.9404007130    0.0362015173   -1.5604391375
     18  C         3.1068422435   -3.4448611735   -0.1913737213
     19  C         4.9014402945    1.9355021085   -0.0255634685
     20  C         6.0902967552    2.3547606377    0.9293718397
     21  C         7.1611357643    1.2470468220    0.6019648497
     22  C         6.3101819869    0.2946971394   -0.3234435953
     23  O         5.5651571960    1.2583714840   -1.1651278135
     24  H         3.6792886179    0.9350283689    1.6143368027
     25  H         5.6223503534   -0.4330404616    1.6361762803
     26  H         4.2733937797    2.7736378390   -0.3855666203
     27  H         6.4536574493    3.3629293050    0.6756626485
     28  H         5.7845749258    2.3469346839    1.9881269447
     29  H         8.0113435780    1.6660200890    0.0395434996
     30  H         7.5446336786    0.7380292750    1.5004075246
     31  H         6.8859012905   -0.4144824163   -0.9491384994
     32  O        -2.8847206238    0.8546122285    1.4779850665
     33  C        -4.8420643396    3.4102673973   -0.1377989115
     34  C        -5.9649036460   -1.4119291573    0.1316135533
     35  C        -5.7899392286   -2.7982663006   -0.6033481067
     36  C        -4.3126630695   -3.1717005318   -0.2062506787
     37  C        -3.9012394855   -1.9089422423    0.6497690323
     38  O        -5.1487270911   -1.5556948625    1.3610753250
     39  H        -5.3791994657   -0.3352710979   -1.7611685102
     40  H        -3.1519867060   -1.0188144849   -1.2721722561
     41  H        -4.6003061323    3.4220284716    0.9449074231
     42  H        -7.0035732010   -1.1302162469    0.3920697158
     43  H        -6.5115655783   -3.5351639346   -0.2168776791
     44  H        -5.9259567451   -2.7080365949   -1.6929726520
     45  H        -4.2802688143   -4.0809500486    0.4151161063
     46  H        -3.6572670855   -3.3163775501   -1.0797939721
     47  H        -3.0779387165   -2.0710611611    1.3724617792
     48  H        -5.8863914129    3.7581052794   -0.2721488148
     49  H        -4.1519233864    4.0832426400   -0.6788176672
     50  H         2.0076366283   -3.4921963328   -0.2992821715
     51  H         3.4292687389   -4.0978066229    0.6455169801
     52  H         3.5863364157   -3.8042690305   -1.1244499127
     53  H         0.2786867603   -0.3472907234   -0.7572483893
     54  H         0.7610152462    1.1077283707   -1.6926687180
     55  H        -0.7174142934    1.3539240037    1.0514624350
     56  H        -0.5841784901    2.5965386681   -0.2415970481
   Point Group: c1    Number of degrees of freedom:   162


   Energy is  -1510.267366605

 Hessian Updated using BFGS Update

149 Hessian modes will be used to form the next step
  Hessian Eigenvalues:
     0.001629    0.002067    0.002690    0.002824    0.003533    0.004281
     0.004566    0.004629    0.004839    0.004973    0.005020    0.005245
     0.006768    0.006834    0.010601    0.011199    0.011735    0.021223
     0.021680    0.024653    0.026208    0.028973    0.030820    0.030875
     0.034550    0.035593    0.036627    0.040978    0.042057    0.042170
     0.043614    0.046651    0.047198    0.048392    0.050854    0.051060
     0.051288    0.052986    0.053393    0.054345    0.055211    0.055471
     0.055750    0.056491    0.057377    0.057964    0.059357    0.060270
     0.060505    0.061033    0.062875    0.063882    0.064119    0.064570
     0.070024    0.070124    0.073056    0.073671    0.091146    0.091859
     0.092788    0.092933    0.096151    0.096746    0.097019    0.097605
     0.102798    0.102823    0.107289    0.109112    0.110058    0.112993
     0.122574    0.123928    0.134351    0.135228    0.157922    0.158389
     0.160000    0.160027    0.163544    0.166360    0.216500    0.219379
     0.219660    0.222144    0.226160    0.230392    0.238189    0.238356
     0.239284    0.239630    0.241746    0.247885    0.248095    0.248397
     0.248532    0.249734    0.249975    0.253094    0.253179    0.257003
     0.259605    0.259749    0.260164    0.260570    0.269990    0.292528
     0.293045    0.307294    0.307413    0.323042    0.324625    0.324992
     0.325153    0.326592    0.326691    0.327150    0.327171    0.328688
     0.328756    0.328902    0.328974    0.329481    0.330801    0.330933
     0.331016    0.332741    0.333044    0.334462    0.334580    0.334857
     0.334884    0.335043    0.335127    0.335275    0.335414    0.341423
     0.343512    0.344933    0.345323    0.396382    0.399452    0.404914
     0.410571    0.826668    0.832519    0.838293    0.839035

 Minimum Search - Taking Simple RFO Step
 Searching for Lamda that Minimizes Along All modes
 Value Taken    Lamda =  -0.01460477
 Calculated Step too Large.  Step scaled by  0.333703
 Step Taken.  Stepsize is  0.300000

                             Maximum     Tolerance    Cnvgd?
         Gradient           0.005557      0.000300      NO
         Displacement       0.073379      0.001200      NO
         Energy change     -0.005246      0.000001      NO


 New Cartesian Coordinates Obtained by Inverse Iteration

 Displacement from previous Coordinates is:  3.467202
 Adding empirical dispersion correction 
 ----------------------------------------------------------------
 Doing -D3(op) with
 s6 =   1.00000
 s8 =   0.78311
 a1 =   0.30000
 a2 =   4.25000
 n  =  10.00000
 -D3 energy without 3body term =     -0.0640437160 hartrees
 ----------------------------------------------------------------
             Standard Nuclear Orientation (Angstroms)
    I     Atom           X                Y                Z
 ----------------------------------------------------------------
    1      O      -6.2650912712     1.4267138444     0.9798721330
    2      C      -5.4716197993     1.1435400316     0.0588556777
    3      C      -5.2461242999    -0.2514366582    -0.6275814958
    4      C      -3.7476108859    -0.7627945877    -0.4787359284
    5      C      -2.7756514020     0.2794510680     0.1810515436
    6      O      -1.8959379312     0.8118792589    -0.8295003496
    7      C      -0.6806594067     1.3906667073    -0.2100436820
    8      C       0.5660298946     0.6220003077    -0.7735759221
    9      O       1.6996304412     0.9145367578     0.1380150077
   10      C       2.9290919185     0.4455168219    -0.4401943107
   11      C       4.0890268611     0.8102363480     0.5542411911
   12      C       5.2186309066    -0.2838232455     0.6951898192
   13      C       4.8609492757    -1.7936749137     0.4601185578
   14      O       5.6740228141    -2.7419516306     0.5358309357
   15      O      -4.5647631858     2.0765336879    -0.5425234808
   16      O       3.4562276995    -1.9742384190     0.2661580091
   17      O       3.0147668632    -0.0623964505    -1.5774039347
   18      C       3.1457910523    -3.4109545841     0.0906461590
   19      C       4.9278633676     1.9651215615    -0.1541443042
   20      C       6.0846106255     2.4738636898     0.7968418730
   21      C       7.1687145683     1.3481894129     0.6011902914
   22      C       6.3507387766     0.3133019498    -0.2632337068
   23      O       5.6288908744     1.1945519394    -1.2087234188
   24      H       3.6620052330     1.0997252821     1.5297675047
   25      H       5.6095145940    -0.2528878983     1.7301337535
   26      H       4.3078500904     2.7643161140    -0.6050996807
   27      H       6.4523179107     3.4583320631     0.4674481854
   28      H       5.7454996910     2.5563609279     1.8421455249
   29      H       8.0345044031     1.7216206384     0.0306769748
   30      H       7.5257410772     0.9220632688     1.5521537350
   31      H       6.9478465898    -0.4437836717    -0.8075049650
   32      O      -2.7041783681     0.5799338315     1.3923297223
   33      C      -4.6429518212     3.3832988711     0.1490830621
   34      C      -6.0309918129    -1.3784682371     0.1574215941
   35      C      -6.0121900199    -2.7071542935    -0.6956956143
   36      C      -4.5349659276    -3.1995806928    -0.4647072933
   37      C      -3.9683328027    -2.0391654449     0.4452685173
   38      O      -5.1236426013    -1.6717558536     1.2925967275
   39      H      -5.5377138178    -0.1856251390    -1.6916535239
   40      H      -3.3271539500    -1.0408002131    -1.4607143275
   41      H      -4.3106325711     3.2982967781     1.2041652603
   42      H      -7.0225729693    -1.0578553575     0.5316491695
   43      H      -6.7455997007    -3.4294432149    -0.3035807498
   44      H      -6.2347911538    -2.5188536765    -1.7581995433
   45      H      -4.5103894374    -4.1576270696     0.0787402765
   46      H      -3.9686333780    -3.3102879480    -1.4031453094
   47      H      -3.0985832934    -2.3093793342     1.0749789953
   48      H      -5.6730590760     3.7934697149     0.1333099532
   49      H      -3.9631876222     4.0602107018    -0.4001046206
   50      H       2.0469537487    -3.4724414686    -0.0138274873
   51      H       3.4725354167    -4.0097812477     0.9653854042
   52      H       3.6278029928    -3.8228983367    -0.8191934270
   53      H       0.3524598542    -0.4699410356    -0.7931021155
   54      H       0.7978792036     0.9400459994    -1.8123836563
   55      H      -0.7235656573     1.2991166959     0.8965796964
   56      H      -0.6156457226     2.4701040191    -0.4651023890
 ----------------------------------------------------------------
 Molecular Point Group                 C1    NOp =  1
 Largest Abelian Subgroup              C1    NOp =  1
 Nuclear Repulsion Energy =  2986.7068481927 hartrees
 There are      113 alpha and      113 beta electrons
 Applying Cartesian multipole field
    Component          Value
    ---------          -----
     (2,0,0)        1.00000E-12
     (0,2,0)        2.00000E-11
     (0,0,2)       -3.00000E-11
 Nucleus-field energy     =     0.0000000575 hartrees
 Requested basis set is STO-3G
 There are 86 shells and 176 basis functions
 A cutoff of  1.0D-12 yielded   1967 shell pairs
 There are      9080 function pairs
 Smallest overlap matrix eigenvalue = 2.13E-01
 Guess MOs from SCF MO coefficient file
 Reading MOs from coefficient file
 Reading MOs from coefficient file
 A restricted hybrid HF-DFT SCF calculation will be
 performed using Pulay DIIS extrapolation
 Exchange:     0.2000 Hartree-Fock + 0.0800 Slater + 0.7200 B88
 Correlation:  0.1900 VWN1RPA + 0.8100 LYP
 Using SG-1 standard quadrature grid
 Dispersion:   Grimme D3
 SCF converges when DIIS error is below 1.0E-08
 Geometry optimization detected.  Setting ReadMinima to 0
 Setting SaveMinima to 0
 using 48 threads for integral computing
 -------------------------------------------------------
 OpenMP Integral computing Module                
 Release: version 1.0, May 2013, Q-Chem Inc. Pittsburgh 
 -------------------------------------------------------
 -------------------------------------------------------
 OpenMP BLAS3 based DFT computing Module                
 Release: version 1.0, May 2013, Q-Chem Inc. Pittsburgh 
 -------------------------------------------------------
 ---------------------------------------
  Cycle       Energy         DIIS Error
 ---------------------------------------
    1   -1510.1211760180      5.47E-03
    2   -1510.2692531772      6.06E-04
    3   -1510.2681166885      8.69E-04
    4   -1510.2713132729      2.83E-04
    5   -1510.2716438523      8.93E-05
    6   -1510.2716766759      3.15E-05
    7   -1510.2716803798      1.62E-05
    8   -1510.2716815204      3.20E-06
    9   -1510.2716815696      6.70E-07
   10   -1510.2716815715      4.25E-07
   11   -1510.2716815721      2.39E-07
   12   -1510.2716815723      4.62E-08
   13   -1510.2716815723      1.91E-08
   14   -1510.2716815723      8.55E-09 Convergence criterion met
 ---------------------------------------
 SCF time:  CPU 93.96 s  wall 1.96 s
 SCF   energy in the final basis set = -1510.27168157
 Total energy in the final basis set = -1510.27168157
 
 --------------------------------------------------------------
 
                    Orbital Energies (a.u.)
 --------------------------------------------------------------
 
 Alpha MOs
 -- Occupied --
-18.939 -18.936 -18.928 -18.927 -18.889 -18.888 -18.880 -18.876
-18.872 -18.868 -10.101 -10.101 -10.100 -10.095 -10.070 -10.069
-10.066 -10.064 -10.062 -10.062 -10.060 -10.059 -10.040 -10.039
-10.039 -10.037 -10.022 -10.022 -10.021 -10.020  -1.015  -1.014
 -1.008  -1.004  -0.972  -0.971  -0.938  -0.938  -0.936  -0.929
 -0.765  -0.763  -0.727  -0.724  -0.712  -0.706  -0.696  -0.663
 -0.663  -0.617  -0.599  -0.578  -0.547  -0.545  -0.539  -0.539
 -0.515  -0.510  -0.486  -0.473  -0.464  -0.455  -0.454  -0.446
 -0.444  -0.432  -0.430  -0.415  -0.413  -0.413  -0.409  -0.400
 -0.389  -0.383  -0.375  -0.369  -0.361  -0.358  -0.351  -0.349
 -0.345  -0.341  -0.335  -0.332  -0.331  -0.330  -0.322  -0.315
 -0.311  -0.307  -0.307  -0.297  -0.293  -0.291  -0.283  -0.275
 -0.272  -0.255  -0.254  -0.248  -0.245  -0.235  -0.234  -0.181
 -0.179  -0.173  -0.170  -0.160  -0.154  -0.152  -0.149  -0.145
 -0.141
 -- Virtual --
  0.091   0.100   0.105   0.106   0.210   0.233   0.244   0.253
  0.261   0.277   0.283   0.285   0.302   0.315   0.324   0.327
  0.332   0.341   0.342   0.345   0.354   0.358   0.368   0.372
  0.379   0.380   0.382   0.394   0.397   0.399   0.405   0.409
  0.416   0.417   0.419   0.420   0.423   0.425   0.429   0.429
  0.432   0.435   0.436   0.439   0.439   0.443   0.452   0.454
  0.465   0.465   0.482   0.486   0.489   0.505   0.508   0.538
  0.539   0.550   0.551   0.634   0.639   0.650   0.660
 --------------------------------------------------------------
 
          Ground-State Mulliken Net Atomic Charges

     Atom                 Charge (a.u.)
  ----------------------------------------
      1 O                    -0.205558
      2 C                     0.212323
      3 C                    -0.077553
      4 C                    -0.079168
      5 C                     0.211276
      6 O                    -0.174181
      7 C                    -0.052981
      8 C                    -0.048207
      9 O                    -0.176692
     10 C                     0.216461
     11 C                    -0.077785
     12 C                    -0.080094
     13 C                     0.209583
     14 O                    -0.216685
     15 O                    -0.170751
     16 O                    -0.167454
     17 O                    -0.210167
     18 C                    -0.126126
     19 C                     0.025042
     20 C                    -0.145598
     21 C                    -0.141388
     22 C                     0.026379
     23 O                    -0.186265
     24 H                     0.086578
     25 H                     0.084514
     26 H                     0.081883
     27 H                     0.078452
     28 H                     0.073978
     29 H                     0.078444
     30 H                     0.074394
     31 H                     0.088029
     32 O                    -0.213704
     33 C                    -0.128709
     34 C                     0.024481
     35 C                    -0.144507
     36 C                    -0.143464
     37 C                     0.025590
     38 O                    -0.185857
     39 H                     0.085957
     40 H                     0.085787
     41 H                     0.092751
     42 H                     0.090351
     43 H                     0.078713
     44 H                     0.073396
     45 H                     0.078255
     46 H                     0.073332
     47 H                     0.083958
     48 H                     0.090290
     49 H                     0.090508
     50 H                     0.090070
     51 H                     0.090096
     52 H                     0.091945
     53 H                     0.083650
     54 H                     0.091019
     55 H                     0.101518
     56 H                     0.083891
  ----------------------------------------
  Sum of atomic charges =     0.000000

 -----------------------------------------------------------------
                    Cartesian Multipole Moments
 -----------------------------------------------------------------
    Charge (ESU x 10^10)
                 0.0000
    Dipole Moment (Debye)
         X      -0.0242      Y       0.4136      Z      -0.6442
       Tot       0.7659
    Quadrupole Moments (Debye-Ang)
        XX    -166.4364     XY      10.6463     YY    -147.7609
        XZ      23.2486     YZ       2.9485     ZZ    -167.6930
    Octopole Moments (Debye-Ang^2)
       XXX      -8.3057    XXY      48.7278    XYY     -42.5319
       YYY      38.1700    XXZ     -36.5176    XYZ       6.4142
       YYZ      -7.5464    XZZ       6.1568    YZZ       2.6263
       ZZZ      -4.8747
    Hexadecapole Moments (Debye-Ang^3)
      XXXX  -20860.8681   XXXY      97.7395   XXYY   -3992.9241
      XYYY    -477.6528   YYYY   -3267.0772   XXXZ     490.8902
      XXYZ      93.8480   XYYZ     -59.2014   YYYZ     -29.1895
      XXZZ   -3713.4367   XYZZ    -167.7133   YYZZ    -686.5911
      XZZZ     -40.4041   YZZZ     -14.5502   ZZZZ    -656.5743
 -----------------------------------------------------------------
 Calculating analytic gradient of the SCF energy
 Gradient of SCF Energy
            1           2           3           4           5           6
    1   0.0006625  -0.0006209  -0.0001025   0.0008975  -0.0014779  -0.0004923
    2  -0.0001228   0.0000568  -0.0002513  -0.0040397   0.0001198   0.0070330
    3   0.0005934   0.0000443  -0.0013460   0.0023525  -0.0005381  -0.0008146
            7           8           9          10          11          12
    1  -0.0008097   0.0003713  -0.0002042   0.0009799  -0.0016130   0.0014048
    2  -0.0057043  -0.0001410   0.0014007   0.0012960  -0.0022759   0.0005579
    3   0.0007425  -0.0005605  -0.0005091  -0.0011230   0.0042022  -0.0036242
           13          14          15          16          17          18
    1  -0.0003991  -0.0003756  -0.0002349   0.0002648  -0.0001637   0.0001066
    2   0.0003912  -0.0004996  -0.0000514  -0.0006252  -0.0013315  -0.0000000
    3  -0.0008753   0.0035770  -0.0002682  -0.0016771   0.0006128  -0.0000591
           19          20          21          22          23          24
    1   0.0003397  -0.0002255   0.0001005  -0.0010238  -0.0004269   0.0002792
    2   0.0010491   0.0001447  -0.0002379   0.0000895   0.0007936  -0.0008565
    3   0.0000115  -0.0002135   0.0001912  -0.0002181   0.0001302   0.0002280
           25          26          27          28          29          30
    1   0.0011572   0.0000205  -0.0001203   0.0000366   0.0001162  -0.0000150
    2  -0.0002243   0.0001109  -0.0000629   0.0000455   0.0001104  -0.0000550
    3  -0.0004039   0.0000207  -0.0000583   0.0000867   0.0000219  -0.0001024
           31          32          33          34          35          36
    1  -0.0001881  -0.0008119  -0.0000652  -0.0004006   0.0001379  -0.0003211
    2  -0.0000174   0.0008505   0.0001687   0.0002295  -0.0000483   0.0001822
    3  -0.0001378  -0.0008835  -0.0000586  -0.0002614   0.0001751  -0.0006229
           37          38          39          40          41          42
    1  -0.0003789  -0.0000484   0.0002978   0.0002960   0.0000250  -0.0000079
    2   0.0003280  -0.0000667  -0.0000861  -0.0001598  -0.0000326  -0.0001201
    3   0.0003584  -0.0000452   0.0000021   0.0003950  -0.0000137   0.0000468
           43          44          45          46          47          48
    1   0.0000316   0.0000767   0.0000502   0.0001072  -0.0000199   0.0000125
    2   0.0000153   0.0000112  -0.0000698  -0.0000657  -0.0001344  -0.0000446
    3   0.0000015  -0.0000184   0.0000216   0.0001183   0.0001003  -0.0000416
           49          50          51          52          53          54
    1   0.0000584   0.0000121   0.0000516  -0.0000351  -0.0002502   0.0000704
    2  -0.0000778   0.0000268  -0.0000630  -0.0000034   0.0000430   0.0001678
    3   0.0000093  -0.0000168   0.0000413   0.0000702  -0.0002684   0.0001958
           55          56
    1   0.0022889   0.0005790
    2   0.0015243   0.0007227
    3  -0.0002526   0.0006621
 Max gradient component =       7.033E-03
 RMS gradient           =       1.087E-03
 Gradient time:  CPU 28.39 s  wall 0.60 s
 Geometry Optimization Parameters
   NAtoms,    NIC,     NZ,  NCons,   NDum,   NFix, NCnnct, MaxDiis
       56     458       0       0       0       0       0       0

 Cartesian Hessian Update
 Hessian Updated using BFGS Update


** GEOMETRY OPTIMIZATION IN DELOCALIZED INTERNAL COORDINATES **
   Searching for a Minimum

   Optimization Cycle:   3

                       Coordinates (Angstroms)
     ATOM                X               Y               Z
      1  O        -6.2650912712    1.4267138444    0.9798721330
      2  C        -5.4716197993    1.1435400316    0.0588556777
      3  C        -5.2461242999   -0.2514366582   -0.6275814958
      4  C        -3.7476108859   -0.7627945877   -0.4787359284
      5  C        -2.7756514020    0.2794510680    0.1810515436
      6  O        -1.8959379312    0.8118792589   -0.8295003496
      7  C        -0.6806594067    1.3906667073   -0.2100436820
      8  C         0.5660298946    0.6220003077   -0.7735759221
      9  O         1.6996304412    0.9145367578    0.1380150077
     10  C         2.9290919185    0.4455168219   -0.4401943107
     11  C         4.0890268611    0.8102363480    0.5542411911
     12  C         5.2186309066   -0.2838232455    0.6951898192
     13  C         4.8609492757   -1.7936749137    0.4601185578
     14  O         5.6740228141   -2.7419516306    0.5358309357
     15  O        -4.5647631858    2.0765336879   -0.5425234808
     16  O         3.4562276995   -1.9742384190    0.2661580091
     17  O         3.0147668632   -0.0623964505   -1.5774039347
     18  C         3.1457910523   -3.4109545841    0.0906461590
     19  C         4.9278633676    1.9651215615   -0.1541443042
     20  C         6.0846106255    2.4738636898    0.7968418730
     21  C         7.1687145683    1.3481894129    0.6011902914
     22  C         6.3507387766    0.3133019498   -0.2632337068
     23  O         5.6288908744    1.1945519394   -1.2087234188
     24  H         3.6620052330    1.0997252821    1.5297675047
     25  H         5.6095145940   -0.2528878983    1.7301337535
     26  H         4.3078500904    2.7643161140   -0.6050996807
     27  H         6.4523179107    3.4583320631    0.4674481854
     28  H         5.7454996910    2.5563609279    1.8421455249
     29  H         8.0345044031    1.7216206384    0.0306769748
     30  H         7.5257410772    0.9220632688    1.5521537350
     31  H         6.9478465898   -0.4437836717   -0.8075049650
     32  O        -2.7041783681    0.5799338315    1.3923297223
     33  C        -4.6429518212    3.3832988711    0.1490830621
     34  C        -6.0309918129   -1.3784682371    0.1574215941
     35  C        -6.0121900199   -2.7071542935   -0.6956956143
     36  C        -4.5349659276   -3.1995806928   -0.4647072933
     37  C        -3.9683328027   -2.0391654449    0.4452685173
     38  O        -5.1236426013   -1.6717558536    1.2925967275
     39  H        -5.5377138178   -0.1856251390   -1.6916535239
     40  H        -3.3271539500   -1.0408002131   -1.4607143275
     41  H        -4.3106325711    3.2982967781    1.2041652603
     42  H        -7.0225729693   -1.0578553575    0.5316491695
     43  H        -6.7455997007   -3.4294432149   -0.3035807498
     44  H        -6.2347911538   -2.5188536765   -1.7581995433
     45  H        -4.5103894374   -4.1576270696    0.0787402765
     46  H        -3.9686333780   -3.3102879480   -1.4031453094
     47  H        -3.0985832934   -2.3093793342    1.0749789953
     48  H        -5.6730590760    3.7934697149    0.1333099532
     49  H        -3.9631876222    4.0602107018   -0.4001046206
     50  H         2.0469537487   -3.4724414686   -0.0138274873
     51  H         3.4725354167   -4.0097812477    0.9653854042
     52  H         3.6278029928   -3.8228983367   -0.8191934270
     53  H         0.3524598542   -0.4699410356   -0.7931021155
     54  H         0.7978792036    0.9400459994   -1.8123836563
     55  H        -0.7235656573    1.2991166959    0.8965796964
     56  H        -0.6156457226    2.4701040191   -0.4651023890
   Point Group: c1    Number of degrees of freedom:   162


   Energy is  -1510.271681572

 Hessian Updated using BFGS Update

152 Hessian modes will be used to form the next step
  Hessian Eigenvalues:
     0.001779    0.002021    0.002046    0.002693    0.002825    0.004052
     0.004481    0.004574    0.004790    0.004971    0.005019    0.005059
     0.006597    0.006834    0.010470    0.011180    0.011683    0.013515
     0.020978    0.021663    0.022704    0.025285    0.026839    0.030668
     0.030847    0.034557    0.035611    0.036541    0.041020    0.042096
     0.042163    0.043522    0.046816    0.047194    0.049393    0.050863
     0.051060    0.051426    0.052933    0.053284    0.054406    0.055265
     0.055657    0.055804    0.056474    0.057434    0.058553    0.059759
     0.060391    0.060988    0.061554    0.062875    0.063883    0.064133
     0.064574    0.070028    0.070168    0.073058    0.073721    0.091147
     0.091919    0.092808    0.092933    0.096321    0.096749    0.097019
     0.097735    0.102804    0.102827    0.107299    0.109273    0.110059
     0.113265    0.123612    0.124217    0.134337    0.135912    0.158161
     0.158565    0.160000    0.160010    0.160088    0.163880    0.167341
     0.216148    0.219344    0.220133    0.223489    0.227140    0.230960
     0.238328    0.238788    0.239271    0.239634    0.241766    0.247854
     0.248117    0.248262    0.248458    0.249746    0.249943    0.252487
     0.253104    0.253734    0.256478    0.259606    0.260053    0.260432
     0.261522    0.265080    0.292582    0.292856    0.307369    0.307458
     0.323041    0.324611    0.325041    0.325162    0.326592    0.326688
     0.327149    0.327174    0.328691    0.328757    0.328902    0.328974
     0.329481    0.330801    0.330933    0.331040    0.332756    0.333041
     0.334460    0.334583    0.334857    0.334884    0.335042    0.335133
     0.335280    0.335415    0.341439    0.343329    0.344962    0.345324
     0.393968    0.399321    0.404926    0.410613    0.826626    0.832775
     0.838293    0.839035

 Minimum Search - Taking Simple RFO Step
 Searching for Lamda that Minimizes Along All modes
 Value Taken    Lamda =  -0.01100542
 Calculated Step too Large.  Step scaled by  0.370202
 Step Taken.  Stepsize is  0.300000

                             Maximum     Tolerance    Cnvgd?
         Gradient           0.005033      0.000300      NO
         Displacement       0.082925      0.001200      NO
         Energy change     -0.004315      0.000001      NO


 New Cartesian Coordinates Obtained by Inverse Iteration

 Displacement from previous Coordinates is:  3.795121
 Adding empirical dispersion correction 
 ----------------------------------------------------------------
 Doing -D3(op) with
 s6 =   1.00000
 s8 =   0.78311
 a1 =   0.30000
 a2 =   4.25000
 n  =  10.00000
 -D3 energy without 3body term =     -0.0644416921 hartrees
 ----------------------------------------------------------------
             Standard Nuclear Orientation (Angstroms)
    I     Atom           X                Y                Z
 ----------------------------------------------------------------
    1      O      -6.0423328857     1.4093346816     1.2131919946
    2      C      -5.3375740117     1.1440388626     0.2176943682
    3      C      -5.2749040520    -0.2034638699    -0.5876396625
    4      C      -3.8175639388    -0.8390789498    -0.5976067742
    5      C      -2.7254991723     0.0696545016     0.0626020503
    6      O      -1.8799183246     0.5985758648    -0.9736422765
    7      C      -0.6856671096     1.2387393924    -0.3768809513
    8      C       0.5941655230     0.4876873596    -0.8845254115
    9      O       1.6993063769     0.8692161491     0.0289190299
   10      C       2.9561979552     0.4111909172    -0.4948749705
   11      C       4.0788136317     0.8895357131     0.4943340914
   12      C       5.2148141387    -0.1707530536     0.7700649457
   13      C       4.8770835346    -1.6952657981     0.6268276743
   14      O       5.7006061138    -2.6295903556     0.7464727584
   15      O      -4.3819636820     2.0441716856    -0.3575207963
   16      O       3.4711506852    -1.8959830790     0.4632491596
   17      O       3.0863933802    -0.1600072592    -1.5973214387
   18      C       3.1678056415    -3.3418368444     0.3694888392
   19      C       4.9258830686     1.9902389378    -0.2830112832
   20      C       6.0376829512     2.6008729102     0.6626379617
   21      C       7.1448151740     1.4823203208     0.6077901453
   22      C       6.3766903290     0.3614882486    -0.1924850188
   23      O       5.6793599421     1.1423769378    -1.2382551164
   24      H       3.6123532487     1.2537086648     1.4260334044
   25      H       5.5661999202    -0.0535656407     1.8129263995
   26      H       4.3119840463     2.7353008750    -0.8255004739
   27      H       6.4041766112     3.5594980927     0.2628149766
   28      H       5.6565333220     2.7676985081     1.6830043818
   29      H       8.0263980358     1.8196667008     0.0393503386
   30      H       7.4706686825     1.1478059743     1.6055628438
   31      H       7.0052479679    -0.4292984278    -0.6459139377
   32      O      -2.5667258963     0.3007353690     1.2812221133
   33      C      -4.2976171876     3.2815343344     0.4511908251
   34      C      -6.0897450409    -1.3276129910     0.1708505958
   35      C      -6.2427339351    -2.5822828159    -0.7759700386
   36      C      -4.7980261883    -3.2032862116    -0.6982674898
   37      C      -4.0731703487    -2.1642265523     0.2447860459
   38      O      -5.1289542276    -1.7781145002     1.2060796546
   39      H      -5.6365809585    -0.0282630673    -1.6173761732
   40      H      -3.4928657590    -1.0692002630    -1.6274788232
   41      H      -3.9140311544     3.0684810183     1.4701961363
   42      H      -7.0217036002    -0.9627210060     0.6445809435
   43      H      -7.0027345446    -3.2748929397    -0.3807985343
   44      H      -6.5262397695    -2.2942539336    -1.8009601932
   45      H      -4.8127502957    -4.2000605690    -0.2294887163
   46      H      -4.3138163253    -3.2823991005    -1.6847315321
   47      H      -3.1840265593    -2.5473469782     0.7817530928
   48      H      -5.2841779906     3.7798786600     0.5408417635
   49      H      -3.5911914634     3.9459367583    -0.0793392574
   50      H       2.0680634737    -3.4154991158     0.2839309249
   51      H       3.5103565122    -3.8907887571     1.2703305607
   52      H       3.6401392646    -3.7990013847    -0.5238289124
   53      H       0.4203718374    -0.6108964425    -0.8500349451
   54      H       0.8326184437     0.7603314104    -1.9348778627
   55      H      -0.7530278743     1.1873332724     0.7318451207
   56      H      -0.6586806568     2.3063354555    -0.6800725321
 ----------------------------------------------------------------
 Molecular Point Group                 C1    NOp =  1
 Largest Abelian Subgroup              C1    NOp =  1
 Nuclear Repulsion Energy =  2992.7768011524 hartrees
 There are      113 alpha and      113 beta electrons
 Applying Cartesian multipole field
    Component          Value
    ---------          -----
     (2,0,0)        1.00000E-12
     (0,2,0)        2.00000E-11
     (0,0,2)       -3.00000E-11
 Nucleus-field energy     =     0.0000000545 hartrees
 Requested basis set is STO-3G
 There are 86 shells and 176 basis functions
 A cutoff of  1.0D-12 yielded   1966 shell pairs
 There are      9097 function pairs
 Smallest overlap matrix eigenvalue = 2.13E-01
 Guess MOs from SCF MO coefficient file
 Reading MOs from coefficient file
 Reading MOs from coefficient file
 A restricted hybrid HF-DFT SCF calculation will be
 performed using Pulay DIIS extrapolation
[...]
      7  C        -0.5743319531    1.5027125123   -0.8215869493
      8  C         0.6211279799    1.1798425829   -1.7834287877
      9  O         1.8633556796    1.6951327618   -1.1605618367
     10  C         2.8512533092    0.6530233443   -1.0847352953
     11  C         4.0881730171    1.2278927171   -0.3187156757
     12  C         4.3446985432    0.5269211591    1.0834510671
     13  C         3.3749452963   -0.6737379525    1.3815394699
     14  O         3.6979467805   -1.8285807201    1.7317867086
     15  O        -3.8028292199    1.4526734428    0.8418476900
     16  O         2.0266816185   -0.2346774993    1.1909997430
     17  O         2.7150191188   -0.4809737760   -1.5935979484
     18  C         1.0911898914   -1.3745493925    1.3572536003
     19  C         5.4570398554    0.9047772988   -1.0615254322
     20  C         6.5654457625    1.8680662880   -0.4815941642
     21  C         6.8188205401    1.2212440654    0.9310549332
     22  C         5.8235818473   -0.0039683432    0.8906561432
     23  O         5.8390154220   -0.4226506341   -0.5313945519
     24  H         3.9356599997    2.3144593011   -0.1968910649
     25  H         4.2649697530    1.2590129873    1.9082429719
     26  H         5.3843764751    0.8741815483   -2.1659283342
     27  H         7.4702389387    1.8332470385   -1.1090091735
     28  H         6.2184305561    2.9116865469   -0.4175320211
     29  H         7.8579028292    0.8704078201    1.0341849558
     30  H         6.5955187220    1.9107200840    1.7610464602
     31  H         6.0776168063   -0.8593314695    1.5465828629
     32  O        -1.6604805901   -0.4643905257    0.6697511807
     33  C        -3.3403285971    2.2133778013    2.0244624952
     34  C        -5.2115372805   -2.0605713048    0.3417911288
     35  C        -5.8880095757   -2.7335164304   -0.9156037966
     36  C        -4.6370715409   -2.9710048159   -1.8417237479
     37  C        -3.4741342355   -2.3992005036   -0.9388052975
     38  O        -3.8987789585   -2.7410404319    0.4370016637
     39  H        -5.6253864753   -0.0610917571   -0.5917809613
     40  H        -3.7211616558   -0.4165922835   -1.9813057660
     41  H        -2.5644620226    1.6482598408    2.5811036097
     42  H        -5.7635913454   -2.1499107599    1.2976735400
     43  H        -6.3671585216   -3.6840466510   -0.6322047684
     44  H        -6.6445054502   -2.0807078802   -1.3795501571
     45  H        -4.4771678110   -4.0434062938   -2.0368069915
     46  H        -4.7140880929   -2.4443357797   -2.8063498021
     47  H        -2.4674876876   -2.8108201773   -1.1469256985
     48  H        -4.1763079577    2.4447605711    2.7147719779
     49  H        -2.9054414621    3.1517157946    1.6341454637
     50  H         0.0737926265   -0.9875666240    1.1253013152
     51  H         1.1188403619   -1.7655007631    2.3941462809
     52  H         1.3497132763   -2.2001683348    0.6643797279
     53  H         0.7285872219    0.0832969717   -1.9375466824
     54  H         0.4733458522    1.6722124239   -2.7678746443
     55  H        -0.3468145356    1.1380798983    0.2025813450
     56  H        -0.7678002086    2.5949240630   -0.7950140228
   Point Group: c1    Number of degrees of freedom:   162


   Energy is  -1510.291571402

 Hessian Updated using BFGS Update

162 Hessian modes will be used to form the next step
  Hessian Eigenvalues:
     0.001243    0.002046    0.002237    0.002772    0.003170    0.004544
     0.004872    0.005169    0.005251    0.006295    0.009136    0.010715
     0.013845    0.016478    0.017333    0.021405    0.021939    0.024070
     0.026350    0.026981    0.030492    0.030811    0.031838    0.032800
     0.034226    0.035289    0.036419    0.039299    0.040981    0.041783
     0.042284    0.042511    0.045541    0.047310    0.048136    0.051086
     0.051307    0.051715    0.052502    0.054345    0.055285    0.055793
     0.056397    0.056756    0.057422    0.057581    0.058563    0.061246
     0.063134    0.063473    0.063884    0.064181    0.065329    0.066038
     0.066757    0.069426    0.070495    0.072378    0.073236    0.074369
     0.092717    0.092830    0.095367    0.096432    0.097135    0.097479
     0.099781    0.102610    0.103003    0.106932    0.107771    0.111684
     0.115144    0.116433    0.124876    0.135680    0.136664    0.145363
     0.150256    0.159967    0.159993    0.160139    0.160427    0.160845
     0.164324    0.171804    0.173159    0.174774    0.197366    0.211356
     0.218015    0.222403    0.231432    0.236134    0.236861    0.239342
     0.239799    0.240925    0.242073    0.244315    0.247246    0.248353
     0.249374    0.250554    0.251175    0.252697    0.253155    0.254787
     0.256343    0.258825    0.259076    0.261016    0.264800    0.267764
     0.271471    0.286262    0.293386    0.300494    0.301561    0.310194
     0.318294    0.323279    0.324856    0.325075    0.326492    0.326723
     0.326783    0.327260    0.327772    0.328708    0.328878    0.329178
     0.329804    0.329979    0.330961    0.331157    0.332376    0.332911
     0.333656    0.334614    0.334711    0.334869    0.334906    0.335036
     0.335274    0.335392    0.335704    0.337985    0.343280    0.345201
     0.360926    0.381986    0.403634    0.404144    0.413937    0.451658
     0.486369    0.825782    0.828405    0.838349    0.838988    1.805793

 Minimum Search - Taking Simple RFO Step
 Searching for Lamda that Minimizes Along All modes
 Value Taken    Lamda =  -0.00000162
 Step Taken.  Stepsize is  0.020550

                             Maximum     Tolerance    Cnvgd?
         Gradient           0.000138      0.000300     YES
         Displacement       0.007218      0.001200      NO
         Energy change     -0.000001      0.000001     YES

 Final energy is   -1510.29157140200     


 ******************************
 **  OPTIMIZATION CONVERGED  **
 ******************************

                       Coordinates (Angstroms)
     ATOM                X               Y               Z
      1  O        -4.7728074247   -0.0136739820    2.4384530412
      2  C        -4.4941650264    0.2650771750    1.2542734146
      3  C        -4.8199354494   -0.5724610845   -0.0329055823
      4  C        -3.5555605962   -0.8105500484   -0.9636479855
      5  C        -2.2494520497   -0.1615123899   -0.3946710799
      6  O        -1.8048354975    0.8368302403   -1.3170945532
      7  C        -0.5743319531    1.5027125123   -0.8215869493
      8  C         0.6211279799    1.1798425829   -1.7834287877
      9  O         1.8633556796    1.6951327618   -1.1605618367
     10  C         2.8512533092    0.6530233443   -1.0847352953
     11  C         4.0881730171    1.2278927171   -0.3187156757
     12  C         4.3446985432    0.5269211591    1.0834510671
     13  C         3.3749452963   -0.6737379525    1.3815394699
     14  O         3.6979467805   -1.8285807201    1.7317867086
     15  O        -3.8028292199    1.4526734428    0.8418476900
     16  O         2.0266816185   -0.2346774993    1.1909997430
     17  O         2.7150191188   -0.4809737760   -1.5935979484
     18  C         1.0911898914   -1.3745493925    1.3572536003
     19  C         5.4570398554    0.9047772988   -1.0615254322
     20  C         6.5654457625    1.8680662880   -0.4815941642
     21  C         6.8188205401    1.2212440654    0.9310549332
     22  C         5.8235818473   -0.0039683432    0.8906561432
     23  O         5.8390154220   -0.4226506341   -0.5313945519
     24  H         3.9356599997    2.3144593011   -0.1968910649
     25  H         4.2649697530    1.2590129873    1.9082429719
     26  H         5.3843764751    0.8741815483   -2.1659283342
     27  H         7.4702389387    1.8332470385   -1.1090091735
     28  H         6.2184305561    2.9116865469   -0.4175320211
     29  H         7.8579028292    0.8704078201    1.0341849558
     30  H         6.5955187220    1.9107200840    1.7610464602
     31  H         6.0776168063   -0.8593314695    1.5465828629
     32  O        -1.6604805901   -0.4643905257    0.6697511807
     33  C        -3.3403285971    2.2133778013    2.0244624952
     34  C        -5.2115372805   -2.0605713048    0.3417911288
     35  C        -5.8880095757   -2.7335164304   -0.9156037966
     36  C        -4.6370715409   -2.9710048159   -1.8417237479
     37  C        -3.4741342355   -2.3992005036   -0.9388052975
     38  O        -3.8987789585   -2.7410404319    0.4370016637
     39  H        -5.6253864753   -0.0610917571   -0.5917809613
     40  H        -3.7211616558   -0.4165922835   -1.9813057660
     41  H        -2.5644620226    1.6482598408    2.5811036097
     42  H        -5.7635913454   -2.1499107599    1.2976735400
     43  H        -6.3671585216   -3.6840466510   -0.6322047684
     44  H        -6.6445054502   -2.0807078802   -1.3795501571
     45  H        -4.4771678110   -4.0434062938   -2.0368069915
     46  H        -4.7140880929   -2.4443357797   -2.8063498021
     47  H        -2.4674876876   -2.8108201773   -1.1469256985
     48  H        -4.1763079577    2.4447605711    2.7147719779
     49  H        -2.9054414621    3.1517157946    1.6341454637
     50  H         0.0737926265   -0.9875666240    1.1253013152
     51  H         1.1188403619   -1.7655007631    2.3941462809
     52  H         1.3497132763   -2.2001683348    0.6643797279
     53  H         0.7285872219    0.0832969717   -1.9375466824
     54  H         0.4733458522    1.6722124239   -2.7678746443
     55  H        -0.3468145356    1.1380798983    0.2025813450
     56  H        -0.7678002086    2.5949240630   -0.7950140228

Z-matrix Print:
$molecule
0 1
O 
C  1 1.253642
O  2 1.430118 1 124.766964
C  3 1.484273 2 110.829824 1 -1.995821 0
H  4 1.109532 3 107.761785 2 -124.883528 0
H  4 1.110694 3 109.291329 2 -5.751613 0
C  2 1.565536 1 126.896910 3 178.511243 0
H  7 1.103745 2 108.197316 1 -171.861962 0
C  4 1.567963 3 109.566887 2 114.833236 0
H  9 1.110586 4 110.549387 3 68.392641 0
H  9 1.112525 4 111.197339 3 -52.938383 0
O  9 1.482099 4 108.037461 3 -172.094363 0
C  12 1.437944 9 110.244234 4 126.731684 0
O  13 1.250380 12 124.121648 9 6.465434 0
C  13 1.564363 12 107.621030 9 -175.559965 0
H  15 1.103960 13 107.847862 12 -9.342700 0
C  7 1.587958 2 112.898662 1 64.170999 0
H  17 1.105709 7 110.676855 2 122.439544 0
C  17 1.569849 7 113.287667 2 0.198644 0
O  19 1.248049 17 127.769510 7 -129.134856 0
O  19 1.434721 17 107.813146 7 51.113412 0
C  21 1.480255 19 110.259914 17 -173.930610 0
H  22 1.105420 21 106.084250 19 -174.853897 0
H  22 1.108570 21 111.662472 19 -55.212800 0
H  22 1.109584 21 110.949019 19 66.263852 0
C  17 1.583737 7 101.225398 2 -118.713557 0
H  26 1.107455 17 113.782628 7 154.809795 0
O  26 1.481701 17 103.158772 7 35.149473 0
C  28 1.479872 26 95.071983 17 -57.013071 0
H  29 1.107286 28 110.471188 26 -179.900155 0
C  26 1.578452 17 108.547561 7 -74.307820 0
H  31 1.101547 26 110.447998 17 -167.750440 0
H  31 1.101677 26 112.156022 17 -46.304239 0
C  31 1.574467 26 101.091324 17 74.086883 0
H  34 1.101668 31 111.488371 26 117.625020 0
H  34 1.101733 31 112.790617 26 -119.762630 0
C  15 1.588470 13 113.438478 12 114.088206 0
H  37 1.105711 15 110.770752 13 -118.588465 0
C  37 1.571897 15 113.880631 13 4.228706 0
O  39 1.249266 37 126.852215 15 128.388586 0
O  39 1.430697 37 108.767098 15 -51.799006 0
C  41 1.483945 39 110.086299 37 175.414775 0
H  42 1.108402 41 110.799168 39 -56.303604 0
H  42 1.108492 41 111.099314 39 64.301917 0
H  42 1.112949 41 106.609522 39 -175.973568 0
C  37 1.583070 15 101.031558 13 122.184452 0
H  46 1.107438 37 113.652056 15 -156.410869 0
O  46 1.482485 37 102.782867 15 -37.167890 0
C  48 1.479530 46 95.027309 37 57.790045 0
H  49 1.107214 48 110.459897 46 -179.591375 0
C  49 1.578863 48 103.564345 46 56.257676 0
H  51 1.101596 49 110.372554 48 82.561379 0
H  51 1.101665 49 112.221968 48 -155.938352 0
C  51 1.574216 49 101.064691 48 -35.494847 0
H  54 1.101551 51 111.512451 49 118.232096 0
H  54 1.101874 51 112.719745 49 -119.229914 0
$end

 
 --------------------------------------------------------------
 
                    Orbital Energies (a.u.)
 --------------------------------------------------------------
 
 Alpha MOs
 -- Occupied --
-18.942 -18.940 -18.929 -18.925 -18.891 -18.885 -18.884 -18.883
-18.871 -18.870 -10.111 -10.106 -10.098 -10.093 -10.071 -10.069
-10.067 -10.064 -10.061 -10.058 -10.055 -10.044 -10.043 -10.039
-10.036 -10.034 -10.023 -10.022 -10.019 -10.017  -1.023  -1.014
 -1.010  -1.001  -0.973  -0.967  -0.946  -0.943  -0.933  -0.928
 -0.768  -0.761  -0.729  -0.723  -0.714  -0.705  -0.696  -0.667
 -0.648  -0.619  -0.598  -0.579  -0.550  -0.542  -0.541  -0.535
 -0.515  -0.506  -0.484  -0.474  -0.467  -0.459  -0.457  -0.447
 -0.439  -0.432  -0.428  -0.419  -0.417  -0.408  -0.401  -0.399
 -0.395  -0.383  -0.380  -0.364  -0.363  -0.359  -0.355  -0.353
 -0.348  -0.337  -0.335  -0.332  -0.329  -0.326  -0.323  -0.313
 -0.309  -0.307  -0.304  -0.300  -0.291  -0.289  -0.282  -0.277
 -0.269  -0.259  -0.256  -0.246  -0.243  -0.237  -0.231  -0.188
 -0.183  -0.170  -0.168  -0.166  -0.158  -0.156  -0.147  -0.146
 -0.141
 -- Virtual --
  0.084   0.097   0.102   0.114   0.206   0.231   0.242   0.256
  0.267   0.280   0.282   0.287   0.301   0.314   0.325   0.328
  0.340   0.340   0.344   0.350   0.356   0.363   0.367   0.372
  0.380   0.385   0.388   0.391   0.395   0.406   0.406   0.413
  0.414   0.416   0.421   0.421   0.425   0.426   0.428   0.430
  0.434   0.435   0.441   0.442   0.443   0.448   0.456   0.464
  0.469   0.482   0.485   0.490   0.498   0.505   0.508   0.537
  0.544   0.548   0.554   0.638   0.644   0.651   0.657
 --------------------------------------------------------------
 
          Ground-State Mulliken Net Atomic Charges

     Atom                 Charge (a.u.)
  ----------------------------------------
      1 O                    -0.204537
      2 C                     0.214083
      3 C                    -0.078173
      4 C                    -0.078355
      5 C                     0.221336
      6 O                    -0.168242
      7 C                    -0.054681
      8 C                    -0.055367
      9 O                    -0.174335
     10 C                     0.214865
     11 C                    -0.079378
     12 C                    -0.078354
     13 C                     0.211508
     14 O                    -0.209019
     15 O                    -0.172657
     16 O                    -0.177293
     17 O                    -0.216510
     18 C                    -0.145261
     19 C                     0.025536
     20 C                    -0.143651
     21 C                    -0.144447
     22 C                     0.024190
     23 O                    -0.186755
     24 H                     0.085450
     25 H                     0.083924
     26 H                     0.083295
     27 H                     0.077779
     28 H                     0.072907
     29 H                     0.078109
     30 H                     0.072733
     31 H                     0.091245
     32 O                    -0.221371
     33 C                    -0.129341
     34 C                     0.024463
     35 C                    -0.143937
     36 C                    -0.143743
     37 C                     0.025756
     38 O                    -0.185975
     39 H                     0.086262
     40 H                     0.088131
     41 H                     0.093066
     42 H                     0.091504
     43 H                     0.079373
     44 H                     0.073440
     45 H                     0.079527
     46 H                     0.074137
     47 H                     0.084643
     48 H                     0.092349
     49 H                     0.090353
     50 H                     0.110200
     51 H                     0.083126
     52 H                     0.085645
     53 H                     0.100211
     54 H                     0.082717
     55 H                     0.103106
     56 H                     0.086413
  ----------------------------------------
  Sum of atomic charges =     0.000000

 -----------------------------------------------------------------
                    Cartesian Multipole Moments
 -----------------------------------------------------------------
    Charge (ESU x 10^10)
                -0.0000
    Dipole Moment (Debye)
         X      -1.9541      Y       3.6664      Z      -1.4970
       Tot       4.4161
    Quadrupole Moments (Debye-Ang)
        XX    -149.8450     XY      13.1172     YY    -159.6041
        XZ      11.6128     YZ       6.6435     ZZ    -160.7325
    Octopole Moments (Debye-Ang^2)
       XXX     -85.4015    XXY      79.5991    XYY     -34.8603
       YYY      75.9276    XXZ     -27.6668    XYZ     -23.0876
       YYZ      -9.7639    XZZ      -0.7593    YZZ      34.1224
       ZZZ     -26.6276
    Hexadecapole Moments (Debye-Ang^3)
      XXXX  -15915.5902   XXXY    -883.8333   XXYY   -3147.4622
      XYYY   -1306.7159   YYYY   -2377.0248   XXXZ     209.7059
      XXYZ      46.3212   XYYZ     -35.6343   YYYZ     -21.6423
      XXZZ   -3075.3664   XYZZ    -429.5499   YYZZ    -661.1396
      XZZZ     -35.7895   YZZZ     -74.5186   ZZZZ   -1630.8138
 -----------------------------------------------------------------
Archival summary:
1\1\vega02.cac.cornell.edu\OPT\ProcedureUnspecified\STO-3G\102026\jj585\SatJan1319:11:542018SatJan1319:11:542018\0\\#,OPT,ProcedureUnspecified,STO-3G,\\0,1\O\C,1,1.25364\O,2,1.43012,1,124.767\C,3,1.48427,2,110.83,1,-1.99582,0\H,4,1.10953,3,107.762,2,-124.884,0\H,4,1.11069,3,109.291,2,-5.75161,0\C,2,1.56554,1,126.897,3,178.511,0\H,7,1.10375,2,108.197,1,-171.862,0\C,4,1.56796,3,109.567,2,114.833,0\H,9,1.11059,4,110.549,3,68.3926,0\H,9,1.11253,4,111.197,3,-52.9384,0\O,9,1.4821,4,108.037,3,-172.094,0\C,12,1.43794,9,110.244,4,126.732,0\O,13,1.25038,12,124.122,9,6.46543,0\C,13,1.56436,12,107.621,9,-175.56,0\H,15,1.10396,13,107.848,12,-9.3427,0\C,7,1.58796,2,112.899,1,64.171,0\H,17,1.10571,7,110.677,2,122.44,0\C,17,1.56985,7,113.288,2,0.198644,0\O,19,1.24805,17,127.77,7,-129.135,0\O,19,1.43472,17,107.813,7,51.1134,0\C,21,1.48026,19,110.26,17,-173.931,0\H,22,1.10542,21,106.084,19,-174.854,0\H,22,1.10857,21,111.662,19,-55.2128,0\H,22,1.10958,21,110.949,19,66.2639,0\C,17,1.58374,7,101.225,2,-118.714,0\H,26,1.10745,17,113.783,7,154.81,0\O,26,1.4817,17,103.159,7,35.1495,0\C,28,1.47987,26,95.072,17,-57.0131,0\H,29,1.10729,28,110.471,26,-179.9,0\C,26,1.57845,17,108.548,7,-74.3078,0\H,31,1.10155,26,110.448,17,-167.75,0\H,31,1.10168,26,112.156,17,-46.3042,0\C,31,1.57447,26,101.091,17,74.0869,0\H,34,1.10167,31,111.488,26,117.625,0\H,34,1.10173,31,112.791,26,-119.763,0\C,15,1.58847,13,113.438,12,114.088,0\H,37,1.10571,15,110.771,13,-118.588,0\C,37,1.5719,15,113.881,13,4.22871,0\O,39,1.24927,37,126.852,15,128.389,0\O,39,1.4307,37,108.767,15,-51.799,0\C,41,1.48395,39,110.086,37,175.415,0\H,42,1.1084,41,110.799,39,-56.3036,0\H,42,1.10849,41,111.099,39,64.3019,0\H,42,1.11295,41,106.61,39,-175.974,0\C,37,1.58307,15,101.032,13,122.184,0\H,46,1.10744,37,113.652,15,-156.411,0\O,46,1.48248,37,102.783,15,-37.1679,0\C,48,1.47953,46,95.0273,37,57.79,0\H,49,1.10721,48,110.46,46,-179.591,0\C,49,1.57886,48,103.564,46,56.2577,0\H,51,1.1016,49,110.373,48,82.5614,0\H,51,1.10167,49,112.222,48,-155.938,0\C,51,1.57422,49,101.065,48,-35.4948,0\H,54,1.10155,51,111.512,49,118.232,0\H,54,1.10187,51,112.72,49,-119.23,0\\\@

 Total job time:  90.12s(wall), 4291.21s(cpu) 
 Sat Jan 13 19:11:54 2018

        *************************************************************
        *                                                           *
        *  Thank you very much for using Q-Chem.  Have a nice day.  *
        *                                                           *
        *************************************************************


0 sent ACK to 0 
now end server 0 ... 
