mFile = /opt/software/qchem/qchem-5.0.1//bin/mpi/machines
Process 0 of 1 is on vega02.cac.cornell.edu - thread support 0
initial socket setup ...start
initial socket setup ...done 
now start server 0 ... 
vega02.cac.cornell.edu 10.84.3
Q-Chem Developer Version! Running on 10.84.3.*
                  Welcome to Q-Chem
     A Quantum Leap Into The Future Of Chemistry


 Q-Chem 5.0, Q-Chem, Inc., Pleasanton, CA (2017)

 Yihan Shao,  Zhengting Gan,  E. Epifanovsky,  A. T. B. Gilbert,  M. Wormit,  
 J. Kussmann,  A. W. Lange,  A. Behn,  Jia Deng,  Xintian Feng,  D. Ghosh,  
 M. Goldey,  P. R. Horn,  L. D. Jacobson,  I. Kaliman,  T. Kus,  A. Landau,  
 Jie Liu,  E. I. Proynov,  R. M. Richard,  R. P. Steele,  E. J. Sundstrom,  
 H. L. Woodcock III,  P. M. Zimmerman,  D. Zuev,  B. Albrecht,  E. Alguire,  
 S. A. Baeppler,  Z. Benda,  Y. A. Bernard,  E. J. Berquist,  K. B. Bravaya,  
 D. Casanova,  Chun-Min Chang,  Yunqing Chen,  A. Chien,  K. D. Closser,  
 M. P. Coons,  S. Dasgupta,  M. Diedenhofen,  Hainam Do,  R. G. Edgar,  
 Po-Tung Fang,  S. Fatehi,  Qingguo Feng,  Qinghui Ge,  A. Ghysels,  
 J. Gomes,  J. Gonthier,  A. Gunina,  M. W. D. Hanson-Heine,  
 P. H. P. Harbach,  A. W. Hauser,  J. E. Herr,  E. G. Hohenstein,  
 Z. C. Holden,  Kerwin Hui,  T.-C. Jagau,  Hyunjun Ji,  B. Kaduk,  
 K. Khistyaev,  Jaehoon Kim,  P. Klunzinger,  K. Koh,  D. Kosenkov,  
 T. Kowalczyk,  C. M. Krauter,  A. Kunitsa,  Ka Un Lao,  A. Laurent,  
 K. V. Lawler,  Joonho Lee,  D. Lefrancois,  S. Lehtola,  D. S. Levine,  
 Yi-Pei Li,  You-Sheng Lin,  Fenglai Liu,  E. Livshits,  A. Luenser,  
 P. Manohar,  E. Mansoor,  S. F. Manzer,  Shan-Ping Mao,  Yuezhi Mao,  
 N. Mardirossian,  A. V. Marenich,  L. A. Martinez-Martinez,  S. A. Maurer,  
 N. J. Mayhall,  S. C. McKenzie,  J.-M. Mewes,  A. F. Morrison,  K. Nanda,  
 T. S. Nguyen-Beck,  R. Olivares-Amaya,  J. A. Parkhill,  T. M. Perrine,  
 F. Plasser,  S. Prager,  A. Prociuk,  D. R. Rehn,  F. Rob,  M. Schneider,  
 N. Sergueev,  S. M. Sharada,  S. Sharma,  D. W. Small,  T. Stauch,  
 T. Stein,  Yu-Chuan Su,  A. J. W. Thom,  T. Tsuchimochi,  L. Vogt,  
 O. Vydrov,  M. A. Watson,  J. Wenzel,  M. de Wergifosse,  T. A. Wesolowski,  
 A. White,  J. Witte,  A. Yamada,  Jun Yang,  K. Yao,  S. Yeganeh,  
 S. R. Yost,  Zhi-Qiang You,  A. Zech,  Igor Ying Zhang,  Xing Zhang,  
 Yan Zhao,  Ying Zhu,  B. R. Brooks,  G. K. L. Chan,  C. J. Cramer,  
 M. S. Gordon,  W. J. Hehre,  A. Klamt,  M. W. Schmidt,  C. D. Sherrill,  
 D. G. Truhlar,  A. Aspuru-Guzik,  R. Baer,  A. T. Bell,  N. A. Besley,  
 Jeng-Da Chai,  A. Dreuw,  B. D. Dunietz,  T. R. Furlani,  Chao-Ping Hsu,  
 Yousung Jung,  Jing Kong,  D. S. Lambrecht,  WanZhen Liang,  C. Ochsenfeld,  
 V. A. Rassolov,  L. V. Slipchenko,  J. E. Subotnik,  T. Van Voorhis,  
 J. M. Herbert,  A. I. Krylov,  P. M. W. Gill,  M. Head-Gordon

 Contributors to earlier versions of Q-Chem not listed above: 
 R. D. Adamson,  B. Austin,  J. Baker,  G. J. O. Beran,  K. Brandhorst,  
 S. T. Brown,  E. F. C. Byrd,  A. K. Chakraborty,  C.-L. Cheng,  
 Siu Hung Chien,  D. M. Chipman,  D. L. Crittenden,  H. Dachsel,  
 R. A. DiStasio Jr.,  R. J. Doerksen,  A. D. Dutoi,  L. Fusti-Molnar,  
 W. A. Goddard III,  A. Golubeva-Zadorozhnaya,  S. R. Gwaltney,  G. Hawkins,  
 A. Heyden,  S. Hirata,  G. Kedziora,  F. J. Keil,  C. Kelley,  Jihan Kim,  
 R. A. King,  R. Z. Khaliullin,  P. P. Korambath,  W. Kurlancheek,  
 A. M. Lee,  M. S. Lee,  S. V. Levchenko,  Ching Yeh Lin,  D. Liotard,  
 R. C. Lochan,  I. Lotan,  P. E. Maslen,  N. Nair,  D. P. O'Neill,  
 D. Neuhauser,  E. Neuscamman,  C. M. Oana,  R. Olson,  B. Peters,  
 R. Peverati,  P. A. Pieniazek,  Y. M. Rhee,  J. Ritchie,  M. A. Rohrdanz,  
 E. Rosta,  N. J. Russ,  H. F. Schaefer III,  N. E. Schultz,  N. Shenvi,  
 A. C. Simmonett,  A. Sodt,  D. Stuck,  K. S. Thanthiriwatte,  V. Vanovschi,  
 Tao Wang,  A. Warshel,  C. F. Williams,  Q. Wu,  X. Xu,  W. Zhang

 Please cite Q-Chem as follows:
 Y. Shao et al., Mol. Phys. 113, 184-215 (2015)
 DOI: 10.1080/00268976.2014.952696

 Q-Chem 5.0.1 for Intel X86 EM64T Linux

 Parts of Q-Chem use Armadillo 5.200.1 (Boston Tea Smuggler).
 http://arma.sourceforge.net/

 Q-Chem begins on Sat Jan 13 19:31:19 2018  

Host: vega02.cac.cornell.edu
0

     Scratch files written to /scratch/jj585/SOT1001/0180r.save//
 Parallel job on  1  processors

Checking the input file for inconsistencies... 	...done.

--------------------------------------------------------------
User input:
--------------------------------------------------------------
$molecule
0  1
O 5.9615700333 -2.4988703292 0.0609542018
C 5.1410876443 -1.605687001 -0.2426357718
C 5.355357866 -0.060389453 -0.0809342922
C 4.1248996899 0.8809898938 -0.4099841682
C 2.7158385141 0.1682788567 -0.4466115179
O 2.1698451306 0.3221086224 -1.7732891394
C 0.7261722071 0.6534928851 -1.8471713669
C -0.2046962941 0.3757022865 -0.6112061745
O -1.5696612306 0.6697174876 -1.1283168632
C -2.5340306364 0.5349851722 -0.077637101
C -3.9342479386 0.9458638166 -0.6578406449
C -5.0258927884 -0.2039232973 -0.5736151574
C -4.4357177955 -1.5654388144 -0.0592024902
O -3.3133134112 -2.0371320341 -0.3476204777
O 3.9172215275 -1.8577894095 -0.937643954
O -5.3974853668 -2.2338645488 0.7588388851
O -2.2524371564 0.2298197278 1.1007612212
C -4.8497884939 -3.5280106338 1.2277151582
C -4.6178957672 2.0556983745 0.2533907308
C -5.8304479299 2.6818910636 -0.5442729509
C -6.9011958818 1.5352491695 -0.4214203305
C -6.0942268839 0.4533413312 0.3975482318
O -5.2694150114 1.2641577285 1.3214108819
H -3.7900115857 1.2917057335 -1.6960284007
H -5.4646772036 -0.3922751641 -1.5717201364
H -3.9126518543 2.788228643 0.6916914915
H -6.1728369726 3.6096635566 -0.059049181
H -5.5651778277 2.9071094017 -1.5895929377
H -7.7842144184 1.8669990424 0.1474023514
H -7.2336381179 1.1548151082 -1.400538118
H -6.7037945355 -0.2802342918 0.958842222
O 2.1147159633 -0.3159959511 0.5345444068
C 3.6917356506 -3.3112775496 -1.098089241
C 5.7153447235 0.388785165 1.4026460673
C 6.5507563832 1.7233622624 1.3023607573
C 5.4354115741 2.7338041002 0.8414237667
C 4.1487099382 1.8155725331 0.8771534279
O 4.4242185115 0.8466692896 1.9637023455
H 6.1984407961 0.1936789459 -0.7511903076
H 4.2707592051 1.4319721285 -1.3547321299
H 3.5804720655 -3.8142708576 -0.1158647236
H 6.1575378042 -0.4098045081 2.0296276974
H 6.955588964 1.9955152993 2.2903281489
H 7.3843310085 1.6472202215 0.5859113548
H 5.3317614204 3.5746522962 1.5451767605
H 5.6211293798 3.139223433 -0.1662293346
H 3.1979033201 2.3487849412 1.0713732197
H 4.5242774744 -3.7919523954 -1.651471775
H 2.7529851262 -3.4107412129 -1.6734522382
H -5.6255192279 -3.967587723 1.8813236041
H -3.9124103846 -3.3873354324 1.8034913162
H -4.6445902223 -4.2144460393 0.3807421289
H -0.1329883391 -0.6791525348 -0.2730238974
H 0.0392743668 1.0322496307 0.2500868339
H 0.3222607326 0.0825867472 -2.7111600362
H 0.6466610334 1.735935226 -2.0986671029
$end

$rem
JOBTYPE                   OPT
METHOD                    B3LYP
DFT_D                     d3_op
BASIS                     STO-3G
GEOM_OPT_MAX_CYCLES       100
GEOM_OPT_TOL_GRADIENT     300
GEOM_OPT_TOL_DISPLACEMENT 1200
GEOM_OPT_TOL_ENERGY       100
SYMMETRY                  False
THRESH                    12
SCF_CONVERGENCE           8
MAX_SUB_FILE_NUM          128
MEM_STATIC                400
MEM_TOTAL                 4000
$end
--------------------------------------------------------------
 Adding empirical dispersion correction 
 ----------------------------------------------------------------
 Doing -D3(op) with
 s6 =   1.00000
 s8 =   0.78311
 a1 =   0.30000
 a2 =   4.25000
 n  =  10.00000
 -D3 energy without 3body term =     -0.0643034970 hartrees
 ----------------------------------------------------------------
             Standard Nuclear Orientation (Angstroms)
    I     Atom           X                Y                Z
 ----------------------------------------------------------------
    1      O       5.9968239691    -2.4447143109     0.1459177748
    2      C       5.1634946439    -1.5849161025    -0.2138654339
    3      C       5.3652961296    -0.0299614739    -0.1765040677
    4      C       4.1212211184     0.8724479976    -0.5591667530
    5      C       2.7186625128     0.1472359451    -0.5185610974
    6      O       2.1519553563     0.1923213607    -1.8447044483
    7      C       0.7042535784     0.5047720318    -1.9221625896
    8      C      -0.2058115677     0.3166066955    -0.6542237204
    9      O      -1.5809156438     0.5578273968    -1.1717940382
   10      C      -2.5285448029     0.4975162030    -0.0992034140
   11      C      -3.9409335056     0.8500118156    -0.6882457738
   12      C      -5.0201799997    -0.2988115273    -0.4979177670
   13      C      -4.4095694085    -1.6109531200     0.1120744986
   14      O      -3.2870215673    -2.0942926024    -0.1557693367
   15      O       3.9321041279    -1.9008400647    -0.8683191883
   16      O      -5.3528772286    -2.2214653065     0.9943594537
   17      O      -2.2269086303     0.2877529949     1.0949734817
   18      C      -4.7860464406    -3.4703615814     1.5543521908
   19      C      -4.6218278585     2.0218788021     0.1439563445
   20      C      -5.8518084089     2.5736053041    -0.6815211492
   21      C      -6.9096286461     1.4311117864    -0.4532527026
   22      C      -6.0804972413     0.4233359372     0.4352077588
   23      O      -5.2501148625     1.3107760416     1.2802966402
   24      H      -3.8151515906     1.1148622649    -1.7523311663
   25      H      -5.4716331689    -0.5682701965    -1.4714699225
   26      H      -3.9173185739     2.7923235532     0.5129532025
   27      H      -6.1959583120     3.5335495853    -0.2649854563
   28      H      -5.6039604144     2.7186653022    -1.7451537786
   29      H      -7.7874031241     1.7988664733     0.1013709660
   30      H      -7.2526406228     0.9725428606    -1.3945161520
   31      H      -6.6747747894    -0.2692289136     1.0612628548
   32      O       2.1365581563    -0.2639163878     0.5064489691
   33      C       3.7182281930    -3.3642654239    -0.9114196164
   34      C       5.7425385163     0.5367903604     1.2618420652
   35      C       6.5635880166     1.8664232032     1.0450010289
   36      C       5.4320267678     2.8283421510     0.5237230435
   37      C       4.1548302934     1.9049285373     0.6506221489
   38      O       4.4553978809     1.0262518598     1.8051148692
   39      H       6.1960561740     0.1780270813    -0.8773330154
   40      H       4.2480233908     1.3491200218    -1.5461369133
   41      H       3.6261031275    -3.7898774254     0.1086363881
   42      H       6.2014410437    -0.2066135821     1.9423897856
   43      H       6.9801447048     2.2183461572     2.0024283216
   44      H       7.3873291109     1.7415330075     0.3240315003
   45      H       5.3305945993     3.7207156819     1.1612325070
   46      H       5.5991583270     3.1553206287    -0.5152056491
   47      H       3.2018932110     2.4436776692     0.8171463651
   48      H       4.5471840284    -3.8797019741    -1.4382628666
   49      H       2.7721916483    -3.5162761787    -1.4628683742
   50      H      -5.5479313266    -3.8640197873     2.2520303595
   51      H      -3.8417705594    -3.2772460353     2.1030186307
   52      H      -4.5866457415    -4.2191390738     0.7604788779
   53      H      -0.1190915535    -0.7079531305    -0.2359118996
   54      H       0.0443831050     1.0404830918     0.1493976665
   55      H       0.2932833696    -0.1352831283    -2.7327103043
   56      H       0.6107301323     1.5635429493    -2.2560953111
 ----------------------------------------------------------------
 Molecular Point Group                 C1    NOp =  1
 Largest Abelian Subgroup              C1    NOp =  1
 Nuclear Repulsion Energy =  3005.6826937043 hartrees
 There are      113 alpha and      113 beta electrons
 Requested basis set is STO-3G
 There are 86 shells and 176 basis functions

 Total QAlloc Memory Limit   4000 MB
 Mega-Array Size       392 MB
 MEM_STATIC part       400 MB
 A cutoff of  1.0D-12 yielded   1949 shell pairs
 There are      9101 function pairs
 
 -------------------------------------------------------
 OpenMP Integral Computing Module                       
 Release: version 1.0, May 2013, Q-Chem Inc. Pittsburgh 
 -------------------------------------------------------
 Integral Job Info:
 Integral job number is                      11
 Integral operator is                         1
 short-range coefficients                     0
 long-range coefficients              100000000
 Omega coefficients                           0
 if combine SR and LR in K                    0
 Integral screening is                        0
 Integral computing path is                   2
 max size of driver memory is            800000
 size of driver memory is                 45569
 size of scratch memory is              1046100
 max col of scratch BK array                289
 max len of scratch array in speh3           22
 max len of scratch index in speh4            8
 max int batch size is                      520
 min int batch size is                       52
 fixed nKL is                                52
 max L of basis functions is                  1
 order of int derivative is                   0
 number of shells is                         86
 number of basis is                         176
 number of cartesian basis is               176
 number of contracted shell pairs          1949
 number of primitive shell pairs          10242
 maxK2 (contraction) of shell pair            9
 max number of K2 of shell pair               1
 max number of CS2 of shell pair            292
 max number of PS2 of shell pair           1184
 mem total for path MDJ                   49782
 -------------------------------------------------------
 Smallest overlap matrix eigenvalue = 2.13E-01

 Scale SEOQF with 1.000000e-02/1.000000e-01/1.000000e-01

 Standard Electronic Orientation quadrupole field applied
 Nucleus-field energy     =     0.0000000409 hartrees
 Guess from superposition of atomic densities
 Warning:  Energy on first SCF cycle will be non-variational
 A restricted hybrid HF-DFT SCF calculation will be
 performed using Pulay DIIS extrapolation
 Exchange:     0.2000 Hartree-Fock + 0.0800 Slater + 0.7200 B88
 Correlation:  0.1900 VWN1RPA + 0.8100 LYP
 Using SG-1 standard quadrature grid
 Dispersion:   Grimme D3
 SCF converges when DIIS error is below 1.0E-08
 using 48 threads for integral computing
 -------------------------------------------------------
 OpenMP Integral computing Module                
 Release: version 1.0, May 2013, Q-Chem Inc. Pittsburgh 
 -------------------------------------------------------
 -------------------------------------------------------
 OpenMP BLAS3 based DFT computing Module                
 Release: version 1.0, May 2013, Q-Chem Inc. Pittsburgh 
 -------------------------------------------------------
 ---------------------------------------
  Cycle       Energy         DIIS Error
 ---------------------------------------
    1   -1507.6095357315      7.46E-02
    2   -1509.7083696444      1.05E-02
    3   -1507.2878966198      2.74E-02
    4   -1510.1673479466      4.56E-03
    5   -1510.2522855535      1.49E-03
    6   -1510.2615404671      4.18E-04
    7   -1510.2622097204      1.62E-04
    8   -1510.2623183991      3.79E-05
    9   -1510.2623241084      1.43E-05
   10   -1510.2623249127      5.14E-06
   11   -1510.2623250205      1.69E-06
   12   -1510.2623250340      2.95E-07
   13   -1510.2623250342      1.59E-07
   14   -1510.2623250342      7.43E-08
   15   -1510.2623250343      1.42E-08
   16   -1510.2623250344      5.44E-09 Convergence criterion met
 ---------------------------------------
 SCF time:  CPU 114.34 s  wall 2.46 s
 SCF   energy in the final basis set = -1510.26232503
 Total energy in the final basis set = -1510.26232503
 
 --------------------------------------------------------------
 
                    Orbital Energies (a.u.)
 --------------------------------------------------------------
 
 Alpha MOs
 -- Occupied --
-18.942 -18.936 -18.922 -18.912 -18.888 -18.885 -18.875 -18.873
-18.869 -18.863 -10.102 -10.099 -10.097 -10.090 -10.069 -10.066
-10.063 -10.063 -10.060 -10.059 -10.058 -10.056 -10.037 -10.036
-10.033 -10.032 -10.021 -10.019 -10.019 -10.018  -1.014  -1.012
 -1.001  -0.995  -0.969  -0.968  -0.938  -0.936  -0.929  -0.924
 -0.762  -0.760  -0.724  -0.721  -0.711  -0.704  -0.693  -0.662
 -0.660  -0.614  -0.595  -0.579  -0.544  -0.543  -0.536  -0.536
 -0.512  -0.509  -0.480  -0.471  -0.460  -0.450  -0.448  -0.445
 -0.437  -0.431  -0.428  -0.412  -0.410  -0.410  -0.409  -0.393
 -0.383  -0.377  -0.372  -0.368  -0.365  -0.354  -0.353  -0.346
 -0.346  -0.337  -0.331  -0.328  -0.327  -0.322  -0.319  -0.313
 -0.309  -0.306  -0.302  -0.296  -0.294  -0.291  -0.281  -0.273
 -0.272  -0.255  -0.251  -0.244  -0.233  -0.232  -0.229  -0.179
 -0.178  -0.167  -0.159  -0.155  -0.154  -0.146  -0.142  -0.140
 -0.138
 -- Virtual --
  0.097   0.098   0.104   0.114   0.213   0.237   0.244   0.252
  0.255   0.281   0.282   0.291   0.310   0.319   0.328   0.329
  0.330   0.343   0.344   0.348   0.354   0.360   0.370   0.374
  0.378   0.383   0.385   0.398   0.406   0.409   0.412   0.413
  0.418   0.419   0.423   0.424   0.425   0.426   0.432   0.432
  0.438   0.438   0.439   0.440   0.450   0.452   0.455   0.457
  0.467   0.469   0.480   0.490   0.490   0.506   0.508   0.540
  0.541   0.552   0.554   0.637   0.639   0.656   0.663
 --------------------------------------------------------------
 
          Ground-State Mulliken Net Atomic Charges

     Atom                 Charge (a.u.)
  ----------------------------------------
      1 O                    -0.213755
      2 C                     0.211841
      3 C                    -0.079732
      4 C                    -0.079157
      5 C                     0.222125
      6 O                    -0.184036
      7 C                    -0.048436
      8 C                    -0.049425
      9 O                    -0.177348
     10 C                     0.210307
     11 C                    -0.080055
     12 C                    -0.078459
     13 C                     0.212851
     14 O                    -0.213517
     15 O                    -0.164730
     16 O                    -0.168462
     17 O                    -0.211865
     18 C                    -0.127445
     19 C                     0.025698
     20 C                    -0.144313
     21 C                    -0.143929
     22 C                     0.023522
     23 O                    -0.187043
     24 H                     0.084080
     25 H                     0.083630
     26 H                     0.082857
     27 H                     0.077581
     28 H                     0.072977
     29 H                     0.077709
     30 H                     0.072409
     31 H                     0.092489
     32 O                    -0.208239
     33 C                    -0.125382
     34 C                     0.025311
     35 C                    -0.142356
     36 C                    -0.145237
     37 C                     0.025767
     38 O                    -0.184562
     39 H                     0.084749
     40 H                     0.084921
     41 H                     0.092666
     42 H                     0.088213
     43 H                     0.078599
     44 H                     0.073737
     45 H                     0.078268
     46 H                     0.073278
     47 H                     0.081710
     48 H                     0.091182
     49 H                     0.094721
     50 H                     0.091095
     51 H                     0.094874
     52 H                     0.088004
     53 H                     0.102278
     54 H                     0.089868
     55 H                     0.089120
     56 H                     0.079047
  ----------------------------------------
  Sum of atomic charges =    -0.000000

 -----------------------------------------------------------------
                    Cartesian Multipole Moments
 -----------------------------------------------------------------
    Charge (ESU x 10^10)
                 0.0000
    Dipole Moment (Debye)
         X      -0.8444      Y       1.0689      Z      -3.2842
       Tot       3.5555
    Quadrupole Moments (Debye-Ang)
        XX    -143.3416     XY      10.9408     YY    -146.9601
        XZ       1.7096     YZ      -3.1665     ZZ    -164.4627
    Octopole Moments (Debye-Ang^2)
       XXX     -61.4811    XXY      39.6098    XYY     -21.1965
       YYY     -50.4822    XXZ     -51.5568    XYZ      27.8675
       YYZ       6.9458    XZZ      -2.2180    YZZ     -23.4298
       ZZZ       1.2561
    Hexadecapole Moments (Debye-Ang^3)
      XXXX  -19411.0177   XXXY     466.1107   XXYY   -3729.4599
      XYYY      52.1718   YYYY   -2914.5842   XXXZ      14.5187
      XXYZ     -50.7093   XYYZ     -95.8933   YYYZ       9.2952
      XXZZ   -3502.1233   XYZZ      23.6217   YYZZ    -654.7321
      XZZZ     -31.0374   YZZZ     -16.4949   ZZZZ   -1070.0666
 -----------------------------------------------------------------
 Calculating analytic gradient of the SCF energy
 Gradient of SCF Energy
            1           2           3           4           5           6
    1   0.0016741  -0.0021175  -0.0008985  -0.0017347   0.0046871  -0.0031141
    2  -0.0000431   0.0001229   0.0004283   0.0047986  -0.0069099  -0.0032735
    3  -0.0044019   0.0049808   0.0045665  -0.0043465  -0.0015940   0.0013648
            7           8           9          10          11          12
    1   0.0009301   0.0005385   0.0000410  -0.0008468   0.0009058  -0.0004575
    2   0.0037602   0.0033860  -0.0007251  -0.0031402   0.0014897  -0.0001057
    3  -0.0008892   0.0007897  -0.0000534  -0.0003669  -0.0002215   0.0000869
           13          14          15          16          17          18
    1   0.0003630  -0.0003377   0.0000463   0.0000962   0.0001119  -0.0000582
    2   0.0007591  -0.0004213  -0.0000116   0.0000130   0.0001335  -0.0000032
    3   0.0011378  -0.0006724  -0.0000089   0.0000589   0.0000592  -0.0000147
           19          20          21          22          23          24
    1  -0.0001832   0.0000983   0.0001498   0.0001272  -0.0003093   0.0000123
    2   0.0005239  -0.0000027  -0.0001138   0.0000645  -0.0002301  -0.0000626
    3  -0.0001305  -0.0002206   0.0002395   0.0000785  -0.0001766  -0.0000607
           25          26          27          28          29          30
    1   0.0000200   0.0000102   0.0000764   0.0000644   0.0000080  -0.0001072
    2  -0.0001025  -0.0000205  -0.0000680  -0.0000655  -0.0000319  -0.0000169
    3  -0.0000403   0.0000168   0.0000498   0.0000294  -0.0000137  -0.0000894
           31          32          33          34          35          36
    1  -0.0000679  -0.0000279  -0.0000338   0.0001291  -0.0001169   0.0000149
    2   0.0001504  -0.0000656   0.0000247  -0.0002670   0.0000316  -0.0001969
    3  -0.0000075   0.0000663   0.0000021   0.0000262   0.0001342  -0.0000147
           37          38          39          40          41          42
    1   0.0002250  -0.0000627  -0.0000602   0.0000397   0.0000079  -0.0000408
    2   0.0002436  -0.0001339   0.0000752  -0.0000160  -0.0000041  -0.0000487
    3  -0.0001713  -0.0000206  -0.0000529  -0.0000944  -0.0000058  -0.0000081
           43          44          45          46          47          48
    1  -0.0000470   0.0001901   0.0000844  -0.0000341   0.0000244  -0.0000004
    2  -0.0000121   0.0000834  -0.0000048   0.0000057   0.0000043  -0.0000253
    3  -0.0000267  -0.0000167  -0.0000528   0.0000128   0.0000010   0.0000059
           49          50          51          52          53          54
    1   0.0000167   0.0000197   0.0000189  -0.0000161  -0.0000001   0.0000076
    2  -0.0000226   0.0000306   0.0000141  -0.0000141   0.0000062   0.0000204
    3   0.0000179   0.0000062   0.0000117   0.0000074   0.0000059  -0.0000011
           55          56
    1  -0.0000524  -0.0000137
    2   0.0000080  -0.0000185
    3   0.0000171   0.0000008
 Max gradient component =       6.910E-03
 RMS gradient           =       1.243E-03
 Gradient time:  CPU 30.55 s  wall 0.66 s
 Geometry Optimization Parameters
   NAtoms,    NIC,     NZ,  NCons,   NDum,   NFix, NCnnct, MaxDiis
       56     458       0       0       0       0       0       0


** GEOMETRY OPTIMIZATION IN DELOCALIZED INTERNAL COORDINATES **
   Searching for a Minimum

   Optimization Cycle:   1

                       Coordinates (Angstroms)
     ATOM                X               Y               Z
      1  O         5.9968239691   -2.4447143109    0.1459177748
      2  C         5.1634946439   -1.5849161025   -0.2138654339
      3  C         5.3652961296   -0.0299614739   -0.1765040677
      4  C         4.1212211184    0.8724479976   -0.5591667530
      5  C         2.7186625128    0.1472359451   -0.5185610974
      6  O         2.1519553563    0.1923213607   -1.8447044483
      7  C         0.7042535784    0.5047720318   -1.9221625896
      8  C        -0.2058115677    0.3166066955   -0.6542237204
      9  O        -1.5809156438    0.5578273968   -1.1717940382
     10  C        -2.5285448029    0.4975162030   -0.0992034140
     11  C        -3.9409335056    0.8500118156   -0.6882457738
     12  C        -5.0201799997   -0.2988115273   -0.4979177670
     13  C        -4.4095694085   -1.6109531200    0.1120744986
     14  O        -3.2870215673   -2.0942926024   -0.1557693367
     15  O         3.9321041279   -1.9008400647   -0.8683191883
     16  O        -5.3528772286   -2.2214653065    0.9943594537
     17  O        -2.2269086303    0.2877529949    1.0949734817
     18  C        -4.7860464406   -3.4703615814    1.5543521908
     19  C        -4.6218278585    2.0218788021    0.1439563445
     20  C        -5.8518084089    2.5736053041   -0.6815211492
     21  C        -6.9096286461    1.4311117864   -0.4532527026
     22  C        -6.0804972413    0.4233359372    0.4352077588
     23  O        -5.2501148625    1.3107760416    1.2802966402
     24  H        -3.8151515906    1.1148622649   -1.7523311663
     25  H        -5.4716331689   -0.5682701965   -1.4714699225
     26  H        -3.9173185739    2.7923235532    0.5129532025
     27  H        -6.1959583120    3.5335495853   -0.2649854563
     28  H        -5.6039604144    2.7186653022   -1.7451537786
     29  H        -7.7874031241    1.7988664733    0.1013709660
     30  H        -7.2526406228    0.9725428606   -1.3945161520
     31  H        -6.6747747894   -0.2692289136    1.0612628548
     32  O         2.1365581563   -0.2639163878    0.5064489691
     33  C         3.7182281930   -3.3642654239   -0.9114196164
     34  C         5.7425385163    0.5367903604    1.2618420652
     35  C         6.5635880166    1.8664232032    1.0450010289
     36  C         5.4320267678    2.8283421510    0.5237230435
     37  C         4.1548302934    1.9049285373    0.6506221489
     38  O         4.4553978809    1.0262518598    1.8051148692
     39  H         6.1960561740    0.1780270813   -0.8773330154
     40  H         4.2480233908    1.3491200218   -1.5461369133
     41  H         3.6261031275   -3.7898774254    0.1086363881
     42  H         6.2014410437   -0.2066135821    1.9423897856
     43  H         6.9801447048    2.2183461572    2.0024283216
     44  H         7.3873291109    1.7415330075    0.3240315003
     45  H         5.3305945993    3.7207156819    1.1612325070
     46  H         5.5991583270    3.1553206287   -0.5152056491
     47  H         3.2018932110    2.4436776692    0.8171463651
     48  H         4.5471840284   -3.8797019741   -1.4382628666
     49  H         2.7721916483   -3.5162761787   -1.4628683742
     50  H        -5.5479313266   -3.8640197873    2.2520303595
     51  H        -3.8417705594   -3.2772460353    2.1030186307
     52  H        -4.5866457415   -4.2191390738    0.7604788779
     53  H        -0.1190915535   -0.7079531305   -0.2359118996
     54  H         0.0443831050    1.0404830918    0.1493976665
     55  H         0.2932833696   -0.1352831283   -2.7327103043
     56  H         0.6107301323    1.5635429493   -2.2560953111
   Point Group: c1    Number of degrees of freedom:   162


   Energy is  -1510.262325034


 Attempting to Generate Delocalized Internal Coordinates

162 Hessian modes will be used to form the next step
  Hessian Eigenvalues:
     0.002000    0.002000    0.002000    0.002000    0.002000    0.002682
     0.002734    0.003879    0.004403    0.004434    0.004549    0.004658
     0.004782    0.004874    0.005116    0.006801    0.006820    0.009976
     0.011345    0.011698    0.011858    0.021612    0.021727    0.025703
     0.026083    0.030726    0.030902    0.035113    0.035540    0.038267
     0.039097    0.041004    0.041640    0.042179    0.044393    0.045939
     0.047186    0.048209    0.050821    0.051273    0.053545    0.054256
     0.054466    0.054967    0.054989    0.054992    0.055402    0.055903
     0.056810    0.058481    0.059227    0.060460    0.060640    0.063422
     0.063907    0.064083    0.064381    0.069716    0.069953    0.072881
     0.073172    0.092068    0.092158    0.092891    0.093264    0.095824
     0.096341    0.096799    0.097071    0.102715    0.102939    0.105108
     0.110087    0.111207    0.121865    0.121999    0.122115    0.131528
     0.143607    0.157578    0.158093    0.160000    0.160000    0.160000
     0.160000    0.160000    0.160000    0.163873    0.164019    0.218641
     0.219011    0.219822    0.221666    0.226829    0.228724    0.238613
     0.238626    0.239445    0.239493    0.244502    0.246365    0.248561
     0.248870    0.249424    0.249853    0.250000    0.250000    0.250000
     0.250000    0.250000    0.250000    0.250000    0.250000    0.252894
     0.253116    0.253264    0.258595    0.259747    0.259893    0.261410
     0.292609    0.293203    0.307398    0.307497    0.321681    0.324359
     0.325856    0.325939    0.326687    0.326810    0.326934    0.327011
     0.328744    0.328893    0.328897    0.329533    0.329617    0.329793
     0.330782    0.330783    0.332718    0.333132    0.334710    0.334802
     0.334848    0.334860    0.334927    0.335102    0.335149    0.335300
     0.335646    0.342216    0.344065    0.346155    0.391957    0.406306
     0.410124    0.411869    0.827995    0.831431    0.834525    0.838256

 Minimum Search - Taking Simple RFO Step
 Searching for Lamda that Minimizes Along All modes
 Value Taken    Lamda =  -0.01143660
 Calculated Step too Large.  Step scaled by  0.377240
 Step Taken.  Stepsize is  0.300000

                             Maximum     Tolerance    Cnvgd?
         Gradient           0.007877      0.000300      NO
         Displacement       0.160143      0.001200      NO
         Energy change     *********      0.000001      NO


 New Cartesian Coordinates Obtained by Inverse Iteration

 Displacement from previous Coordinates is:  4.461634
 Adding empirical dispersion correction 
 ----------------------------------------------------------------
 Doing -D3(op) with
 s6 =   1.00000
 s8 =   0.78311
 a1 =   0.30000
 a2 =   4.25000
 n  =  10.00000
 -D3 energy without 3body term =     -0.0645120034 hartrees
 ----------------------------------------------------------------
             Standard Nuclear Orientation (Angstroms)
    I     Atom           X                Y                Z
 ----------------------------------------------------------------
    1      O       5.5679778774    -2.5593500606     0.2972562741
    2      C       4.8871303417    -1.6057513645    -0.1389837368
    3      C       5.3176917652    -0.0978056232    -0.1678697553
    4      C       4.2071061004     0.9660141776    -0.5472805049
    5      C       2.7150665362     0.4567390337    -0.4506851678
    6      O       2.1541930323     0.4508028380    -1.7800993850
    7      C       0.6985585954     0.7195828304    -1.8717331740
    8      C      -0.2200686041     0.4900712285    -0.6169083252
    9      O      -1.5953120694     0.7050205797    -1.1455523225
   10      C      -2.5513140854     0.6055072195    -0.0834037086
   11      C      -3.9756878250     0.8604225369    -0.6935959168
   12      C      -4.9670966647    -0.3702643214    -0.5449687843
   13      C      -4.2697130274    -1.6440186966     0.0533325185
   14      O      -3.1041795015    -2.0283957641    -0.1900840980
   15      O       3.6118292577    -1.7624776459    -0.7662929900
   16      O      -5.1815288550    -2.3437141628     0.9018957971
   17      O      -2.2562053885     0.3919620716     1.1117180097
   18      C      -4.5289739166    -3.5521243466     1.4573833116
   19      C      -4.7587670689     1.9614635496     0.1450978456
   20      C      -6.0124081743     2.4339740845    -0.6940822650
   21      C      -6.9837739871     1.2101700988    -0.5070466378
   22      C      -6.0963747708     0.2514042547     0.3796152120
   23      O      -5.3513820154     1.1832654463     1.2563584297
   24      H      -3.8512324789     1.1525447736    -1.7506512303
   25      H      -5.3780886038    -0.6539784970    -1.5322592994
   26      H      -4.1218248808     2.7760723356     0.5410789982
   27      H      -6.4365052878     3.3568162706    -0.2674454273
   28      H      -5.7574136161     2.6179749306    -1.7499927454
   29      H      -7.8970887408     1.4994451563     0.0365929124
   30      H      -7.2733058708     0.7449911877    -1.4628456501
   31      H      -6.6471323083    -0.4963863778     0.9815331858
   32      O       2.1155581064     0.1303460816     0.5945626965
   33      C       3.1676648974    -3.1728202974    -0.7127450605
   34      C       5.8145933469     0.4534253195     1.2405318321
   35      C       6.8135955804     1.6411072656     0.9568088182
   36      C       5.8188173063     2.7423669828     0.4322344766
   37      C       4.4254744519     2.0198870870     0.6236107999
   38      O       4.6296382166     1.1425757563     1.7995611118
   39      H       6.1513464382    -0.0382139154    -0.8931605275
   40      H       4.3734080564     1.3873314412    -1.5533302571
   41      H       3.0237751198    -3.5122052210     0.3333357061
   42      H       6.1807606071    -0.3274421017     1.9351822820
   43      H       7.3061893270     1.9570693496     1.8904063411
   44      H       7.5876394818     1.3746799196     0.2194877404
   45      H       5.8675149201     3.6589488446     1.0409916251
   46      H       6.0001034129     3.0095299602    -0.6213364746
   47      H       3.5661280466     2.6968601089     0.7948445223
   48      H       3.8965752865    -3.8464023972    -1.2080882288
   49      H       2.2016448099    -3.2069464339    -1.2492635650
   50      H      -5.2733667782    -4.0182571810     2.1288187161
   51      H      -3.6174716619    -3.2927073779     2.0334280579
   52      H      -4.2496267920    -4.2683837013     0.6576485499
   53      H      -0.1109696218    -0.5372678510    -0.2108215281
   54      H       0.0024053232     1.2095873252     0.1986789861
   55      H       0.3165784343     0.0730129161    -2.6912435977
   56      H       0.5763775632     1.7773458009    -2.1995686053
 ----------------------------------------------------------------
 Molecular Point Group                 C1    NOp =  1
 Largest Abelian Subgroup              C1    NOp =  1
 Nuclear Repulsion Energy =  3014.0899573056 hartrees
 There are      113 alpha and      113 beta electrons
 Applying Cartesian multipole field
    Component          Value
    ---------          -----
     (2,0,0)        1.00000E-12
     (0,2,0)        2.00000E-11
     (0,0,2)       -3.00000E-11
 Nucleus-field energy     =     0.0000000414 hartrees
 Requested basis set is STO-3G
 There are 86 shells and 176 basis functions
 A cutoff of  1.0D-12 yielded   1970 shell pairs
 There are      9218 function pairs
 Smallest overlap matrix eigenvalue = 2.13E-01
 Guess MOs from SCF MO coefficient file
 Reading MOs from coefficient file
 Reading MOs from coefficient file
 A restricted hybrid HF-DFT SCF calculation will be
 performed using Pulay DIIS extrapolation
 Exchange:     0.2000 Hartree-Fock + 0.0800 Slater + 0.7200 B88
 Correlation:  0.1900 VWN1RPA + 0.8100 LYP
 Using SG-1 standard quadrature grid
 Dispersion:   Grimme D3
 SCF converges when DIIS error is below 1.0E-08
 Geometry optimization detected.  Setting ReadMinima to 0
 Setting SaveMinima to 0
 using 48 threads for integral computing
 -------------------------------------------------------
 OpenMP Integral computing Module                
 Release: version 1.0, May 2013, Q-Chem Inc. Pittsburgh 
 -------------------------------------------------------
 -------------------------------------------------------
 OpenMP BLAS3 based DFT computing Module                
 Release: version 1.0, May 2013, Q-Chem Inc. Pittsburgh 
 -------------------------------------------------------
 ---------------------------------------
  Cycle       Energy         DIIS Error
 ---------------------------------------
    1   -1510.0910264486      6.04E-03
    2   -1510.2626460166      7.25E-04
    3   -1510.2613232690      1.01E-03
    4   -1510.2653999041      3.58E-04
    5   -1510.2659320793      1.03E-04
    6   -1510.2659777691      3.50E-05
    7   -1510.2659819788      2.10E-05
    8   -1510.2659838603      4.14E-06
    9   -1510.2659839436      8.90E-07
   10   -1510.2659839459      7.28E-07
   11   -1510.2659839481      2.54E-07
   12   -1510.2659839484      4.78E-08
   13   -1510.2659839484      2.25E-08
   14   -1510.2659839485      9.52E-09 Convergence criterion met
 ---------------------------------------
 SCF time:  CPU 95.72 s  wall 2.00 s
 SCF   energy in the final basis set = -1510.26598395
 Total energy in the final basis set = -1510.26598395
 
 --------------------------------------------------------------
 
                    Orbital Energies (a.u.)
 --------------------------------------------------------------
 
 Alpha MOs
 -- Occupied --
-18.940 -18.937 -18.921 -18.917 -18.887 -18.885 -18.874 -18.873
-18.867 -18.863 -10.101 -10.099 -10.097 -10.090 -10.069 -10.065
-10.064 -10.062 -10.059 -10.058 -10.058 -10.056 -10.038 -10.037
-10.033 -10.032 -10.020 -10.019 -10.019 -10.018  -1.014  -1.012
 -1.001  -0.995  -0.969  -0.967  -0.937  -0.936  -0.929  -0.924
 -0.762  -0.760  -0.724  -0.720  -0.710  -0.704  -0.693  -0.662
 -0.660  -0.614  -0.595  -0.579  -0.544  -0.543  -0.536  -0.536
 -0.511  -0.509  -0.480  -0.471  -0.460  -0.450  -0.448  -0.446
 -0.436  -0.431  -0.428  -0.411  -0.411  -0.409  -0.409  -0.393
 -0.381  -0.377  -0.372  -0.367  -0.365  -0.354  -0.352  -0.346
 -0.345  -0.337  -0.330  -0.328  -0.327  -0.322  -0.319  -0.312
 -0.308  -0.305  -0.302  -0.295  -0.293  -0.291  -0.281  -0.272
 -0.271  -0.255  -0.250  -0.244  -0.234  -0.232  -0.231  -0.178
 -0.178  -0.167  -0.161  -0.154  -0.154  -0.146  -0.142  -0.140
 -0.138
 -- Virtual --
  0.098   0.098   0.107   0.114   0.211   0.237   0.244   0.252
  0.255   0.282   0.283   0.291   0.310   0.318   0.328   0.330
  0.330   0.343   0.345   0.348   0.355   0.360   0.371   0.374
  0.379   0.384   0.385   0.399   0.406   0.409   0.412   0.413
  0.418   0.420   0.423   0.424   0.425   0.425   0.432   0.432
  0.438   0.439   0.439   0.440   0.450   0.452   0.455   0.458
  0.467   0.469   0.480   0.490   0.491   0.506   0.508   0.540
  0.541   0.553   0.554   0.638   0.639   0.657   0.663
 --------------------------------------------------------------
 
          Ground-State Mulliken Net Atomic Charges

     Atom                 Charge (a.u.)
  ----------------------------------------
      1 O                    -0.213991
      2 C                     0.211517
      3 C                    -0.079520
      4 C                    -0.079105
      5 C                     0.220489
      6 O                    -0.179020
      7 C                    -0.048864
      8 C                    -0.048233
      9 O                    -0.177807
     10 C                     0.210162
     11 C                    -0.080128
     12 C                    -0.078416
     13 C                     0.212819
     14 O                    -0.214005
     15 O                    -0.165271
     16 O                    -0.168391
     17 O                    -0.211896
     18 C                    -0.127423
     19 C                     0.025712
     20 C                    -0.144380
     21 C                    -0.143922
     22 C                     0.023495
     23 O                    -0.187042
     24 H                     0.083943
     25 H                     0.083639
     26 H                     0.083046
     27 H                     0.077540
     28 H                     0.072891
     29 H                     0.077714
     30 H                     0.072362
     31 H                     0.092434
     32 O                    -0.209994
     33 C                    -0.125579
     34 C                     0.025364
     35 C                    -0.142463
     36 C                    -0.145201
     37 C                     0.025715
     38 O                    -0.184782
     39 H                     0.084770
     40 H                     0.084741
     41 H                     0.092818
     42 H                     0.088542
     43 H                     0.078534
     44 H                     0.073590
     45 H                     0.078053
     46 H                     0.073177
     47 H                     0.082053
     48 H                     0.090779
     49 H                     0.094224
     50 H                     0.091189
     51 H                     0.094800
     52 H                     0.087868
     53 H                     0.100029
     54 H                     0.092804
     55 H                     0.089208
     56 H                     0.079413
  ----------------------------------------
  Sum of atomic charges =    -0.000000

 -----------------------------------------------------------------
                    Cartesian Multipole Moments
 -----------------------------------------------------------------
    Charge (ESU x 10^10)
                 0.0000
    Dipole Moment (Debye)
         X      -0.7482      Y       0.7853      Z      -3.4512
       Tot       3.6176
    Quadrupole Moments (Debye-Ang)
        XX    -142.0406     XY      11.0472     YY    -147.6227
        XZ       1.7401     YZ      -3.4683     ZZ    -164.8300
    Octopole Moments (Debye-Ang^2)
       XXX     -25.7807    XXY      37.2866    XYY     -27.8067
       YYY     -53.3608    XXZ     -58.5603    XYZ      24.0714
       YYZ       6.5966    XZZ      -2.7174    YZZ     -26.6581
       ZZZ      -2.1137
    Hexadecapole Moments (Debye-Ang^3)
      XXXX  -19156.3584   XXXY     244.8316   XXYY   -3750.9190
      XYYY     -62.7518   YYYY   -2858.5110   XXXZ     -67.5535
      XXYZ     -28.9715   XYYZ    -125.6607   YYYZ      55.4337
      XXZZ   -3508.9929   XYZZ     -33.9090   YYZZ    -639.2317
      XZZZ    -129.7808   YZZZ      30.7185   ZZZZ   -1007.9684
 -----------------------------------------------------------------
 Calculating analytic gradient of the SCF energy
 Gradient of SCF Energy
            1           2           3           4           5           6
    1   0.0009534   0.0001383   0.0000552   0.0018355   0.0010982  -0.0032735
    2  -0.0006137   0.0009755   0.0007596   0.0010712   0.0046185  -0.0051773
    3  -0.0021845  -0.0002022   0.0042850  -0.0025394   0.0014866  -0.0010641
            7           8           9          10          11          12
    1   0.0013012  -0.0000246   0.0003881  -0.0005196   0.0002833  -0.0002136
    2   0.0018996   0.0014935  -0.0005130   0.0010851  -0.0005706   0.0001998
    3  -0.0007247  -0.0001765   0.0000636   0.0004967  -0.0005436   0.0001492
           13          14          15          16          17          18
    1  -0.0000052  -0.0001093  -0.0015253   0.0000670   0.0000788  -0.0000549
    2   0.0001563  -0.0000004   0.0007430   0.0002018  -0.0014500  -0.0000120
    3   0.0003670  -0.0003169   0.0011309   0.0002119  -0.0002097   0.0000095
           19          20          21          22          23          24
    1  -0.0000359  -0.0000640  -0.0001728   0.0003103  -0.0002878   0.0000525
    2   0.0004557  -0.0000964  -0.0001777   0.0001092  -0.0000629  -0.0001902
    3   0.0002136  -0.0002276   0.0001267   0.0000202  -0.0001396  -0.0000711
           25          26          27          28          29          30
    1   0.0000684   0.0000121   0.0000905   0.0000265   0.0000093   0.0000464
    2  -0.0000225   0.0001076  -0.0000072  -0.0000029   0.0000107  -0.0000057
    3   0.0000218   0.0000936  -0.0000025   0.0000126  -0.0000013  -0.0000616
           31          32          33          34          35          36
    1  -0.0000145   0.0006060  -0.0003002   0.0000276  -0.0001701   0.0000546
    2   0.0000112  -0.0050362  -0.0000183  -0.0000183   0.0000182  -0.0000648
    3  -0.0001119  -0.0006778   0.0001182  -0.0008066  -0.0003061   0.0002291
           37          38          39          40          41          42
    1  -0.0007745  -0.0005537   0.0003381  -0.0000987  -0.0000002  -0.0000093
    2  -0.0003593   0.0001474  -0.0004986  -0.0003940  -0.0000192   0.0001667
    3   0.0003703   0.0001017   0.0005411  -0.0000504  -0.0000182   0.0000676
           43          44          45          46          47          48
    1   0.0000546   0.0000197   0.0000771  -0.0000099   0.0000126   0.0000991
    2   0.0000602   0.0000183   0.0001001   0.0000990   0.0000868   0.0000401
    3   0.0000589  -0.0000780  -0.0000919  -0.0000171   0.0001071  -0.0000216
           49          50          51          52          53          54
    1  -0.0000364  -0.0000220   0.0000305   0.0000198   0.0004579   0.0000316
    2  -0.0000220   0.0000044  -0.0000213   0.0000683   0.0001667   0.0004021
    3  -0.0000122   0.0000199   0.0000602  -0.0000232   0.0002052   0.0001802
           55          56
    1  -0.0008452   0.0004771
    2   0.0000075   0.0000706
    3   0.0001417  -0.0002101
 Max gradient component =       5.177E-03
 RMS gradient           =       9.435E-04
 Gradient time:  CPU 29.65 s  wall 0.64 s
 Geometry Optimization Parameters
   NAtoms,    NIC,     NZ,  NCons,   NDum,   NFix, NCnnct, MaxDiis
       56     458       0       0       0       0       0       0

 Cartesian Hessian Update
 Hessian Updated using BFGS Update


** GEOMETRY OPTIMIZATION IN DELOCALIZED INTERNAL COORDINATES **
   Searching for a Minimum

   Optimization Cycle:   2

                       Coordinates (Angstroms)
     ATOM                X               Y               Z
      1  O         5.5679778774   -2.5593500606    0.2972562741
      2  C         4.8871303417   -1.6057513645   -0.1389837368
      3  C         5.3176917652   -0.0978056232   -0.1678697553
      4  C         4.2071061004    0.9660141776   -0.5472805049
      5  C         2.7150665362    0.4567390337   -0.4506851678
      6  O         2.1541930323    0.4508028380   -1.7800993850
      7  C         0.6985585954    0.7195828304   -1.8717331740
      8  C        -0.2200686041    0.4900712285   -0.6169083252
      9  O        -1.5953120694    0.7050205797   -1.1455523225
     10  C        -2.5513140854    0.6055072195   -0.0834037086
     11  C        -3.9756878250    0.8604225369   -0.6935959168
     12  C        -4.9670966647   -0.3702643214   -0.5449687843
     13  C        -4.2697130274   -1.6440186966    0.0533325185
     14  O        -3.1041795015   -2.0283957641   -0.1900840980
     15  O         3.6118292577   -1.7624776459   -0.7662929900
     16  O        -5.1815288550   -2.3437141628    0.9018957971
     17  O        -2.2562053885    0.3919620716    1.1117180097
     18  C        -4.5289739166   -3.5521243466    1.4573833116
     19  C        -4.7587670689    1.9614635496    0.1450978456
     20  C        -6.0124081743    2.4339740845   -0.6940822650
     21  C        -6.9837739871    1.2101700988   -0.5070466378
     22  C        -6.0963747708    0.2514042547    0.3796152120
     23  O        -5.3513820154    1.1832654463    1.2563584297
     24  H        -3.8512324789    1.1525447736   -1.7506512303
     25  H        -5.3780886038   -0.6539784970   -1.5322592994
     26  H        -4.1218248808    2.7760723356    0.5410789982
     27  H        -6.4365052878    3.3568162706   -0.2674454273
     28  H        -5.7574136161    2.6179749306   -1.7499927454
     29  H        -7.8970887408    1.4994451563    0.0365929124
     30  H        -7.2733058708    0.7449911877   -1.4628456501
     31  H        -6.6471323083   -0.4963863778    0.9815331858
     32  O         2.1155581064    0.1303460816    0.5945626965
     33  C         3.1676648974   -3.1728202974   -0.7127450605
     34  C         5.8145933469    0.4534253195    1.2405318321
     35  C         6.8135955804    1.6411072656    0.9568088182
     36  C         5.8188173063    2.7423669828    0.4322344766
     37  C         4.4254744519    2.0198870870    0.6236107999
     38  O         4.6296382166    1.1425757563    1.7995611118
     39  H         6.1513464382   -0.0382139154   -0.8931605275
     40  H         4.3734080564    1.3873314412   -1.5533302571
     41  H         3.0237751198   -3.5122052210    0.3333357061
     42  H         6.1807606071   -0.3274421017    1.9351822820
     43  H         7.3061893270    1.9570693496    1.8904063411
     44  H         7.5876394818    1.3746799196    0.2194877404
     45  H         5.8675149201    3.6589488446    1.0409916251
     46  H         6.0001034129    3.0095299602   -0.6213364746
     47  H         3.5661280466    2.6968601089    0.7948445223
     48  H         3.8965752865   -3.8464023972   -1.2080882288
     49  H         2.2016448099   -3.2069464339   -1.2492635650
     50  H        -5.2733667782   -4.0182571810    2.1288187161
     51  H        -3.6174716619   -3.2927073779    2.0334280579
     52  H        -4.2496267920   -4.2683837013    0.6576485499
     53  H        -0.1109696218   -0.5372678510   -0.2108215281
     54  H         0.0024053232    1.2095873252    0.1986789861
     55  H         0.3165784343    0.0730129161   -2.6912435977
     56  H         0.5763775632    1.7773458009   -2.1995686053
   Point Group: c1    Number of degrees of freedom:   162


   Energy is  -1510.265983948

 Hessian Updated using BFGS Update

149 Hessian modes will be used to form the next step
  Hessian Eigenvalues:
     0.001369    0.002026    0.002679    0.002731    0.003159    0.003898
     0.004419    0.004436    0.004740    0.004874    0.005116    0.005447
     0.006796    0.006821    0.011123    0.011693    0.011855    0.021588
     0.021727    0.025376    0.026079    0.030722    0.030889    0.033937
     0.035475    0.036030    0.038596    0.040978    0.041522    0.042158
     0.043091    0.045760    0.046527    0.047995    0.049591    0.050818
     0.051281    0.053551    0.054256    0.054471    0.054985    0.054989
     0.055222    0.055878    0.056756    0.058419    0.058555    0.059704
     0.060461    0.061112    0.063424    0.063909    0.064083    0.064384
     0.069717    0.069953    0.072901    0.073190    0.092144    0.092369
     0.092886    0.094805    0.095823    0.096337    0.096800    0.097076
     0.102715    0.102940    0.105182    0.110096    0.111947    0.121997
     0.122114    0.123907    0.131517    0.144003    0.157504    0.159776
     0.160000    0.160323    0.163906    0.164064    0.218668    0.218949
     0.219950    0.221710    0.226896    0.229491    0.238612    0.238628
     0.239445    0.239487    0.244505    0.246372    0.248670    0.248887
     0.249431    0.249853    0.249904    0.252680    0.253093    0.253262
     0.258459    0.259539    0.259857    0.260212    0.265274    0.293171
     0.294126    0.307430    0.307504    0.321687    0.324386    0.325938
     0.325983    0.326688    0.326811    0.326934    0.327012    0.328749
     0.328896    0.328913    0.329532    0.329632    0.329800    0.330783
     0.330788    0.332717    0.333163    0.334713    0.334813    0.334849
     0.334862    0.334927    0.335102    0.335150    0.335303    0.335663
     0.342612    0.344065    0.346164    0.395638    0.406368    0.411090
     0.411878    0.827996    0.831508    0.834524    0.838347

 Minimum Search - Taking Simple RFO Step
 Searching for Lamda that Minimizes Along All modes
 Value Taken    Lamda =  -0.01124589
 Calculated Step too Large.  Step scaled by  0.329618
 Step Taken.  Stepsize is  0.300000

                             Maximum     Tolerance    Cnvgd?
         Gradient           0.005789      0.000300      NO
         Displacement       0.139609      0.001200      NO
         Energy change     -0.003659      0.000001      NO


 New Cartesian Coordinates Obtained by Inverse Iteration

 Displacement from previous Coordinates is:  4.448664
 Adding empirical dispersion correction 
 ----------------------------------------------------------------
 Doing -D3(op) with
 s6 =   1.00000
 s8 =   0.78311
 a1 =   0.30000
 a2 =   4.25000
 n  =  10.00000
 -D3 energy without 3body term =     -0.0647504730 hartrees
 ----------------------------------------------------------------
             Standard Nuclear Orientation (Angstroms)
    I     Atom           X                Y                Z
 ----------------------------------------------------------------
    1      O       5.1203513174    -2.5707544663     0.6173440466
    2      C       4.5902775902    -1.5881418061     0.0546347397
    3      C       5.2280563425    -0.1644962542    -0.1144572024
    4      C       4.2736407387     1.0150192191    -0.5729980626
    5      C       2.7257792796     0.7390435786    -0.4281146848
    6      O       2.1578542418     0.6884948865    -1.7525211414
    7      C       0.6966040500     0.9279577746    -1.8425626345
    8      C      -0.2219809835     0.6336797333    -0.6011845502
    9      O      -1.6003870191     0.8361358757    -1.1267037556
   10      C      -2.5538577696     0.6654116541    -0.0716048211
   11      C      -3.9878535882     0.8703291148    -0.6780027564
   12      C      -4.9094066444    -0.4192984452    -0.5979120979
   13      C      -4.1441045925    -1.6828136486    -0.0638466677
   14      O      -2.9566359090    -1.9861312781    -0.3156419449
   15      O       3.3180431666    -1.6373513364    -0.5951737209
   16      O      -5.0203537231    -2.4799407117     0.7348022738
   17      O      -2.2525639177     0.4251097155     1.1168455640
   18      C      -4.3032586678    -3.6785182399     1.2286593921
   19      C      -4.8329661036     1.8825549578     0.2099350953
   20      C      -6.1097211909     2.3268219850    -0.6096614966
   21      C      -7.0115122271     1.0430040750    -0.4894557320
   22      C      -6.0737025520     0.0907699202     0.3515284198
   23      O      -5.3829916996     1.0171137280     1.2778303327
   24      H      -3.8765158067     1.2194976781    -1.7190590196
   25      H      -5.3008822765    -0.6730840379    -1.6011450594
   26      H      -4.2431373604     2.7101721036     0.6493582299
   27      H      -6.5856670834     3.2017067949    -0.1388239796
   28      H      -5.8639015463     2.5782301938    -1.6538030656
   29      H      -7.9404578645     1.2530570990     0.0640226598
   30      H      -7.2730697326     0.6117636064    -1.4688479045
   31      H      -6.5829095891    -0.7162784324     0.9122000553
   32      O       2.0995947816     0.5975683252     0.6424279219
   33      C       2.6816350147    -2.9597859331    -0.4075210156
   34      C       5.8200996854     0.4268960350     1.2413604644
   35      C       6.9762347682     1.4279011730     0.8540234146
   36      C       6.1432672768     2.6139439729     0.2399480632
   37      C       4.6633802579     2.1216662095     0.4997340534
   38      O       4.7579159749     1.3261490610     1.7452477799
   39      H       6.0528521995    -0.2868047973    -0.8421136506
   40      H       4.4811649200     1.3212380077    -1.6124788214
   41      H       2.4725261325    -3.1596945044     0.6632327216
   42      H       6.0805549239    -0.3379931468     1.9986990877
   43      H       7.5240437226     1.7463254602     1.7554264702
   44      H       7.6915314802     0.9898361621     0.1398851689
   45      H       6.3342657151     3.5620244615     0.7669551088
   46      H       6.3437604085     2.7608822385    -0.8335718673
   47      H       3.9143051178     2.9287898877     0.6158015080
   48      H       3.3188242840    -3.7765535932    -0.8039936343
   49      H       1.7303917066    -2.9206138265    -0.9694699639
   50      H      -5.0240127384    -4.2230333406     1.8660310463
   51      H      -3.4118785274    -3.4002317407     1.8268853382
   52      H      -3.9781780256    -4.3320331164     0.3932626666
   53      H      -0.0908230255    -0.4045854383    -0.2309330601
   54      H      -0.0201179549     1.3287510712     0.2402368222
   55      H       0.3352366805     0.2932976509    -2.6803890536
   56      H       0.5491859859     1.9904001087    -2.1436712931
 ----------------------------------------------------------------
 Molecular Point Group                 C1    NOp =  1
 Largest Abelian Subgroup              C1    NOp =  1
 Nuclear Repulsion Energy =  3023.8590368579 hartrees
 There are      113 alpha and      113 beta electrons
 Applying Cartesian multipole field
    Component          Value
    ---------          -----
     (2,0,0)        1.00000E-12
     (0,2,0)        2.00000E-11
     (0,0,2)       -3.00000E-11
 Nucleus-field energy     =     0.0000000426 hartrees
 Requested basis set is STO-3G
 There are 86 shells and 176 basis functions
 A cutoff of  1.0D-12 yielded   1990 shell pairs
 There are      9328 function pairs
 Smallest overlap matrix eigenvalue = 2.13E-01
 Guess MOs from SCF MO coefficient file
 Reading MOs from coefficient file
 Reading MOs from coefficient file
 A restricted hybrid HF-DFT SCF calculation will be
 performed using Pulay DIIS extrapolation
 Exchange:     0.2000 Hartree-Fock + 0.0800 Slater + 0.7200 B88
 Correlation:  0.1900 VWN1RPA + 0.8100 LYP
 Using SG-1 standard quadrature grid
 Dispersion:   Grimme D3
 SCF converges when DIIS error is below 1.0E-08
 Geometry optimization detected.  Setting ReadMinima to 0
 Setting SaveMinima to 0
 using 48 threads for integral computing
 -------------------------------------------------------
 OpenMP Integral computing Module                
 Release: version 1.0, May 2013, Q-Chem Inc. Pittsburgh 
 -------------------------------------------------------
 -------------------------------------------------------
 OpenMP BLAS3 based DFT computing Module                
 Release: version 1.0, May 2013, Q-Chem Inc. Pittsburgh 
 -------------------------------------------------------
 ---------------------------------------
  Cycle       Energy         DIIS Error
 ---------------------------------------
    1   -1510.0583062460      6.60E-03
    2   -1510.2643913621      8.87E-04
    3   -1510.2619150685      1.25E-03
    4   -1510.2685273501      4.21E-04
    5   -1510.2692782424      1.17E-04
    6   -1510.2693366190      3.80E-05
    7   -1510.2693413106      2.39E-05
    8   -1510.2693437392      5.31E-06
    9   -1510.2693438689      1.05E-06
   10   -1510.2693438712      9.40E-07
   11   -1510.2693438751      2.58E-07
   12   -1510.2693438754      5.34E-08
   13   -1510.2693438754      2.56E-08
   14   -1510.2693438754      1.11E-08
   15   -1510.2693438755      4.89E-09 Convergence criterion met
 ---------------------------------------
 SCF time:  CPU 100.38 s  wall 2.10 s
 SCF   energy in the final basis set = -1510.26934388
 Total energy in the final basis set = -1510.26934388
 
 --------------------------------------------------------------
 
                    Orbital Energies (a.u.)
 --------------------------------------------------------------
 
 Alpha MOs
 -- Occupied --
-18.939 -18.938 -18.921 -18.920 -18.887 -18.885 -18.874 -18.874
-18.867 -18.862 -10.101 -10.100 -10.097 -10.089 -10.069 -10.065
-10.065 -10.061 -10.059 -10.058 -10.057 -10.056 -10.038 -10.037
-10.034 -10.032 -10.020 -10.019 -10.018 -10.018  -1.014  -1.013
 -1.001  -0.997  -0.969  -0.967  -0.937  -0.937  -0.930  -0.924
 -0.762  -0.760  -0.724  -0.720  -0.710  -0.704  -0.693  -0.662
 -0.661  -0.614  -0.595  -0.579  -0.543  -0.543  -0.536  -0.535
 -0.512  -0.509  -0.479  -0.471  -0.459  -0.449  -0.449  -0.447
 -0.436  -0.430  -0.428  -0.411  -0.411  -0.409  -0.409  -0.393
 -0.380  -0.377  -0.373  -0.367  -0.364  -0.355  -0.351  -0.347
 -0.345  -0.337  -0.329  -0.328  -0.328  -0.323  -0.318  -0.312
 -0.308  -0.305  -0.302  -0.295  -0.293  -0.291  -0.281  -0.272
 -0.271  -0.255  -0.249  -0.245  -0.237  -0.232  -0.231  -0.179
 -0.178  -0.167  -0.163  -0.155  -0.154  -0.146  -0.142  -0.140
 -0.138
 -- Virtual --
  0.098   0.099   0.109   0.114   0.210   0.237   0.244   0.251
  0.256   0.282   0.283   0.290   0.310   0.318   0.329   0.330
  0.330   0.342   0.345   0.347   0.356   0.360   0.371   0.374
  0.379   0.384   0.385   0.400   0.406   0.409   0.411   0.413
  0.418   0.420   0.422   0.423   0.424   0.425   0.431   0.432
  0.438   0.439   0.439   0.439   0.449   0.452   0.454   0.461
  0.468   0.469   0.482   0.490   0.491   0.506   0.508   0.541
  0.542   0.553   0.554   0.638   0.638   0.658   0.663
 --------------------------------------------------------------
 
          Ground-State Mulliken Net Atomic Charges

     Atom                 Charge (a.u.)
  ----------------------------------------
      1 O                    -0.214069
      2 C                     0.211471
      3 C                    -0.079315
      4 C                    -0.078524
      5 C                     0.218820
      6 O                    -0.175027
      7 C                    -0.049156
      8 C                    -0.047869
      9 O                    -0.178219
     10 C                     0.209986
     11 C                    -0.080148
     12 C                    -0.078388
     13 C                     0.212865
     14 O                    -0.214800
     15 O                    -0.166522
     16 O                    -0.168193
     17 O                    -0.212282
     18 C                    -0.127420
     19 C                     0.025732
     20 C                    -0.144378
     21 C                    -0.143941
     22 C                     0.023465
     23 O                    -0.186950
     24 H                     0.083840
     25 H                     0.083650
     26 H                     0.083403
     27 H                     0.077571
     28 H                     0.072872
     29 H                     0.077745
     30 H                     0.072326
     31 H                     0.092269
     32 O                    -0.211972
     33 C                    -0.126048
     34 C                     0.025287
     35 C                    -0.142594
     36 C                    -0.145262
     37 C                     0.025822
     38 O                    -0.184997
     39 H                     0.084868
     40 H                     0.084984
     41 H                     0.092998
     42 H                     0.088706
     43 H                     0.078462
     44 H                     0.073383
     45 H                     0.078016
     46 H                     0.073191
     47 H                     0.082450
     48 H                     0.090687
     49 H                     0.093854
     50 H                     0.091380
     51 H                     0.094499
     52 H                     0.087769
     53 H                     0.095622
     54 H                     0.098404
     55 H                     0.089511
     56 H                     0.080166
  ----------------------------------------
  Sum of atomic charges =    -0.000000

 -----------------------------------------------------------------
                    Cartesian Multipole Moments
 -----------------------------------------------------------------
    Charge (ESU x 10^10)
                 0.0000
    Dipole Moment (Debye)
         X      -0.6483      Y       0.4070      Z      -3.6228
       Tot       3.7028
    Quadrupole Moments (Debye-Ang)
        XX    -140.3057     XY       9.6857     YY    -148.2069
        XZ       1.2642     YZ      -3.7093     ZZ    -165.5796
    Octopole Moments (Debye-Ang^2)
       XXX       3.5925    XXY      29.3075    XYY     -31.9471
       YYY     -59.7088    XXZ     -66.3211    XYZ      19.4043
       YYZ       4.1516    XZZ      -2.8757    YZZ     -28.2323
       ZZZ      -5.5019
    Hexadecapole Moments (Debye-Ang^3)
      XXXX  -18796.1680   XXXY     -20.6402   XXYY   -3717.6014
      XYYY    -200.4520   YYYY   -2821.4523   XXXZ    -151.1722
      XXYZ       2.3265   XYYZ    -157.1368   YYYZ      99.6310
      XXZZ   -3493.6879   XYZZ     -96.3918   YYZZ    -634.7654
      XZZZ    -199.9346   YZZZ      75.7696   ZZZZ    -931.3164
 -----------------------------------------------------------------
 Calculating analytic gradient of the SCF energy
 Gradient of SCF Energy
            1           2           3           4           5           6
    1   0.0004788   0.0004398   0.0006188   0.0018625   0.0014424  -0.0042786
    2  -0.0006851   0.0004505   0.0005795  -0.0007086   0.0067962  -0.0030562
    3  -0.0018077  -0.0011277   0.0019433  -0.0003188   0.0024357  -0.0020943
            7           8           9          10          11          12
    1   0.0017129   0.0000161   0.0006108  -0.0004612   0.0001358  -0.0001550
    2   0.0002510  -0.0008096   0.0007128   0.0019595  -0.0011566  -0.0002314
    3  -0.0007862  -0.0008632   0.0004992   0.0009503  -0.0007036   0.0002046
           13          14          15          16          17          18
    1   0.0000449  -0.0001753  -0.0004641   0.0000228   0.0002245  -0.0000120
    2  -0.0000661   0.0000551  -0.0007623   0.0001717  -0.0013708   0.0000328
    3   0.0003986  -0.0004922   0.0010806   0.0002365  -0.0004845  -0.0000747
           19          20          21          22          23          24
    1   0.0002311  -0.0002584  -0.0001311  -0.0000168  -0.0000571  -0.0000265
    2   0.0003743  -0.0002419   0.0000379   0.0002917  -0.0000596  -0.0003101
    3   0.0004176  -0.0002102   0.0000381   0.0000526  -0.0002333  -0.0000497
           25          26          27          28          29          30
    1   0.0001762  -0.0000354   0.0000274  -0.0000342   0.0001529   0.0001054
    2   0.0001131   0.0001249   0.0000147   0.0001284   0.0000024   0.0000288
    3  -0.0000049   0.0000917  -0.0000422   0.0000259  -0.0000392   0.0000058
           31          32          33          34          35          36
    1  -0.0000453  -0.0008672  -0.0004148  -0.0005084  -0.0002877   0.0000694
    2  -0.0000344  -0.0044621   0.0001532   0.0003681  -0.0003841   0.0003610
    3  -0.0000238  -0.0004807  -0.0001060  -0.0009597   0.0001675   0.0000315
           37          38          39          40          41          42
    1  -0.0003260  -0.0005244   0.0011161  -0.0001681   0.0000353   0.0000318
    2   0.0001572   0.0006343  -0.0007588  -0.0004937   0.0000113   0.0002847
    3   0.0002521  -0.0000751   0.0010096   0.0001703  -0.0000031   0.0001409
           43          44          45          46          47          48
    1   0.0000904  -0.0000130  -0.0000667   0.0000503   0.0001098   0.0001547
    2   0.0000466  -0.0000025  -0.0000798  -0.0001223   0.0002083   0.0000356
    3   0.0000383   0.0000106  -0.0000359   0.0000062   0.0002504  -0.0000444
           49          50          51          52          53          54
    1   0.0000532  -0.0000421   0.0000278   0.0000322   0.0003088  -0.0002620
    2  -0.0000219   0.0000216  -0.0000079   0.0000511   0.0005341   0.0009059
    3   0.0000340   0.0000403   0.0000263  -0.0000163   0.0003141   0.0004851
           55          56
    1  -0.0015062   0.0007546
    2  -0.0002041   0.0001316
    3   0.0004488  -0.0007289
 Max gradient component =       6.796E-03
 RMS gradient           =       9.495E-04
 Gradient time:  CPU 28.91 s  wall 0.61 s
 Geometry Optimization Parameters
   NAtoms,    NIC,     NZ,  NCons,   NDum,   NFix, NCnnct, MaxDiis
       56     458       0       0       0       0       0       0

 Cartesian Hessian Update
 Hessian Updated using BFGS Update


** GEOMETRY OPTIMIZATION IN DELOCALIZED INTERNAL COORDINATES **
   Searching for a Minimum

   Optimization Cycle:   3

                       Coordinates (Angstroms)
     ATOM                X               Y               Z
      1  O         5.1203513174   -2.5707544663    0.6173440466
      2  C         4.5902775902   -1.5881418061    0.0546347397
      3  C         5.2280563425   -0.1644962542   -0.1144572024
      4  C         4.2736407387    1.0150192191   -0.5729980626
      5  C         2.7257792796    0.7390435786   -0.4281146848
      6  O         2.1578542418    0.6884948865   -1.7525211414
      7  C         0.6966040500    0.9279577746   -1.8425626345
      8  C        -0.2219809835    0.6336797333   -0.6011845502
      9  O        -1.6003870191    0.8361358757   -1.1267037556
     10  C        -2.5538577696    0.6654116541   -0.0716048211
     11  C        -3.9878535882    0.8703291148   -0.6780027564
     12  C        -4.9094066444   -0.4192984452   -0.5979120979
     13  C        -4.1441045925   -1.6828136486   -0.0638466677
     14  O        -2.9566359090   -1.9861312781   -0.3156419449
     15  O         3.3180431666   -1.6373513364   -0.5951737209
     16  O        -5.0203537231   -2.4799407117    0.7348022738
     17  O        -2.2525639177    0.4251097155    1.1168455640
     18  C        -4.3032586678   -3.6785182399    1.2286593921
     19  C        -4.8329661036    1.8825549578    0.2099350953
     20  C        -6.1097211909    2.3268219850   -0.6096614966
     21  C        -7.0115122271    1.0430040750   -0.4894557320
     22  C        -6.0737025520    0.0907699202    0.3515284198
     23  O        -5.3829916996    1.0171137280    1.2778303327
     24  H        -3.8765158067    1.2194976781   -1.7190590196
     25  H        -5.3008822765   -0.6730840379   -1.6011450594
     26  H        -4.2431373604    2.7101721036    0.6493582299
     27  H        -6.5856670834    3.2017067949   -0.1388239796
     28  H        -5.8639015463    2.5782301938   -1.6538030656
     29  H        -7.9404578645    1.2530570990    0.0640226598
     30  H        -7.2730697326    0.6117636064   -1.4688479045
     31  H        -6.5829095891   -0.7162784324    0.9122000553
     32  O         2.0995947816    0.5975683252    0.6424279219
     33  C         2.6816350147   -2.9597859331   -0.4075210156
     34  C         5.8200996854    0.4268960350    1.2413604644
     35  C         6.9762347682    1.4279011730    0.8540234146
     36  C         6.1432672768    2.6139439729    0.2399480632
     37  C         4.6633802579    2.1216662095    0.4997340534
     38  O         4.7579159749    1.3261490610    1.7452477799
     39  H         6.0528521995   -0.2868047973   -0.8421136506
     40  H         4.4811649200    1.3212380077   -1.6124788214
     41  H         2.4725261325   -3.1596945044    0.6632327216
     42  H         6.0805549239   -0.3379931468    1.9986990877
     43  H         7.5240437226    1.7463254602    1.7554264702
     44  H         7.6915314802    0.9898361621    0.1398851689
     45  H         6.3342657151    3.5620244615    0.7669551088
     46  H         6.3437604085    2.7608822385   -0.8335718673
     47  H         3.9143051178    2.9287898877    0.6158015080
     48  H         3.3188242840   -3.7765535932   -0.8039936343
     49  H         1.7303917066   -2.9206138265   -0.9694699639
     50  H        -5.0240127384   -4.2230333406    1.8660310463
     51  H        -3.4118785274   -3.4002317407    1.8268853382
     52  H        -3.9781780256   -4.3320331164    0.3932626666
     53  H        -0.0908230255   -0.4045854383   -0.2309330601
     54  H        -0.0201179549    1.3287510712    0.2402368222
     55  H         0.3352366805    0.2932976509   -2.6803890536
     56  H         0.5491859859    1.9904001087   -2.1436712931
   Point Group: c1    Number of degrees of freedom:   162


   Energy is  -1510.269343875

 Hessian Updated using BFGS Update

152 Hessian modes will be used to form the next step
  Hessian Eigenvalues:
     0.001255    0.002009    0.002118    0.002397    0.002684    0.003512
     0.003914    0.004435    0.004464    0.004800    0.004875    0.005116
     0.006318    0.006821    0.010233    0.011617    0.011855    0.013517
     0.021726    0.021964    0.026073    0.026274    0.030874    0.031041
     0.033926    0.035547    0.035989    0.038510    0.040991    0.041555
     0.042171    0.042977    0.045783    0.047935    0.048573    0.050160
     0.050836    0.051319    0.053558    0.054262    0.054496    0.054988
     0.055171    0.055244    0.055982    0.056821    0.058481    0.059203
     0.059808    0.060977    0.062551    0.063507    0.063910    0.064086
     0.064384    0.069715    0.070072    0.072896    0.073492    0.092220
     0.092550    0.092898    0.094439    0.095824    0.096799    0.097069
     0.098783    0.102716    0.102940    0.105333    0.110140    0.115737
     0.122056    0.122114    0.127090    0.131569    0.145436    0.157377
     0.159984    0.159999    0.160019    0.160940    0.164009    0.168639
     0.218832    0.219436    0.219839    0.223532    0.226881    0.232238
     0.238610    0.238678    0.239451    0.239530    0.244511    0.246372
     0.247603    0.248885    0.249430    0.249585    0.249855    0.252118
     0.252976    0.253245    0.254171    0.258648    0.259750    0.259904
     0.261282    0.292797    0.293187    0.306618    0.307477    0.321103
     0.322583    0.324413    0.325922    0.326688    0.326807    0.326934
     0.327010    0.328583    0.328758    0.328898    0.328931    0.329538
     0.329797    0.330725    0.330784    0.332442    0.332804    0.334118
     0.334725    0.334809    0.334853    0.334907    0.334927    0.335101
     0.335210    0.335380    0.339536    0.344034    0.345119    0.347886
     0.401064    0.406302    0.411851    0.413973    0.827998    0.831623
     0.834597    0.838246

 Minimum Search - Taking Simple RFO Step
 Searching for Lamda that Minimizes Along All modes
 Value Taken    Lamda =  -0.01010690
 Calculated Step too Large.  Step scaled by  0.332317
 Step Taken.  Stepsize is  0.300000

                             Maximum     Tolerance    Cnvgd?
         Gradient           0.007525      0.000300      NO
         Displacement       0.144780      0.001200      NO
         Energy change     -0.003360      0.000001      NO


 New Cartesian Coordinates Obtained by Inverse Iteration

 Displacement from previous Coordinates is:  5.083912
 Adding empirical dispersion correction 
 ----------------------------------------------------------------
 Doing -D3(op) with
 s6 =   1.00000
 s8 =   0.78311
 a1 =   0.30000
 a2 =   4.25000
 n  =  10.00000
 -D3 energy without 3body term =     -0.0654678897 hartrees
 ----------------------------------------------------------------
             Standard Nuclear Orientation (Angstroms)
    I     Atom           X                Y                Z
 ----------------------------------------------------------------
    1      O       4.6791949590    -2.4618297054     0.9786476713
    2      C       4.2876510010    -1.4936183042     0.2912571476
    3      C       5.1219246043    -0.2125463678    -0.0613308350
    4      C       4.3291099809     1.0452094747    -0.6091188894
    5      C       2.7661256513     0.9986533821    -0.4072719889
    6      O       2.1693592710     0.9117186574    -1.7141290170
    7      C       0.7024679221     1.1280273691    -1.7846007692
    8      C      -0.2095147063     0.7353791919    -0.5657777470
    9      O      -1.5918689721     0.9298063152    -1.0849811218
   10      C      -2.5424970300     0.6629053841    -0.0477706426
   11      C      -3.9808607447     0.8574750135    -0.6470747335
   12      C      -4.8517283248    -0.4686293810    -0.6719538633
   13      C      -4.0414555250    -1.7400190303    -0.2300713926
   14      O      -2.8391161940    -1.9743465185    -0.4850624424
   15      O       2.9971211838    -1.4210306226    -0.3186328364
   16      O      -4.8939727995    -2.6333702044     0.4884835391
   17      O      -2.2380372098     0.3648615398     1.1267405526
   18      C      -4.1346108099    -3.8386614275     0.8953502418
   19      C      -4.8678393860     1.7665462002     0.3077569842
   20      C      -6.1574792227     2.2230902089    -0.4841355560
   21      C      -7.0097456790     0.9004012360    -0.4680252480
   22      C      -6.0393229914    -0.0771150218     0.3045940174
   23      O      -5.3883465094     0.8021367708     1.3034778746
   24      H      -3.8787089205     1.2861145098    -1.6589923427
   25      H      -5.2274777769    -0.6596285473    -1.6949677950
   26      H      -4.3117543555     2.5801623368     0.8122531885
   27      H      -6.6686830152     3.0410013660     0.0482744256
   28      H      -5.9174991596     2.5619058041    -1.5046854902
   29      H      -7.9483936436     1.0322119153     0.0934481580
   30      H      -7.2508411190     0.5353994621    -1.4790350284
   31      H      -6.5192016962    -0.9434665097     0.7987140110
   32      O       2.1597143380     1.0434995125     0.6826336685
   33      C       2.1720043336    -2.5904115733     0.0568443078
   34      C       5.8526276351     0.4167307497     1.2082851868
   35      C       7.1186521917     1.2007905103     0.6864724759
   36      C       6.4323470163     2.4316194118    -0.0147325480
   37      C       4.9114371008     2.1811681266     0.3369888124
   38      O       4.9497385551     1.5016548582     1.6521842354
   39      H       5.8865090747    -0.5301374549    -0.7954124636
   40      H       4.5380141400     1.2183643926    -1.6788064038
   41      H       1.9799571294    -2.6159832841     1.1489561064
   42      H       6.0367425441    -0.3022694111     2.0303412790
   43      H       7.7458247175     1.5202918658     1.5340908681
   44      H       7.7323714977     0.5996057693    -0.0029475074
   45      H       6.7762279854     3.3877355455     0.4105408940
   46      H       6.6035723587     2.4483031838    -1.1031580585
   47      H       4.2861836293     3.0931871027     0.3929075077
   48      H       2.6565692591    -3.5424470051    -0.2414246578
   49      H       1.2152936368    -2.4718020057    -0.4844038730
   50      H      -4.8401366941    -4.4612625347     1.4756778370
   51      H      -3.2626527240    -3.5745114312     1.5275512686
   52      H      -3.7731400349    -4.4091348294     0.0152641223
   53      H      -0.0507533434    -0.3203048743    -0.2603909371
   54      H      -0.0284811479     1.3817777836     0.3171342310
   55      H       0.3588432820     0.5280712760    -2.6545247614
   56      H       0.5270643804     2.2001252433    -2.0307958748
 ----------------------------------------------------------------
 Molecular Point Group                 C1    NOp =  1
 Largest Abelian Subgroup              C1    NOp =  1
 Nuclear Repulsion Energy =  3037.6085035035 hartrees
 There are      113 alpha and      113 beta electrons
 Applying Cartesian multipole field
    Component          Value
    ---------          -----
     (2,0,0)        1.00000E-12
     (0,2,0)        2.00000E-11
     (0,0,2)       -3.00000E-11
 Nucleus-field energy     =     0.0000000432 hartrees
 Requested basis set is STO-3G
 There are 86 shells and 176 basis functions
 A cutoff of  1.0D-12 yielded   2017 shell pairs
 There are      9403 function pairs
 Smallest overlap matrix eigenvalue = 2.13E-01
 Guess MOs from SCF MO coefficient file
 Reading MOs from coefficient file
 Reading MOs from coefficient file
 A restricted hybrid HF-DFT SCF calculation will be
[...]
      7  C         0.5220997612    1.4562769571   -1.8999827264
      8  C        -0.2247181569    1.2569536824   -0.5339297514
      9  O        -1.6858501031    1.3144571535   -0.7713705812
     10  C        -2.3725830878    0.8321198731    0.3895353860
     11  C        -3.9148333899    0.8372026707    0.0784423824
     12  C        -4.4050888985   -0.3722849212   -0.8166861404
     13  C        -3.2650862961   -1.4039932120   -1.1082043633
     14  O        -2.1037692528   -1.3992731817   -0.6393304498
     15  O         1.9298137864    0.0999637359    1.5133482559
     16  O        -3.7664433620   -2.4053309991   -1.9929379404
     17  O        -1.8323705465    0.5780063598    1.4907465718
     18  C        -2.7220453095   -3.4256066970   -2.2499649496
     19  C        -4.7772457936    0.6118089353    1.3912368750
     20  C        -6.2516372747    1.0950546052    1.1003065624
     21  C        -6.7665674757   -0.0600427958    0.1627806440
     22  C        -5.5086524467   -1.0149152649    0.1319457427
     23  O        -4.9110627734   -0.8619351333    1.4764965915
     24  H        -4.1589289856    1.7987601507   -0.4074447880
     25  H        -4.8385069182   -0.0352771428   -1.7753735437
     26  H        -4.3085615840    1.0083543140    2.3126404707
     27  H        -6.8313065568    1.1429082668    2.0357392373
     28  H        -6.2785231597    2.0836775800    0.6149268126
     29  H        -7.6336845923   -0.5805597844    0.5994930810
     30  H        -7.0387993811    0.2972692182   -0.8432382738
     31  H        -5.7266421652   -2.0789879264   -0.0843292365
     32  O         2.4846780529    2.3672020798   -0.3046649596
     33  C         1.0028211547    0.6208794801    2.5517806026
     34  C         5.7031613199    0.5047231361    0.9140122642
     35  C         6.7249171117   -0.4017143882    0.1227602540
     36  C         6.4284169379    0.0317089188   -1.3613249881
     37  C         5.2996573933    1.1159274211   -1.1428009316
     38  O         5.6779135454    1.7637534150    0.1313978451
     39  H         4.2217708037   -1.1782236516    0.8016715883
     40  H         3.7820706929   -0.5168473548   -1.4350290796
     41  H         1.2138627480    1.6866411420    2.7683446117
     42  H         5.9549989231    0.7156054426    1.9714354072
     43  H         7.7597303351   -0.1616675303    0.4145718870
     44  H         6.5489919243   -1.4754768363    0.2956528561
     45  H         7.3127000046    0.4872175331   -1.8349188901
     46  H         6.0831318909   -0.8055026236   -1.9888016271
     47  H         5.2052675087    1.8689990060   -1.9491335900
     48  H         1.1113607534    0.0460483377    3.4936780022
     49  H        -0.0324504849    0.5115594429    2.1549679776
     50  H        -3.1928824889   -4.1859399467   -2.8997539776
     51  H        -2.3766465595   -3.9001036113   -1.3090254758
     52  H        -1.8440927429   -2.9871181694   -2.7670305964
     53  H         0.0621388701    0.2667847825   -0.1195944900
     54  H         0.0901079327    2.0385214775    0.1888045261
     55  H        -0.0664233724    1.0008190209   -2.7218115442
     56  H         0.6779694590    2.5352300960   -2.1126444022
   Point Group: c1    Number of degrees of freedom:   162


   Energy is  -1510.291136905

 Hessian Updated using BFGS Update

162 Hessian modes will be used to form the next step
  Hessian Eigenvalues:
     0.001153    0.001528    0.001788    0.002566    0.002825    0.004543
     0.004881    0.004976    0.006099    0.006938    0.010747    0.013294
     0.015285    0.016477    0.017952    0.021876    0.022026    0.022739
     0.027013    0.027444    0.030488    0.030729    0.032419    0.033489
     0.035647    0.038153    0.039110    0.040955    0.042309    0.042458
     0.042926    0.044223    0.046319    0.047704    0.049304    0.050958
     0.051657    0.052432    0.053807    0.054586    0.055184    0.055357
     0.055451    0.056439    0.056547    0.057206    0.058172    0.060337
     0.063107    0.063378    0.063762    0.064155    0.064375    0.064843
     0.066729    0.069990    0.070487    0.072744    0.072926    0.073701
     0.083114    0.092887    0.093033    0.096449    0.096815    0.098437
     0.100230    0.102125    0.102722    0.105148    0.110542    0.111935
     0.117746    0.121797    0.126736    0.137975    0.142612    0.146580
     0.156258    0.159871    0.160082    0.160380    0.160556    0.161281
     0.164942    0.166383    0.172378    0.184029    0.211848    0.217899
     0.223125    0.226461    0.230592    0.235877    0.236887    0.238962
     0.239284    0.240571    0.242949    0.245231    0.246197    0.247895
     0.249525    0.251050    0.251477    0.252988    0.253579    0.254303
     0.256442    0.258455    0.259924    0.260856    0.273137    0.276832
     0.290942    0.292912    0.300087    0.306583    0.307811    0.319948
     0.322696    0.325650    0.326022    0.326657    0.326841    0.327025
     0.327428    0.328363    0.328813    0.329025    0.329090    0.329574
     0.329770    0.330000    0.330820    0.331379    0.332653    0.333881
     0.334737    0.334802    0.334871    0.335008    0.335097    0.335164
     0.335369    0.335678    0.343882    0.345121    0.348319    0.362635
     0.383855    0.408935    0.411720    0.415330    0.459628    0.523706
     0.828207    0.831745    0.835781    0.840726    1.037829    2.521952

 Minimum Search - Taking Simple RFO Step
 Searching for Lamda that Minimizes Along All modes
 Value Taken    Lamda =   0.00000000
 Step Taken.  Stepsize is  0.013164

                             Maximum     Tolerance    Cnvgd?
         Gradient           0.000149      0.000300     YES
         Displacement       0.003831      0.001200      NO
         Energy change      0.000000      0.000001     YES

 Final energy is   -1510.29113690489     


 ******************************
 **  OPTIMIZATION CONVERGED  **
 ******************************

                       Coordinates (Angstroms)
     ATOM                X               Y               Z
      1  O         3.5937169589    1.2264365440    2.7745552028
      2  C         3.2681241889    0.5222342070    1.7947631700
      3  C         4.2435500224   -0.0763161779    0.7128777474
      4  C         3.9462309898    0.3599911271   -0.7846242404
      5  C         2.7036420399    1.2984356058   -0.9148030712
      6  O         1.8110876924    0.7189910547   -1.8795021594
      7  C         0.5220997612    1.4562769571   -1.8999827264
      8  C        -0.2247181569    1.2569536824   -0.5339297514
      9  O        -1.6858501031    1.3144571535   -0.7713705812
     10  C        -2.3725830878    0.8321198731    0.3895353860
     11  C        -3.9148333899    0.8372026707    0.0784423824
     12  C        -4.4050888985   -0.3722849212   -0.8166861404
     13  C        -3.2650862961   -1.4039932120   -1.1082043633
     14  O        -2.1037692528   -1.3992731817   -0.6393304498
     15  O         1.9298137864    0.0999637359    1.5133482559
     16  O        -3.7664433620   -2.4053309991   -1.9929379404
     17  O        -1.8323705465    0.5780063598    1.4907465718
     18  C        -2.7220453095   -3.4256066970   -2.2499649496
     19  C        -4.7772457936    0.6118089353    1.3912368750
     20  C        -6.2516372747    1.0950546052    1.1003065624
     21  C        -6.7665674757   -0.0600427958    0.1627806440
     22  C        -5.5086524467   -1.0149152649    0.1319457427
     23  O        -4.9110627734   -0.8619351333    1.4764965915
     24  H        -4.1589289856    1.7987601507   -0.4074447880
     25  H        -4.8385069182   -0.0352771428   -1.7753735437
     26  H        -4.3085615840    1.0083543140    2.3126404707
     27  H        -6.8313065568    1.1429082668    2.0357392373
     28  H        -6.2785231597    2.0836775800    0.6149268126
     29  H        -7.6336845923   -0.5805597844    0.5994930810
     30  H        -7.0387993811    0.2972692182   -0.8432382738
     31  H        -5.7266421652   -2.0789879264   -0.0843292365
     32  O         2.4846780529    2.3672020798   -0.3046649596
     33  C         1.0028211547    0.6208794801    2.5517806026
     34  C         5.7031613199    0.5047231361    0.9140122642
     35  C         6.7249171117   -0.4017143882    0.1227602540
     36  C         6.4284169379    0.0317089188   -1.3613249881
     37  C         5.2996573933    1.1159274211   -1.1428009316
     38  O         5.6779135454    1.7637534150    0.1313978451
     39  H         4.2217708037   -1.1782236516    0.8016715883
     40  H         3.7820706929   -0.5168473548   -1.4350290796
     41  H         1.2138627480    1.6866411420    2.7683446117
     42  H         5.9549989231    0.7156054426    1.9714354072
     43  H         7.7597303351   -0.1616675303    0.4145718870
     44  H         6.5489919243   -1.4754768363    0.2956528561
     45  H         7.3127000046    0.4872175331   -1.8349188901
     46  H         6.0831318909   -0.8055026236   -1.9888016271
     47  H         5.2052675087    1.8689990060   -1.9491335900
     48  H         1.1113607534    0.0460483377    3.4936780022
     49  H        -0.0324504849    0.5115594429    2.1549679776
     50  H        -3.1928824889   -4.1859399467   -2.8997539776
     51  H        -2.3766465595   -3.9001036113   -1.3090254758
     52  H        -1.8440927429   -2.9871181694   -2.7670305964
     53  H         0.0621388701    0.2667847825   -0.1195944900
     54  H         0.0901079327    2.0385214775    0.1888045261
     55  H        -0.0664233724    1.0008190209   -2.7218115442
     56  H         0.6779694590    2.5352300960   -2.1126444022

Z-matrix Print:
$molecule
0 1
O 
C  1 1.432464
O  2 1.252625 1 125.031104
C  1 1.481415 2 109.261348 3 8.996006 0
H  4 1.110094 1 110.900260 2 -72.016415 0
H  4 1.111033 1 110.427444 2 47.849663 0
C  4 1.569576 1 108.957580 2 166.746648 0
H  7 1.108695 4 109.901294 1 -34.027712 0
H  7 1.110703 4 110.902154 1 87.022953 0
O  7 1.485093 4 109.750822 1 -149.603041 0
C  10 1.436333 7 110.385621 4 -66.246698 0
O  11 1.249990 10 124.326936 7 -8.186123 0
C  11 1.562579 10 107.928407 7 171.602309 0
H  13 1.104002 11 108.039444 10 -2.483184 0
C  2 1.573322 1 107.975218 3 173.841410 0
H  15 1.104655 2 107.841853 1 -45.183745 0
C  15 1.582550 2 114.396081 1 78.006688 0
H  17 1.104766 15 112.286051 2 -118.376852 0
C  17 1.564932 15 112.553718 2 5.047016 0
O  19 1.252407 17 127.103799 15 5.403522 0
O  19 1.427161 17 108.791997 15 -175.987608 0
C  21 1.482495 19 110.051653 17 -177.988160 0
H  22 1.105450 21 105.974546 19 177.491700 0
H  22 1.108970 21 111.517260 19 58.165713 0
H  22 1.109247 21 111.490943 19 -63.351194 0
C  15 1.586817 2 111.636024 1 -168.067680 0
H  26 1.107203 15 114.051016 2 30.868339 0
O  26 1.482261 15 103.761316 2 -89.124399 0
C  28 1.479302 26 94.991549 15 -56.190561 0
H  29 1.107495 28 110.877257 26 -179.921837 0
C  26 1.578606 15 108.158960 2 161.592591 0
H  31 1.101517 26 110.383129 15 -168.841697 0
H  31 1.101677 26 112.253090 15 -47.270375 0
C  31 1.574280 26 100.990022 15 73.167157 0
H  34 1.101611 31 111.596632 26 119.344384 0
H  34 1.101751 31 112.745784 26 -117.972063 0
C  13 1.587852 11 113.109884 10 -126.303383 0
H  37 1.105694 13 110.235865 11 121.724373 0
C  37 1.574863 13 115.307311 11 -1.056357 0
O  39 1.249762 37 126.254113 13 -121.465548 0
O  39 1.431287 37 109.386410 13 60.390784 0
C  41 1.486274 39 110.023854 37 178.166878 0
H  42 1.107830 41 110.789871 39 44.924526 0
H  42 1.108775 41 110.534178 39 -75.135710 0
H  42 1.114091 41 107.237425 39 164.908232 0
C  37 1.583833 13 101.041633 11 -119.748719 0
H  46 1.107266 37 113.624908 13 154.875405 0
O  46 1.482660 37 103.226324 13 35.468727 0
C  48 1.478627 46 95.001371 37 -57.162613 0
H  49 1.107339 48 110.569630 46 179.979964 0
C  46 1.578510 37 108.796300 13 -74.041409 0
H  51 1.101642 46 110.494664 37 -167.710482 0
H  51 1.101729 46 112.187370 37 -46.224022 0
C  51 1.574254 46 101.101198 37 74.110981 0
H  54 1.101697 51 111.587013 46 117.886024 0
H  54 1.101759 51 112.750313 46 -119.420314 0
$end

 
 --------------------------------------------------------------
 
                    Orbital Energies (a.u.)
 --------------------------------------------------------------
 
 Alpha MOs
 -- Occupied --
-18.947 -18.930 -18.929 -18.918 -18.891 -18.890 -18.883 -18.874
-18.871 -18.863 -10.110 -10.102 -10.096 -10.087 -10.073 -10.071
-10.065 -10.062 -10.060 -10.057 -10.052 -10.045 -10.039 -10.033
-10.032 -10.031 -10.024 -10.022 -10.017 -10.016  -1.024  -1.011
 -1.006  -0.996  -0.974  -0.965  -0.947  -0.936  -0.932  -0.922
 -0.767  -0.758  -0.728  -0.721  -0.713  -0.704  -0.693  -0.670
 -0.644  -0.614  -0.597  -0.580  -0.549  -0.541  -0.540  -0.532
 -0.516  -0.505  -0.482  -0.469  -0.461  -0.458  -0.456  -0.446
 -0.435  -0.432  -0.425  -0.419  -0.415  -0.407  -0.397  -0.393
 -0.388  -0.383  -0.379  -0.364  -0.361  -0.357  -0.351  -0.348
 -0.344  -0.338  -0.333  -0.331  -0.327  -0.322  -0.319  -0.315
 -0.308  -0.306  -0.305  -0.299  -0.289  -0.282  -0.278  -0.277
 -0.269  -0.262  -0.252  -0.249  -0.238  -0.237  -0.229  -0.190
 -0.180  -0.169  -0.164  -0.163  -0.152  -0.150  -0.148  -0.141
 -0.138
 -- Virtual --
  0.088   0.097   0.105   0.117   0.214   0.238   0.242   0.248
  0.270   0.279   0.284   0.288   0.304   0.318   0.326   0.332
  0.338   0.341   0.347   0.351   0.353   0.367   0.368   0.372
  0.378   0.383   0.389   0.392   0.401   0.406   0.408   0.414
  0.416   0.416   0.420   0.422   0.424   0.427   0.428   0.434
  0.435   0.436   0.437   0.444   0.448   0.456   0.461   0.464
  0.470   0.483   0.491   0.492   0.501   0.505   0.510   0.537
  0.546   0.549   0.555   0.634   0.646   0.654   0.659
 --------------------------------------------------------------
 
          Ground-State Mulliken Net Atomic Charges

     Atom                 Charge (a.u.)
  ----------------------------------------
      1 O                    -0.211620
      2 C                     0.210262
      3 C                    -0.078696
      4 C                    -0.079623
      5 C                     0.210188
      6 O                    -0.171226
      7 C                    -0.048262
      8 C                    -0.054509
      9 O                    -0.177210
     10 C                     0.223575
     11 C                    -0.080930
     12 C                    -0.077880
     13 C                     0.215170
     14 O                    -0.206379
     15 O                    -0.178691
     16 O                    -0.168183
     17 O                    -0.216708
     18 C                    -0.128230
     19 C                     0.025001
     20 C                    -0.143731
     21 C                    -0.143891
     22 C                     0.025258
     23 O                    -0.188977
     24 H                     0.085185
     25 H                     0.087787
     26 H                     0.090259
     27 H                     0.079023
     28 H                     0.073839
     29 H                     0.078966
     30 H                     0.074000
     31 H                     0.085716
     32 O                    -0.213255
     33 C                    -0.146711
     34 C                     0.024408
     35 C                    -0.144302
     36 C                    -0.143740
     37 C                     0.025740
     38 O                    -0.186546
     39 H                     0.083268
     40 H                     0.085662
     41 H                     0.086146
     42 H                     0.091260
     43 H                     0.077706
     44 H                     0.072661
     45 H                     0.077349
     46 H                     0.072820
     47 H                     0.081908
     48 H                     0.077983
     49 H                     0.113353
     50 H                     0.092778
     51 H                     0.093133
     52 H                     0.090648
     53 H                     0.103017
     54 H                     0.093533
     55 H                     0.091945
     56 H                     0.089753
  ----------------------------------------
  Sum of atomic charges =     0.000000

 -----------------------------------------------------------------
                    Cartesian Multipole Moments
 -----------------------------------------------------------------
    Charge (ESU x 10^10)
                 0.0000
    Dipole Moment (Debye)
         X      -2.7135      Y      -2.1768      Z      -3.6452
       Tot       5.0387
    Quadrupole Moments (Debye-Ang)
        XX    -144.7140     XY     -14.8851     YY    -159.2011
        XZ      -2.2892     YZ      -0.2037     ZZ    -161.3368
    Octopole Moments (Debye-Ang^2)
       XXX     -64.7719    XXY     -72.9138    XYY     -44.9628
       YYY    -140.8897    XXZ     -43.1396    XYZ     -33.0609
       YYZ     -20.9758    XZZ      -3.5363    YZZ     -39.2252
       ZZZ     -13.3303
    Hexadecapole Moments (Debye-Ang^3)
      XXXX  -16152.5228   XXXY   -1137.4667   XXYY   -3210.6632
      XYYY    -793.2799   YYYY   -1695.9378   XXXZ    -114.3055
      XXYZ    -133.2260   XYYZ      -4.7358   YYYZ    -219.1722
      XXZZ   -3196.4103   XYZZ    -289.0602   YYZZ    -587.5946
      XZZZ     -38.8347   YZZZ    -268.2316   ZZZZ   -1982.7788
 -----------------------------------------------------------------
Archival summary:
1\1\vega02.cac.cornell.edu\OPT\ProcedureUnspecified\STO-3G\102026\jj585\SatJan1319:33:002018SatJan1319:33:002018\0\\#,OPT,ProcedureUnspecified,STO-3G,\\0,1\O\C,1,1.43246\O,2,1.25262,1,125.031\C,1,1.48142,2,109.261,3,8.99601,0\H,4,1.11009,1,110.9,2,-72.0164,0\H,4,1.11103,1,110.427,2,47.8497,0\C,4,1.56958,1,108.958,2,166.747,0\H,7,1.10869,4,109.901,1,-34.0277,0\H,7,1.1107,4,110.902,1,87.023,0\O,7,1.48509,4,109.751,1,-149.603,0\C,10,1.43633,7,110.386,4,-66.2467,0\O,11,1.24999,10,124.327,7,-8.18612,0\C,11,1.56258,10,107.928,7,171.602,0\H,13,1.104,11,108.039,10,-2.48318,0\C,2,1.57332,1,107.975,3,173.841,0\H,15,1.10465,2,107.842,1,-45.1837,0\C,15,1.58255,2,114.396,1,78.0067,0\H,17,1.10477,15,112.286,2,-118.377,0\C,17,1.56493,15,112.554,2,5.04702,0\O,19,1.25241,17,127.104,15,5.40352,0\O,19,1.42716,17,108.792,15,-175.988,0\C,21,1.4825,19,110.052,17,-177.988,0\H,22,1.10545,21,105.975,19,177.492,0\H,22,1.10897,21,111.517,19,58.1657,0\H,22,1.10925,21,111.491,19,-63.3512,0\C,15,1.58682,2,111.636,1,-168.068,0\H,26,1.1072,15,114.051,2,30.8683,0\O,26,1.48226,15,103.761,2,-89.1244,0\C,28,1.4793,26,94.9915,15,-56.1906,0\H,29,1.10749,28,110.877,26,-179.922,0\C,26,1.57861,15,108.159,2,161.593,0\H,31,1.10152,26,110.383,15,-168.842,0\H,31,1.10168,26,112.253,15,-47.2704,0\C,31,1.57428,26,100.99,15,73.1672,0\H,34,1.10161,31,111.597,26,119.344,0\H,34,1.10175,31,112.746,26,-117.972,0\C,13,1.58785,11,113.11,10,-126.303,0\H,37,1.10569,13,110.236,11,121.724,0\C,37,1.57486,13,115.307,11,-1.05636,0\O,39,1.24976,37,126.254,13,-121.466,0\O,39,1.43129,37,109.386,13,60.3908,0\C,41,1.48627,39,110.024,37,178.167,0\H,42,1.10783,41,110.79,39,44.9245,0\H,42,1.10878,41,110.534,39,-75.1357,0\H,42,1.11409,41,107.237,39,164.908,0\C,37,1.58383,13,101.042,11,-119.749,0\H,46,1.10727,37,113.625,13,154.875,0\O,46,1.48266,37,103.226,13,35.4687,0\C,48,1.47863,46,95.0014,37,-57.1626,0\H,49,1.10734,48,110.57,46,179.98,0\C,46,1.57851,37,108.796,13,-74.0414,0\H,51,1.10164,46,110.495,37,-167.71,0\H,51,1.10173,46,112.187,37,-46.224,0\C,51,1.57425,46,101.101,37,74.111,0\H,54,1.1017,51,111.587,46,117.886,0\H,54,1.10176,51,112.75,46,-119.42,0\\\@

 Total job time:  100.97s(wall), 4802.20s(cpu) 
 Sat Jan 13 19:33:00 2018

        *************************************************************
        *                                                           *
        *  Thank you very much for using Q-Chem.  Have a nice day.  *
        *                                                           *
        *************************************************************


0 sent ACK to 0 
now end server 0 ... 
