mFile = /opt/software/qchem/qchem-5.0.1//bin/mpi/machines
Process 0 of 1 is on vega02.cac.cornell.edu - thread support 0
initial socket setup ...start
initial socket setup ...done 
now start server 0 ... 
vega02.cac.cornell.edu 10.84.3
Q-Chem Developer Version! Running on 10.84.3.*
                  Welcome to Q-Chem
     A Quantum Leap Into The Future Of Chemistry


 Q-Chem 5.0, Q-Chem, Inc., Pleasanton, CA (2017)

 Yihan Shao,  Zhengting Gan,  E. Epifanovsky,  A. T. B. Gilbert,  M. Wormit,  
 J. Kussmann,  A. W. Lange,  A. Behn,  Jia Deng,  Xintian Feng,  D. Ghosh,  
 M. Goldey,  P. R. Horn,  L. D. Jacobson,  I. Kaliman,  T. Kus,  A. Landau,  
 Jie Liu,  E. I. Proynov,  R. M. Richard,  R. P. Steele,  E. J. Sundstrom,  
 H. L. Woodcock III,  P. M. Zimmerman,  D. Zuev,  B. Albrecht,  E. Alguire,  
 S. A. Baeppler,  Z. Benda,  Y. A. Bernard,  E. J. Berquist,  K. B. Bravaya,  
 D. Casanova,  Chun-Min Chang,  Yunqing Chen,  A. Chien,  K. D. Closser,  
 M. P. Coons,  S. Dasgupta,  M. Diedenhofen,  Hainam Do,  R. G. Edgar,  
 Po-Tung Fang,  S. Fatehi,  Qingguo Feng,  Qinghui Ge,  A. Ghysels,  
 J. Gomes,  J. Gonthier,  A. Gunina,  M. W. D. Hanson-Heine,  
 P. H. P. Harbach,  A. W. Hauser,  J. E. Herr,  E. G. Hohenstein,  
 Z. C. Holden,  Kerwin Hui,  T.-C. Jagau,  Hyunjun Ji,  B. Kaduk,  
 K. Khistyaev,  Jaehoon Kim,  P. Klunzinger,  K. Koh,  D. Kosenkov,  
 T. Kowalczyk,  C. M. Krauter,  A. Kunitsa,  Ka Un Lao,  A. Laurent,  
 K. V. Lawler,  Joonho Lee,  D. Lefrancois,  S. Lehtola,  D. S. Levine,  
 Yi-Pei Li,  You-Sheng Lin,  Fenglai Liu,  E. Livshits,  A. Luenser,  
 P. Manohar,  E. Mansoor,  S. F. Manzer,  Shan-Ping Mao,  Yuezhi Mao,  
 N. Mardirossian,  A. V. Marenich,  L. A. Martinez-Martinez,  S. A. Maurer,  
 N. J. Mayhall,  S. C. McKenzie,  J.-M. Mewes,  A. F. Morrison,  K. Nanda,  
 T. S. Nguyen-Beck,  R. Olivares-Amaya,  J. A. Parkhill,  T. M. Perrine,  
 F. Plasser,  S. Prager,  A. Prociuk,  D. R. Rehn,  F. Rob,  M. Schneider,  
 N. Sergueev,  S. M. Sharada,  S. Sharma,  D. W. Small,  T. Stauch,  
 T. Stein,  Yu-Chuan Su,  A. J. W. Thom,  T. Tsuchimochi,  L. Vogt,  
 O. Vydrov,  M. A. Watson,  J. Wenzel,  M. de Wergifosse,  T. A. Wesolowski,  
 A. White,  J. Witte,  A. Yamada,  Jun Yang,  K. Yao,  S. Yeganeh,  
 S. R. Yost,  Zhi-Qiang You,  A. Zech,  Igor Ying Zhang,  Xing Zhang,  
 Yan Zhao,  Ying Zhu,  B. R. Brooks,  G. K. L. Chan,  C. J. Cramer,  
 M. S. Gordon,  W. J. Hehre,  A. Klamt,  M. W. Schmidt,  C. D. Sherrill,  
 D. G. Truhlar,  A. Aspuru-Guzik,  R. Baer,  A. T. Bell,  N. A. Besley,  
 Jeng-Da Chai,  A. Dreuw,  B. D. Dunietz,  T. R. Furlani,  Chao-Ping Hsu,  
 Yousung Jung,  Jing Kong,  D. S. Lambrecht,  WanZhen Liang,  C. Ochsenfeld,  
 V. A. Rassolov,  L. V. Slipchenko,  J. E. Subotnik,  T. Van Voorhis,  
 J. M. Herbert,  A. I. Krylov,  P. M. W. Gill,  M. Head-Gordon

 Contributors to earlier versions of Q-Chem not listed above: 
 R. D. Adamson,  B. Austin,  J. Baker,  G. J. O. Beran,  K. Brandhorst,  
 S. T. Brown,  E. F. C. Byrd,  A. K. Chakraborty,  C.-L. Cheng,  
 Siu Hung Chien,  D. M. Chipman,  D. L. Crittenden,  H. Dachsel,  
 R. A. DiStasio Jr.,  R. J. Doerksen,  A. D. Dutoi,  L. Fusti-Molnar,  
 W. A. Goddard III,  A. Golubeva-Zadorozhnaya,  S. R. Gwaltney,  G. Hawkins,  
 A. Heyden,  S. Hirata,  G. Kedziora,  F. J. Keil,  C. Kelley,  Jihan Kim,  
 R. A. King,  R. Z. Khaliullin,  P. P. Korambath,  W. Kurlancheek,  
 A. M. Lee,  M. S. Lee,  S. V. Levchenko,  Ching Yeh Lin,  D. Liotard,  
 R. C. Lochan,  I. Lotan,  P. E. Maslen,  N. Nair,  D. P. O'Neill,  
 D. Neuhauser,  E. Neuscamman,  C. M. Oana,  R. Olson,  B. Peters,  
 R. Peverati,  P. A. Pieniazek,  Y. M. Rhee,  J. Ritchie,  M. A. Rohrdanz,  
 E. Rosta,  N. J. Russ,  H. F. Schaefer III,  N. E. Schultz,  N. Shenvi,  
 A. C. Simmonett,  A. Sodt,  D. Stuck,  K. S. Thanthiriwatte,  V. Vanovschi,  
 Tao Wang,  A. Warshel,  C. F. Williams,  Q. Wu,  X. Xu,  W. Zhang

 Please cite Q-Chem as follows:
 Y. Shao et al., Mol. Phys. 113, 184-215 (2015)
 DOI: 10.1080/00268976.2014.952696

 Q-Chem 5.0.1 for Intel X86 EM64T Linux

 Parts of Q-Chem use Armadillo 5.200.1 (Boston Tea Smuggler).
 http://arma.sourceforge.net/

 Q-Chem begins on Sat Jan 13 23:11:47 2018  

Host: vega02.cac.cornell.edu
0

     Scratch files written to /scratch/jj585/SOT1001/0236c.save//
 Parallel job on  1  processors

Checking the input file for inconsistencies... 	...done.

--------------------------------------------------------------
User input:
--------------------------------------------------------------
$molecule
0  1
O -3.94934 -3.66094 2.70899
C -3.26408 -4.56952 2.26188
C -3.36658 -6.02376 2.66595
C -4.06137 -6.97914 1.68189
C -4.41791 -6.40938 0.32677
O -3.34788 -5.73557 -0.18939
C -2.67266 -6.45885 -1.2239
C -2.21363 -5.50286 -2.32003
O -1.9469 -6.23415 -3.52708
C -1.16834 -5.59577 -4.43563
C -1.95387 -5.05319 -5.60576
C -1.80521 -3.5429 -5.84069
C -0.64925 -2.87347 -5.12493
O -0.36514 -3.02098 -3.94506
O -2.22141 -4.23436 1.45264
O 0.20469 -2.1314 -5.88305
O 0.05174 -5.58861 -4.35605
C 1.33058 -1.49615 -5.40161
C -1.51488 -5.59955 -6.97929
C -2.69156 -5.52957 -7.94949
C -2.81947 -4.02908 -8.12777
C -1.57306 -3.55321 -7.36679
O -0.65762 -4.61365 -7.50494
H -3.02508 -5.32213 -5.44804
H -2.72085 -3.00211 -5.51585
H -1.10673 -6.63285 -6.93505
H -2.33629 -5.97446 -8.90699
H -3.62181 -6.04845 -7.63289
H -2.75091 -3.79973 -9.21419
H -3.73909 -3.57698 -7.69675
H -1.2482 -2.56709 -7.76326
O -5.5191 -6.4485 -0.2001
C -1.94811 -2.95549 1.01453
C -2.01012 -6.72129 2.85806
C -2.17002 -7.93951 3.76932
C -2.8839 -8.89812 2.83692
C -2.95525 -8.05053 1.56323
O -1.7595 -7.30566 1.60679
H -3.91864 -6.01573 3.63316
H -4.99082 -7.43014 2.0963
H -1.75219 -2.287 1.87983
H -1.22499 -6.03991 3.25273
H -1.15543 -8.34484 3.98368
H -2.69362 -7.72857 4.72658
H -2.21976 -9.77344 2.6592
H -3.88088 -9.247 3.18253
H -3.09592 -8.70397 0.67432
H -2.8028 -2.56505 0.42175
H -1.04706 -2.97839 0.36788
H 1.83419 -0.96677 -6.23622
H 2.0356 -2.23985 -4.97245
H 1.04807 -0.75356 -4.62505
H -3.03517 -4.7887 -2.5485
H -1.33242 -4.92718 -1.95581
H -3.36476 -7.19593 -1.69892
H -1.79051 -7.01149 -0.8432
$end

$opt
CONSTRAINT
tors           1           2           3           4    +104.211
tors           3           4           5           6     +47.368
tors           4           5           6           7    +104.211
tors           5           6           7           8    +142.105
tors           6           7           8           9    -161.053
tors           7           8           9          10    -161.053
tors           8           9          10          11    -104.211
tors           9          10          11          12    +123.158
tors          11          12          13          14     -47.368
ENDCONSTRAINT
$end

$rem
JOBTYPE                   OPT
METHOD                    B3LYP
DFT_D                     d3_op
BASIS                     STO-3G
GEOM_OPT_MAX_CYCLES       100
GEOM_OPT_TOL_GRADIENT     300
GEOM_OPT_TOL_DISPLACEMENT 1200
GEOM_OPT_TOL_ENERGY       100
SYMMETRY                  False
THRESH                    12
SCF_CONVERGENCE           8
MAX_SUB_FILE_NUM          128
MEM_STATIC                400
MEM_TOTAL                 4000
$end
--------------------------------------------------------------
 Adding empirical dispersion correction 
 ----------------------------------------------------------------
 Doing -D3(op) with
 s6 =   1.00000
 s8 =   0.78311
 a1 =   0.30000
 a2 =   4.25000
 n  =  10.00000
 -D3 energy without 3body term =     -0.0680611984 hartrees
 ----------------------------------------------------------------
             Standard Nuclear Orientation (Angstroms)
    I     Atom           X                Y                Z
 ----------------------------------------------------------------
    1      O      -4.4086123812    -2.1352255884     2.0772192238
    2      C      -4.0988984785    -1.5228153814     1.0652719559
    3      C      -4.9070159027    -0.4112164945     0.4329058152
    4      C      -4.4026287952     1.0269721489     0.6355514265
    5      C      -3.0507819554     1.1807011961     1.2965922311
    6      O      -2.1502195292     0.3357051549     0.7131761963
    7      C      -1.2409784716     1.0031529617    -0.1683344793
    8      C       0.1510370954     0.3913867724    -0.0493336863
    9      O       1.1322711905     1.3031476865    -0.5677653072
   10      C       2.3278440344     0.7509328705    -0.8915123882
   11      C       3.4073632143     1.0492945963     0.1215390789
   12      C       4.0827908375    -0.1878247672     0.7311299178
   13      C       3.8476836989    -1.4955635409     0.0022702900
   14      O       2.7628656233    -1.9074580250    -0.3825460114
   15      O      -3.0249626129    -1.9725978299     0.3590709664
   16      O       4.9476833064    -2.2190505211    -0.3458601394
   17      O       2.5158820258     0.1868983517    -1.9599159748
   18      C       4.9158320516    -3.4037270128    -1.0518930253
   19      C       4.6330610974     1.7905650118    -0.4494153863
   20      C       5.3093485955     2.5818334803     0.6674062169
   21      C       5.8699649924     1.4533503863     1.5111183293
   22      C       5.5575336193     0.2512981214     0.6074935759
   23      O       5.5846609047     0.7821717133    -0.6959964123
   24      H       2.9555871749     1.6833842437     0.9206159934
   25      H       3.7350881872    -0.3520526653     1.7744436404
   26      H       4.3888204257     2.4559007164    -1.3061110059
   27      H       6.1563420381     3.1303394937     0.1955022050
   28      H       4.6688511005     3.3068939229     1.2141121620
   29      H       6.9656013179     1.6114240506     1.6215903691
   30      H       5.3971631024     1.3275325803     2.5093677206
   31      H       6.2746414795    -0.5708294691     0.8196672704
   32      O      -2.8038471190     1.8753693040     2.2703484602
   33      C      -2.1977405125    -3.0009427259     0.7595108626
   34      C      -4.9929257590    -0.4884725959    -1.1000942096
   35      C      -6.2216722303     0.2754279961    -1.5967437449
   36      C      -5.7706090556     1.7066066707    -1.3818084983
   37      C      -4.3561008821     1.4772629235    -0.8411108754
   38      O      -3.9325200821     0.3236726913    -1.5312961658
   39      H      -5.9277124017    -0.5147416258     0.8662545349
   40      H      -5.1154327479     1.6612466011     1.2088056414
   41      H      -2.7780218376    -3.9426461123     0.8618628642
   42      H      -5.0033897419    -1.5331124591    -1.4810014048
   43      H      -6.3193916836     0.0963600750    -2.6912852355
   44      H      -7.1700366961    -0.0055226437    -1.0901167330
   45      H      -5.7081559602     2.2067577487    -2.3741793718
   46      H      -6.4047915999     2.3093850591    -0.6965323775
   47      H      -3.7377062046     2.3906720980    -0.9832536679
   48      H      -1.7159478463    -2.7472297943     1.7279281762
   49      H      -1.4066736971    -3.1484129003    -0.0040581102
   50      H       5.9529206566    -3.7716444660    -1.1916214816
   51      H       4.4560544324    -3.2420094452    -2.0502783042
   52      H       4.3372373299    -4.1680913954    -0.4904017249
   53      H       0.3898480614     0.2349622730     1.0256787399
   54      H       0.1599172970    -0.5966299695    -0.5634725728
   55      H      -1.1510948319     2.0815943247     0.1088270166
   56      H      -1.5639711289     0.9460705552    -1.2270834695
 ----------------------------------------------------------------
 Molecular Point Group                 C1    NOp =  1
 Largest Abelian Subgroup              C1    NOp =  1
 Nuclear Repulsion Energy =  3140.1651267934 hartrees
 There are      113 alpha and      113 beta electrons
 Requested basis set is STO-3G
 There are 86 shells and 176 basis functions

 Total QAlloc Memory Limit   4000 MB
 Mega-Array Size       392 MB
 MEM_STATIC part       400 MB
 A cutoff of  1.0D-12 yielded   2079 shell pairs
 There are      9660 function pairs
 
 -------------------------------------------------------
 OpenMP Integral Computing Module                       
 Release: version 1.0, May 2013, Q-Chem Inc. Pittsburgh 
 -------------------------------------------------------
 Integral Job Info:
 Integral job number is                      11
 Integral operator is                         1
 short-range coefficients                     0
 long-range coefficients              100000000
 Omega coefficients                           0
 if combine SR and LR in K                    0
 Integral screening is                        0
 Integral computing path is                   2
 max size of driver memory is            800000
 size of driver memory is                 45569
 size of scratch memory is              1046100
 max col of scratch BK array                289
 max len of scratch array in speh3           22
 max len of scratch index in speh4            8
 max int batch size is                      520
 min int batch size is                       52
 fixed nKL is                                52
 max L of basis functions is                  1
 order of int derivative is                   0
 number of shells is                         86
 number of basis is                         176
 number of cartesian basis is               176
 number of contracted shell pairs          2079
 number of primitive shell pairs          10996
 maxK2 (contraction) of shell pair            9
 max number of K2 of shell pair               1
 max number of CS2 of shell pair            301
 max number of PS2 of shell pair           1230
 mem total for path MDJ                   50922
 -------------------------------------------------------
 Smallest overlap matrix eigenvalue = 1.94E-01

 Scale SEOQF with 1.000000e-02/1.000000e-01/1.000000e-01

 Standard Electronic Orientation quadrupole field applied
 Nucleus-field energy     =     0.0000000268 hartrees
 Guess from superposition of atomic densities
 Warning:  Energy on first SCF cycle will be non-variational
 A restricted hybrid HF-DFT SCF calculation will be
 performed using Pulay DIIS extrapolation
 Exchange:     0.2000 Hartree-Fock + 0.0800 Slater + 0.7200 B88
 Correlation:  0.1900 VWN1RPA + 0.8100 LYP
 Using SG-1 standard quadrature grid
 Dispersion:   Grimme D3
 SCF converges when DIIS error is below 1.0E-08
 using 48 threads for integral computing
 -------------------------------------------------------
 OpenMP Integral computing Module                
 Release: version 1.0, May 2013, Q-Chem Inc. Pittsburgh 
 -------------------------------------------------------
 -------------------------------------------------------
 OpenMP BLAS3 based DFT computing Module                
 Release: version 1.0, May 2013, Q-Chem Inc. Pittsburgh 
 -------------------------------------------------------
 ---------------------------------------
  Cycle       Energy         DIIS Error
 ---------------------------------------
    1   -1509.4561382907      8.29E-02
    2   -1509.5475076021      1.06E-02
    3   -1507.6213542293      2.48E-02
    4   -1510.0517381865      3.57E-03
    5   -1510.1013775416      1.32E-03
    6   -1510.1073719099      6.37E-04
    7   -1510.1091281654      1.20E-04
    8   -1510.1091868472      3.42E-05
    9   -1510.1091903466      2.01E-05
   10   -1510.1091920279      3.63E-06
   11   -1510.1091920844      1.15E-06
   12   -1510.1091920893      5.03E-07
   13   -1510.1091920904      1.17E-07
   14   -1510.1091920905      2.29E-08
   15   -1510.1091920904      6.42E-09 Convergence criterion met
 ---------------------------------------
 SCF time:  CPU 111.72 s  wall 2.39 s
 SCF   energy in the final basis set = -1510.10919209
 Total energy in the final basis set = -1510.10919209
 
 --------------------------------------------------------------
 
                    Orbital Energies (a.u.)
 --------------------------------------------------------------
 
 Alpha MOs
 -- Occupied --
-18.929 -18.922 -18.912 -18.907 -18.904 -18.899 -18.899 -18.883
-18.855 -18.851 -10.121 -10.114 -10.111 -10.106 -10.079 -10.077
-10.075 -10.074 -10.073 -10.072 -10.068 -10.067 -10.045 -10.042
-10.036 -10.033 -10.021 -10.019 -10.017 -10.015  -1.044  -1.043
 -1.034  -1.031  -1.027  -1.022  -0.962  -0.952  -0.943  -0.940
 -0.785  -0.782  -0.746  -0.743  -0.732  -0.727  -0.715  -0.677
 -0.673  -0.621  -0.609  -0.591  -0.557  -0.556  -0.540  -0.537
 -0.533  -0.526  -0.505  -0.493  -0.490  -0.471  -0.462  -0.455
 -0.451  -0.444  -0.437  -0.427  -0.426  -0.424  -0.419  -0.414
 -0.408  -0.403  -0.396  -0.388  -0.378  -0.369  -0.360  -0.358
 -0.352  -0.347  -0.343  -0.342  -0.336  -0.330  -0.323  -0.316
 -0.315  -0.312  -0.308  -0.303  -0.300  -0.297  -0.292  -0.283
 -0.277  -0.242  -0.238  -0.237  -0.230  -0.223  -0.218  -0.170
 -0.170  -0.167  -0.159  -0.157  -0.154  -0.153  -0.148  -0.139
 -0.135
 -- Virtual --
  0.080   0.089   0.118   0.119   0.240   0.247   0.255   0.270
  0.284   0.327   0.331   0.337   0.339   0.342   0.355   0.359
  0.367   0.372   0.378   0.381   0.383   0.386   0.393   0.396
  0.404   0.405   0.410   0.411   0.418   0.422   0.424   0.428
  0.434   0.435   0.439   0.442   0.447   0.449   0.457   0.459
  0.464   0.465   0.466   0.471   0.478   0.482   0.484   0.490
  0.491   0.496   0.502   0.521   0.534   0.540   0.550   0.562
  0.563   0.578   0.584   0.669   0.684   0.690   0.698
 --------------------------------------------------------------
 
          Ground-State Mulliken Net Atomic Charges

     Atom                 Charge (a.u.)
  ----------------------------------------
      1 O                    -0.238074
      2 C                     0.236486
      3 C                    -0.080445
      4 C                    -0.086846
      5 C                     0.249035
      6 O                    -0.214222
      7 C                    -0.031623
      8 C                    -0.029088
      9 O                    -0.223812
     10 C                     0.251648
     11 C                    -0.089133
     12 C                    -0.080299
     13 C                     0.238500
     14 O                    -0.239197
     15 O                    -0.204221
     16 O                    -0.210376
     17 O                    -0.196571
     18 C                    -0.096854
     19 C                     0.039769
     20 C                    -0.141209
     21 C                    -0.144661
     22 C                     0.040639
     23 O                    -0.208457
     24 H                     0.083198
     25 H                     0.086904
     26 H                     0.085393
     27 H                     0.075291
     28 H                     0.072619
     29 H                     0.075805
     30 H                     0.070701
     31 H                     0.091563
     32 O                    -0.196323
     33 C                    -0.096755
     34 C                     0.043319
     35 C                    -0.142498
     36 C                    -0.142548
     37 C                     0.037448
     38 O                    -0.208416
     39 H                     0.090587
     40 H                     0.083303
     41 H                     0.083548
     42 H                     0.088018
     43 H                     0.076124
     44 H                     0.073599
     45 H                     0.076570
     46 H                     0.073888
     47 H                     0.079771
     48 H                     0.086665
     49 H                     0.094976
     50 H                     0.094320
     51 H                     0.091698
     52 H                     0.084550
     53 H                     0.077716
     54 H                     0.092952
     55 H                     0.080757
     56 H                     0.094268
  ----------------------------------------
  Sum of atomic charges =     0.000000

 -----------------------------------------------------------------
                    Cartesian Multipole Moments
 -----------------------------------------------------------------
    Charge (ESU x 10^10)
                 0.0000
    Dipole Moment (Debye)
         X      -0.0240      Y       0.4731      Z       0.3173
       Tot       0.5701
    Quadrupole Moments (Debye-Ang)
        XX    -144.8998     XY      -6.7956     YY    -151.8214
        XZ      18.5899     YZ       0.9064     ZZ    -170.3224
    Octopole Moments (Debye-Ang^2)
       XXX     -57.2287    XXY       8.0093    XYY      38.5000
       YYY     -45.4956    XXZ      -8.9059    XYZ      -0.0916
       YYZ     -24.0724    XZZ      27.5654    YZZ      -8.2485
       ZZZ     -14.6421
    Hexadecapole Moments (Debye-Ang^3)
      XXXX  -16335.7753   XXXY    -262.9689   XXYY   -3088.0060
      XYYY     -98.5546   YYYY   -2574.4546   XXXZ     239.6324
      XXYZ     122.1504   XYYZ     -20.3478   YYYZ       7.3119
      XXZZ   -3156.3372   XYZZ     -44.6807   YYZZ    -689.2414
      XZZZ      -7.7514   YZZZ      -5.6016   ZZZZ   -1315.7548
 -----------------------------------------------------------------
 Calculating analytic gradient of the SCF energy
 Gradient of SCF Energy
            1           2           3           4           5           6
    1   0.0288483  -0.0078580   0.0353552   0.0376474   0.0247843  -0.0336061
    2   0.0221929   0.0236433   0.0042965  -0.0274547   0.0000272   0.0519718
    3  -0.0665899  -0.0102190  -0.0189375  -0.0230411   0.0039996   0.0147992
            7           8           9          10          11          12
    1  -0.0054477  -0.0140069   0.0554446  -0.0255942   0.0191523  -0.0065793
    2  -0.0386322   0.0330224  -0.0540555   0.0118013  -0.0234264   0.0070543
    3   0.0114066  -0.0138714  -0.0080880   0.0007349  -0.0334449  -0.0454995
           13          14          15          16          17          18
    1   0.0144248   0.0752299  -0.0053748  -0.0989784  -0.0114640   0.0267901
    2   0.0160035   0.0149655  -0.0681310  -0.0621173   0.0286931   0.0437082
    3   0.0257973   0.0085048   0.1019885  -0.0489128   0.0531431   0.0277362
           19          20          21          22          23          24
    1   0.0318661  -0.0065096  -0.0179539  -0.0311484  -0.0424974  -0.0010794
    2  -0.0531289  -0.0523543  -0.0029746   0.0448729   0.0230168   0.0086739
    3   0.0246013  -0.0076236  -0.0425029  -0.0478728   0.0728512   0.0052260
           25          26          27          28          29          30
    1  -0.0046550  -0.0047320   0.0090466  -0.0025084   0.0086329  -0.0056346
    2  -0.0035665   0.0114223  -0.0014376   0.0060481   0.0090645  -0.0050973
    3   0.0023221   0.0054317  -0.0062077   0.0054635  -0.0053273   0.0056890
           31          32          33          34          35          36
    1   0.0026198  -0.0117980  -0.0179091   0.0300012   0.0444625   0.0244673
    2   0.0011889  -0.0367619   0.0404294   0.0611596   0.0171397  -0.0414483
    3   0.0146542  -0.0439517  -0.0360864   0.0038075   0.0207152   0.0084499
           37          38          39          40          41          42
    1  -0.0129754  -0.0729457  -0.0073846  -0.0009257  -0.0045182  -0.0129361
    2  -0.0675099   0.0106985  -0.0001975   0.0074929   0.0064545  -0.0046264
    3  -0.0081425   0.0508344  -0.0001196   0.0031168  -0.0051072   0.0013777
           43          44          45          46          47          48
    1   0.0049353  -0.0070144   0.0009349  -0.0033451  -0.0070941  -0.0033051
    2   0.0032114  -0.0020378  -0.0034433   0.0043936   0.0101221   0.0076202
    3  -0.0101097   0.0036606  -0.0118585   0.0062312   0.0051396  -0.0035686
           49          50          51          52          53          54
    1   0.0018737  -0.0005651   0.0027162   0.0023269   0.0043619  -0.0038866
    2  -0.0027615  -0.0032067   0.0074974   0.0069858   0.0070222   0.0005346
    3   0.0014065  -0.0020025   0.0032745   0.0056518  -0.0040628  -0.0009103
           55          56
    1  -0.0001186   0.0064277
    2   0.0009492   0.0009913
    3   0.0033173   0.0027260
 Max gradient component =       1.020E-01
 RMS gradient           =       2.772E-02
 Gradient time:  CPU 31.31 s  wall 0.67 s
 Geometry Optimization Parameters
   NAtoms,    NIC,     NZ,  NCons,   NDum,   NFix, NCnnct, MaxDiis
       56     458       0       9       0       0       0       0


** CONSTRAINED OPTIMIZATION IN DELOCALIZED INTERNAL COORDINATES **
   Searching for a Minimum

   Optimization Cycle:   1

                       Coordinates (Angstroms)
     ATOM                X               Y               Z
      1  O        -4.4086123812   -2.1352255884    2.0772192238
      2  C        -4.0988984785   -1.5228153814    1.0652719559
      3  C        -4.9070159027   -0.4112164945    0.4329058152
      4  C        -4.4026287952    1.0269721489    0.6355514265
      5  C        -3.0507819554    1.1807011961    1.2965922311
      6  O        -2.1502195292    0.3357051549    0.7131761963
      7  C        -1.2409784716    1.0031529617   -0.1683344793
      8  C         0.1510370954    0.3913867724   -0.0493336863
      9  O         1.1322711905    1.3031476865   -0.5677653072
     10  C         2.3278440344    0.7509328705   -0.8915123882
     11  C         3.4073632143    1.0492945963    0.1215390789
     12  C         4.0827908375   -0.1878247672    0.7311299178
     13  C         3.8476836989   -1.4955635409    0.0022702900
     14  O         2.7628656233   -1.9074580250   -0.3825460114
     15  O        -3.0249626129   -1.9725978299    0.3590709664
     16  O         4.9476833064   -2.2190505211   -0.3458601394
     17  O         2.5158820258    0.1868983517   -1.9599159748
     18  C         4.9158320516   -3.4037270128   -1.0518930253
     19  C         4.6330610974    1.7905650118   -0.4494153863
     20  C         5.3093485955    2.5818334803    0.6674062169
     21  C         5.8699649924    1.4533503863    1.5111183293
     22  C         5.5575336193    0.2512981214    0.6074935759
     23  O         5.5846609047    0.7821717133   -0.6959964123
     24  H         2.9555871749    1.6833842437    0.9206159934
     25  H         3.7350881872   -0.3520526653    1.7744436404
     26  H         4.3888204257    2.4559007164   -1.3061110059
     27  H         6.1563420381    3.1303394937    0.1955022050
     28  H         4.6688511005    3.3068939229    1.2141121620
     29  H         6.9656013179    1.6114240506    1.6215903691
     30  H         5.3971631024    1.3275325803    2.5093677206
     31  H         6.2746414795   -0.5708294691    0.8196672704
     32  O        -2.8038471190    1.8753693040    2.2703484602
     33  C        -2.1977405125   -3.0009427259    0.7595108626
     34  C        -4.9929257590   -0.4884725959   -1.1000942096
     35  C        -6.2216722303    0.2754279961   -1.5967437449
     36  C        -5.7706090556    1.7066066707   -1.3818084983
     37  C        -4.3561008821    1.4772629235   -0.8411108754
     38  O        -3.9325200821    0.3236726913   -1.5312961658
     39  H        -5.9277124017   -0.5147416258    0.8662545349
     40  H        -5.1154327479    1.6612466011    1.2088056414
     41  H        -2.7780218376   -3.9426461123    0.8618628642
     42  H        -5.0033897419   -1.5331124591   -1.4810014048
     43  H        -6.3193916836    0.0963600750   -2.6912852355
     44  H        -7.1700366961   -0.0055226437   -1.0901167330
     45  H        -5.7081559602    2.2067577487   -2.3741793718
     46  H        -6.4047915999    2.3093850591   -0.6965323775
     47  H        -3.7377062046    2.3906720980   -0.9832536679
     48  H        -1.7159478463   -2.7472297943    1.7279281762
     49  H        -1.4066736971   -3.1484129003   -0.0040581102
     50  H         5.9529206566   -3.7716444660   -1.1916214816
     51  H         4.4560544324   -3.2420094452   -2.0502783042
     52  H         4.3372373299   -4.1680913954   -0.4904017249
     53  H         0.3898480614    0.2349622730    1.0256787399
     54  H         0.1599172970   -0.5966299695   -0.5634725728
     55  H        -1.1510948319    2.0815943247    0.1088270166
     56  H        -1.5639711289    0.9460705552   -1.2270834695
   Point Group: c1    Number of degrees of freedom:   162


   Energy is  -1510.109192090

              Constraints and their Current Values
                                        Value     Constraint
   Dihedral:        1   2   3   4      104.211      104.211
   Dihedral:        3   4   5   6       47.369       47.368
   Dihedral:        4   5   6   7      104.211      104.211
   Dihedral:        5   6   7   8      142.105      142.105
   Dihedral:        6   7   8   9     -161.053     -161.053
   Dihedral:        7   8   9  10     -161.053     -161.053
   Dihedral:        8   9  10  11     -104.211     -104.211
   Dihedral:        9  10  11  12      123.158      123.158
   Dihedral:       11  12  13  14      -47.369      -47.368

 Attempting to Generate Delocalized Internal Coordinates

   Using Lagrange Multiplier Algorithm


169 Hessian modes will be used to form the next step
  Hessian Eigenvalues:
    -0.977753   -0.977753   -0.977753   -0.977753   -0.977753   -0.977753
    -0.977753   -0.977753    0.045000    0.045000    0.045000    0.045000
     0.045115    0.045125    0.045196    0.045266    0.045543    0.045642
     0.048851    0.048865    0.054638    0.059864    0.059968    0.062181
     0.062360    0.066934    0.066976    0.067534    0.068106    0.070427
     0.070430    0.071562    0.073943    0.074090    0.075393    0.075887
     0.077254    0.077377    0.082359    0.082535    0.082697    0.083882
     0.084209    0.084290    0.085421    0.085446    0.086199    0.086738
     0.086740    0.087417    0.088223    0.088728    0.089054    0.089386
     0.089709    0.089897    0.093612    0.093860    0.096602    0.096695
     0.111528    0.111618    0.114649    0.114654    0.115910    0.115969
     0.116382    0.117588    0.118033    0.118659    0.119657    0.121976
     0.123008    0.129518    0.131785    0.131870    0.140517    0.142340
     0.160000    0.160000    0.160000    0.160000    0.160000    0.160000
     0.171160    0.172410    0.173187    0.173899    0.220869    0.220927
     0.239689    0.242270    0.248312    0.248862    0.249016    0.249489
     0.250000    0.250000    0.250000    0.250000    0.250000    0.250000
     0.250000    0.250000    0.258362    0.258524    0.266672    0.267278
     0.277881    0.278020    0.282479    0.284726    0.294631    0.295055
     0.298745    0.308057    0.310698    0.310860    0.313320    0.318588
     0.320081    0.321823    0.321989    0.322113    0.322438    0.322730
     0.322806    0.323389    0.323606    0.323708    0.323926    0.323973
     0.324029    0.324208    0.324548    0.324559    0.324622    0.324699
     0.324941    0.324944    0.324955    0.325092    0.326730    0.326793
     0.327709    0.367638    0.368723    0.382323    0.384595    0.401001
     0.407708    0.491981    0.492522    0.517926    0.525759    0.525954
     0.537330    0.941950    0.941997    0.942726    0.947794    1.022753
     1.022753    1.022753    1.022753    1.022753    1.022753    1.022753
     1.022753

 Minimum Search - Taking P-RFO Step
 Searching for Lamda that Maximizes Along the Constraint modes Only
 Value Taken    Lamda =   0.00040691
 Searching for Lamda that Minimizes Along All other modes
 Value Taken    Lamda =  -0.17032470
 Calculated Step too Large.  Step scaled by  0.526738
 Step Taken.  Stepsize is  0.300000

                             Maximum     Tolerance    Cnvgd?
         Gradient            0.115769       0.000300      NO
         Displacement        0.104029       0.001200      NO
         Energy change     *********       0.000001      NO


 New Cartesian Coordinates Obtained by Inverse Iteration

 Displacement from previous Coordinates is:  1.353734
 Adding empirical dispersion correction 
 ----------------------------------------------------------------
 Doing -D3(op) with
 s6 =   1.00000
 s8 =   0.78311
 a1 =   0.30000
 a2 =   4.25000
 n  =  10.00000
 -D3 energy without 3body term =     -0.0672656308 hartrees
 ----------------------------------------------------------------
             Standard Nuclear Orientation (Angstroms)
    I     Atom           X                Y                Z
 ----------------------------------------------------------------
    1      O      -4.4310326406    -2.2023560634     2.0707907102
    2      C      -4.1399241790    -1.5688006406     1.0440137663
    3      C      -4.9761569302    -0.4349879211     0.4414148099
    4      C      -4.4658916519     1.0249509586     0.6498816205
    5      C      -3.0761389899     1.1824374805     1.2926805572
    6      O      -2.1393014141     0.3420829424     0.6913442407
    7      C      -1.2276080978     1.0172998612    -0.2056648006
    8      C       0.1812971302     0.4009659012    -0.0690393639
    9      O       1.1621111391     1.3267343440    -0.5983349703
   10      C       2.3844007006     0.7530002901    -0.9149700460
   11      C       3.4774952050     1.0675986744     0.1169760032
   12      C       4.1590330420    -0.1754133792     0.7601987669
   13      C       3.9013410550    -1.5074170019     0.0420283610
   14      O       2.7910036177    -1.9149187946    -0.3342859755
   15      O      -3.0819223153    -1.9743019722     0.2544902913
   16      O       5.0410453364    -2.2209261754    -0.2718329287
   17      O       2.5819837313     0.1641948034    -1.9860119018
   18      C       4.9532555639    -3.4380129691    -0.9725206817
   19      C       4.7267062797     1.8026457454    -0.4733822282
   20      C       5.4038218734     2.6186129039     0.6560908772
   21      C       5.9625541706     1.4822336691     1.5337031354
   22      C       5.6555406458     0.2503525484     0.6315445625
   23      O       5.6939104544     0.7671655427    -0.7066392481
   24      H       3.0265667952     1.7127848051     0.9002846570
   25      H       3.8124711520    -0.3176796339     1.8046211376
   26      H       4.4915896445     2.4456890094    -1.3467902604
   27      H       6.2512371463     3.1612199569     0.1899049526
   28      H       4.7593647413     3.3483970855     1.1822509076
   29      H       7.0526466380     1.6314872188     1.6578982128
   30      H       5.4812379717     1.3747568538     2.5249447341
   31      H       6.3626427486    -0.5760141164     0.8500981400
   32      O      -2.8242180126     1.8852309368     2.2776130631
   33      C      -2.2469181602    -3.0321072734     0.6578103913
   34      C      -5.0942263163    -0.4955737069    -1.1127556418
   35      C      -6.3594164245     0.2798988838    -1.5665387310
   36      C      -5.9031704431     1.7329528523    -1.3402425363
   37      C      -4.4505003560     1.5038512208    -0.8416154132
   38      O      -4.0261778401     0.3428222188    -1.5715474100
   39      H      -5.9814983227    -0.5492304944     0.8975751826
   40      H      -5.1683229676     1.6445802253     1.2444692270
   41      H      -2.8209637374    -3.9788252353     0.7704479465
   42      H      -5.0989768198    -1.5330633609    -1.5065335529
   43      H      -6.4936362371     0.1141075454    -2.6541249990
   44      H      -7.2854545088    -0.0144206532    -1.0368037704
   45      H      -5.8745484352     2.2525772675    -2.3183167867
   46      H      -6.5176214980     2.3177267750    -0.6292875250
   47      H      -3.8357042574     2.4163326554    -0.9888641058
   48      H      -1.7417141495    -2.7982756649     1.6210957783
   49      H      -1.4710613628    -3.1777116938    -0.1209770983
   50      H       5.9798412651    -3.8328687121    -1.1127808290
   51      H       4.4887425946    -3.2915251153    -1.9729278121
   52      H       4.3585986016    -4.1875507998    -0.4043441494
   53      H       0.4082596876     0.2521755835     1.0119323286
   54      H       0.2045891305    -0.5927652454    -0.5716896438
   55      H      -1.1436440799     2.0981025434     0.0599406657
   56      H      -1.5554831687     0.9502336718    -1.2649835003
 ----------------------------------------------------------------
 Molecular Point Group                 C1    NOp =  1
 Largest Abelian Subgroup              C1    NOp =  1
 Nuclear Repulsion Energy =  3099.0401289873 hartrees
 There are      113 alpha and      113 beta electrons
 Applying Cartesian multipole field
    Component          Value
    ---------          -----
     (2,0,0)        1.00000E-12
     (0,2,0)        2.00000E-11
     (0,0,2)       -3.00000E-11
 Nucleus-field energy     =     0.0000000285 hartrees
 Requested basis set is STO-3G
 There are 86 shells and 176 basis functions
 A cutoff of  1.0D-12 yielded   2060 shell pairs
 There are      9554 function pairs
 Smallest overlap matrix eigenvalue = 2.02E-01
 Guess MOs from SCF MO coefficient file
 Reading MOs from coefficient file
 Reading MOs from coefficient file
 A restricted hybrid HF-DFT SCF calculation will be
 performed using Pulay DIIS extrapolation
 Exchange:     0.2000 Hartree-Fock + 0.0800 Slater + 0.7200 B88
 Correlation:  0.1900 VWN1RPA + 0.8100 LYP
 Using SG-1 standard quadrature grid
 Dispersion:   Grimme D3
 SCF converges when DIIS error is below 1.0E-08
 Geometry optimization detected.  Setting ReadMinima to 0
 Setting SaveMinima to 0
 using 48 threads for integral computing
 -------------------------------------------------------
 OpenMP Integral computing Module                
 Release: version 1.0, May 2013, Q-Chem Inc. Pittsburgh 
 -------------------------------------------------------
 -------------------------------------------------------
 OpenMP BLAS3 based DFT computing Module                
 Release: version 1.0, May 2013, Q-Chem Inc. Pittsburgh 
 -------------------------------------------------------
 ---------------------------------------
  Cycle       Energy         DIIS Error
 ---------------------------------------
    1   -1509.9980176303      3.29E-03
    2   -1510.1759228160      9.61E-04
    3   -1510.1696132982      1.57E-03
    4   -1510.1797184475      3.00E-04
    5   -1510.1801257037      6.27E-05
    6   -1510.1801406046      2.95E-05
    7   -1510.1801441096      1.05E-05
    8   -1510.1801445882      2.28E-06
    9   -1510.1801446092      1.31E-06
   10   -1510.1801446163      3.57E-07
   11   -1510.1801446169      1.02E-07
   12   -1510.1801446169      4.62E-08
   13   -1510.1801446170      2.30E-08
   14   -1510.1801446171      4.11E-09 Convergence criterion met
 ---------------------------------------
 SCF time:  CPU 99.02 s  wall 2.07 s
 SCF   energy in the final basis set = -1510.18014462
 Total energy in the final basis set = -1510.18014462
 
 --------------------------------------------------------------
 
                    Orbital Energies (a.u.)
 --------------------------------------------------------------
 
 Alpha MOs
 -- Occupied --
-18.935 -18.928 -18.906 -18.903 -18.902 -18.898 -18.896 -18.886
-18.859 -18.854 -10.116 -10.109 -10.106 -10.101 -10.076 -10.075
-10.072 -10.070 -10.070 -10.068 -10.065 -10.064 -10.044 -10.040
-10.037 -10.033 -10.021 -10.019 -10.017 -10.016  -1.032  -1.028
 -1.021  -1.017  -1.006  -1.002  -0.951  -0.944  -0.937  -0.934
 -0.776  -0.774  -0.737  -0.734  -0.723  -0.718  -0.706  -0.672
 -0.668  -0.615  -0.604  -0.586  -0.553  -0.552  -0.538  -0.536
 -0.527  -0.521  -0.498  -0.487  -0.483  -0.464  -0.455  -0.447
 -0.445  -0.438  -0.432  -0.421  -0.419  -0.418  -0.414  -0.407
 -0.400  -0.397  -0.389  -0.381  -0.373  -0.363  -0.356  -0.353
 -0.347  -0.344  -0.342  -0.339  -0.335  -0.332  -0.323  -0.314
 -0.312  -0.309  -0.305  -0.302  -0.298  -0.295  -0.288  -0.280
 -0.274  -0.241  -0.239  -0.236  -0.230  -0.229  -0.225  -0.172
 -0.170  -0.165  -0.158  -0.155  -0.153  -0.151  -0.148  -0.142
 -0.138
 -- Virtual --
  0.076   0.083   0.111   0.112   0.232   0.244   0.249   0.264
  0.277   0.312   0.314   0.321   0.334   0.338   0.345   0.351
  0.358   0.364   0.367   0.372   0.374   0.377   0.382   0.387
  0.394   0.396   0.403   0.404   0.408   0.410   0.414   0.422
  0.424   0.428   0.430   0.433   0.435   0.440   0.443   0.450
  0.451   0.454   0.458   0.460   0.464   0.469   0.473   0.478
  0.483   0.488   0.491   0.504   0.507   0.522   0.528   0.552
  0.553   0.559   0.561   0.643   0.659   0.663   0.672
 --------------------------------------------------------------
 
          Ground-State Mulliken Net Atomic Charges

     Atom                 Charge (a.u.)
  ----------------------------------------
      1 O                    -0.229446
      2 C                     0.223646
      3 C                    -0.079603
      4 C                    -0.084195
      5 C                     0.236487
      6 O                    -0.209285
      7 C                    -0.033383
      8 C                    -0.032266
      9 O                    -0.217365
     10 C                     0.239383
     11 C                    -0.087229
     12 C                    -0.078993
     13 C                     0.226053
     14 O                    -0.230596
     15 O                    -0.189619
     16 O                    -0.195878
     17 O                    -0.189415
     18 C                    -0.105276
     19 C                     0.034603
     20 C                    -0.142359
     21 C                    -0.145426
     22 C                     0.035177
     23 O                    -0.199252
     24 H                     0.083363
     25 H                     0.085660
     26 H                     0.085064
     27 H                     0.075750
     28 H                     0.073463
     29 H                     0.076116
     30 H                     0.071507
     31 H                     0.091745
     32 O                    -0.191023
     33 C                    -0.104865
     34 C                     0.037933
     35 C                    -0.143528
     36 C                    -0.143538
     37 C                     0.032537
     38 O                    -0.198573
     39 H                     0.088953
     40 H                     0.084034
     41 H                     0.083998
     42 H                     0.087481
     43 H                     0.076410
     44 H                     0.074230
     45 H                     0.076816
     46 H                     0.074381
     47 H                     0.079763
     48 H                     0.087442
     49 H                     0.094613
     50 H                     0.094081
     51 H                     0.092133
     52 H                     0.085187
     53 H                     0.077575
     54 H                     0.091988
     55 H                     0.081012
     56 H                     0.092527
  ----------------------------------------
  Sum of atomic charges =     0.000000

 -----------------------------------------------------------------
                    Cartesian Multipole Moments
 -----------------------------------------------------------------
    Charge (ESU x 10^10)
                -0.0000
    Dipole Moment (Debye)
         X      -0.0489      Y       0.3623      Z       0.3605
       Tot       0.5134
    Quadrupole Moments (Debye-Ang)
        XX    -144.0989     XY      -6.8444     YY    -150.9637
        XZ      18.3246     YZ       1.0577     ZZ    -170.2266
    Octopole Moments (Debye-Ang^2)
       XXX     -68.5541    XXY       8.9603    XYY      39.2898
       YYY     -46.9159    XXZ      -4.4588    XYZ      -0.0262
       YYZ     -24.4485    XZZ      27.2197    YZZ      -7.6485
       ZZZ     -12.5206
    Hexadecapole Moments (Debye-Ang^3)
      XXXX  -16866.0617   XXXY    -277.4948   XXYY   -3173.5628
      XYYY    -118.8583   YYYY   -2617.5562   XXXZ     227.4569
      XXYZ     123.2336   XYYZ     -28.1821   YYYZ      12.6468
      XXZZ   -3244.5417   XYZZ     -46.4455   YYZZ    -697.1456
      XZZZ     -39.9638   YZZZ      -2.8922   ZZZZ   -1305.5740
 -----------------------------------------------------------------
 Calculating analytic gradient of the SCF energy
 Gradient of SCF Energy
            1           2           3           4           5           6
    1   0.0105889  -0.0007001   0.0213835   0.0197958   0.0131045  -0.0176469
    2   0.0072222   0.0249458   0.0000969  -0.0141526  -0.0026873   0.0351309
    3  -0.0302033  -0.0185734  -0.0104760  -0.0120052   0.0009836   0.0093442
            7           8           9          10          11          12
    1  -0.0040941  -0.0093090   0.0337010  -0.0193447   0.0105455  -0.0057875
    2  -0.0299383   0.0238957  -0.0376642   0.0143258  -0.0149476   0.0031773
    3   0.0047513  -0.0108219  -0.0031109   0.0073336  -0.0187121  -0.0289712
           13          14          15          16          17          18
    1   0.0260608   0.0323123  -0.0007871  -0.0669595  -0.0047421   0.0220406
    2   0.0135583   0.0068033  -0.0488610  -0.0421268   0.0132350   0.0330478
    3   0.0250903  -0.0002833   0.0690914  -0.0335501   0.0242938   0.0205676
           19          20          21          22          23          24
    1   0.0206466  -0.0064493  -0.0082938  -0.0168749  -0.0250977   0.0001959
    2  -0.0340726  -0.0275013  -0.0033878   0.0247589   0.0139209   0.0058187
    3   0.0103383  -0.0032967  -0.0207417  -0.0345253   0.0438736   0.0025795
           25          26          27          28          29          30
    1  -0.0037596  -0.0043396   0.0054828   0.0000651   0.0047518  -0.0029836
    2  -0.0035992   0.0094740  -0.0021251   0.0047538   0.0067190  -0.0040030
    3   0.0006741   0.0054551  -0.0043163   0.0029596  -0.0041895   0.0032422
           31          32          33          34          35          36
    1   0.0012357  -0.0060224  -0.0134735   0.0219769   0.0229430   0.0133667
    2   0.0014153  -0.0193187   0.0310686   0.0352448   0.0081164  -0.0206632
    3   0.0127562  -0.0208689  -0.0277423  -0.0003425   0.0123502   0.0053020
           37          38          39          40          41          42
    1  -0.0038376  -0.0428094  -0.0040608   0.0000475  -0.0027165  -0.0114767
    2  -0.0422261   0.0063107  -0.0010877   0.0054899   0.0021076  -0.0033032
    3  -0.0083473   0.0308879  -0.0002443   0.0013463  -0.0028694   0.0023023
           43          44          45          46          47          48
    1   0.0038501  -0.0043129   0.0005826  -0.0014762  -0.0071059  -0.0007591
    2   0.0027420  -0.0017020  -0.0033355   0.0031941   0.0080985   0.0042358
    3  -0.0060151   0.0010515  -0.0074708   0.0031488   0.0050013  -0.0009768
           49          50          51          52          53          54
    1   0.0021960  -0.0001698   0.0015073   0.0010642   0.0039313  -0.0026994
    2  -0.0027698  -0.0032400   0.0038443   0.0025056   0.0051494  -0.0002108
    3   0.0009759  -0.0018806   0.0002657   0.0035223  -0.0020612  -0.0002531
           55          56
    1  -0.0003300   0.0050431
    2   0.0007302   0.0017866
    3   0.0023940   0.0009663
 Max gradient component =       6.909E-02
 RMS gradient           =       1.747E-02
 Gradient time:  CPU 29.47 s  wall 0.62 s
 Geometry Optimization Parameters
   NAtoms,    NIC,     NZ,  NCons,   NDum,   NFix, NCnnct, MaxDiis
       56     458       0       9       0       0       0       0

 Cartesian Hessian Update
 Hessian Updated using BFGS Update


** CONSTRAINED OPTIMIZATION IN DELOCALIZED INTERNAL COORDINATES **
   Searching for a Minimum

   Optimization Cycle:   2

                       Coordinates (Angstroms)
     ATOM                X               Y               Z
      1  O        -4.4310326406   -2.2023560634    2.0707907102
      2  C        -4.1399241790   -1.5688006406    1.0440137663
      3  C        -4.9761569302   -0.4349879211    0.4414148099
      4  C        -4.4658916519    1.0249509586    0.6498816205
      5  C        -3.0761389899    1.1824374805    1.2926805572
      6  O        -2.1393014141    0.3420829424    0.6913442407
      7  C        -1.2276080978    1.0172998612   -0.2056648006
      8  C         0.1812971302    0.4009659012   -0.0690393639
      9  O         1.1621111391    1.3267343440   -0.5983349703
     10  C         2.3844007006    0.7530002901   -0.9149700460
     11  C         3.4774952050    1.0675986744    0.1169760032
     12  C         4.1590330420   -0.1754133792    0.7601987669
     13  C         3.9013410550   -1.5074170019    0.0420283610
     14  O         2.7910036177   -1.9149187946   -0.3342859755
     15  O        -3.0819223153   -1.9743019722    0.2544902913
     16  O         5.0410453364   -2.2209261754   -0.2718329287
     17  O         2.5819837313    0.1641948034   -1.9860119018
     18  C         4.9532555639   -3.4380129691   -0.9725206817
     19  C         4.7267062797    1.8026457454   -0.4733822282
     20  C         5.4038218734    2.6186129039    0.6560908772
     21  C         5.9625541706    1.4822336691    1.5337031354
     22  C         5.6555406458    0.2503525484    0.6315445625
     23  O         5.6939104544    0.7671655427   -0.7066392481
     24  H         3.0265667952    1.7127848051    0.9002846570
     25  H         3.8124711520   -0.3176796339    1.8046211376
     26  H         4.4915896445    2.4456890094   -1.3467902604
     27  H         6.2512371463    3.1612199569    0.1899049526
     28  H         4.7593647413    3.3483970855    1.1822509076
     29  H         7.0526466380    1.6314872188    1.6578982128
     30  H         5.4812379717    1.3747568538    2.5249447341
     31  H         6.3626427486   -0.5760141164    0.8500981400
     32  O        -2.8242180126    1.8852309368    2.2776130631
     33  C        -2.2469181602   -3.0321072734    0.6578103913
     34  C        -5.0942263163   -0.4955737069   -1.1127556418
     35  C        -6.3594164245    0.2798988838   -1.5665387310
     36  C        -5.9031704431    1.7329528523   -1.3402425363
     37  C        -4.4505003560    1.5038512208   -0.8416154132
     38  O        -4.0261778401    0.3428222188   -1.5715474100
     39  H        -5.9814983227   -0.5492304944    0.8975751826
     40  H        -5.1683229676    1.6445802253    1.2444692270
     41  H        -2.8209637374   -3.9788252353    0.7704479465
     42  H        -5.0989768198   -1.5330633609   -1.5065335529
     43  H        -6.4936362371    0.1141075454   -2.6541249990
     44  H        -7.2854545088   -0.0144206532   -1.0368037704
     45  H        -5.8745484352    2.2525772675   -2.3183167867
     46  H        -6.5176214980    2.3177267750   -0.6292875250
     47  H        -3.8357042574    2.4163326554   -0.9888641058
     48  H        -1.7417141495   -2.7982756649    1.6210957783
     49  H        -1.4710613628   -3.1777116938   -0.1209770983
     50  H         5.9798412651   -3.8328687121   -1.1127808290
     51  H         4.4887425946   -3.2915251153   -1.9729278121
     52  H         4.3585986016   -4.1875507998   -0.4043441494
     53  H         0.4082596876    0.2521755835    1.0119323286
     54  H         0.2045891305   -0.5927652454   -0.5716896438
     55  H        -1.1436440799    2.0981025434    0.0599406657
     56  H        -1.5554831687    0.9502336718   -1.2649835003
   Point Group: c1    Number of degrees of freedom:   162


   Energy is  -1510.180144617

              Constraints and their Current Values
                                        Value     Constraint
   Dihedral:        1   2   3   4      104.234      104.211
   Dihedral:        3   4   5   6       47.335       47.368
   Dihedral:        4   5   6   7      104.211      104.211
   Dihedral:        5   6   7   8      142.099      142.105
   Dihedral:        6   7   8   9     -161.019     -161.053
   Dihedral:        7   8   9  10     -161.046     -161.053
   Dihedral:        8   9  10  11     -104.197     -104.211
   Dihedral:        9  10  11  12      123.182      123.158
   Dihedral:       11  12  13  14      -47.359      -47.368
 Hessian Updated using BFGS Update

   Using Lagrange Multiplier Algorithm


157 Hessian modes will be used to form the next step
  Hessian Eigenvalues:
    -0.977753   -0.977753   -0.977753   -0.977753   -0.977753   -0.977753
    -0.977753   -0.977331    0.044999    0.045000    0.045119    0.045121
     0.045196    0.045268    0.045542    0.045633    0.048850    0.048860
     0.054628    0.059796    0.059960    0.062179    0.062363    0.066934
     0.066971    0.067529    0.068100    0.070392    0.070431    0.071484
     0.073896    0.074078    0.075395    0.075886    0.077166    0.077367
     0.082356    0.082531    0.082705    0.083903    0.084239    0.084297
     0.085420    0.085438    0.086214    0.086718    0.086741    0.087402
     0.088170    0.088712    0.089066    0.089405    0.089713    0.089911
     0.093607    0.093875    0.096603    0.096690    0.111547    0.111645
     0.114652    0.114682    0.115910    0.115970    0.116370    0.117539
     0.118078    0.118657    0.119587    0.121978    0.123011    0.129523
     0.131804    0.131839    0.140536    0.142530    0.159612    0.161512
     0.170932    0.172319    0.173240    0.173926    0.219320    0.220897
     0.229299    0.239713    0.242283    0.248320    0.248931    0.249056
     0.249582    0.255064    0.258411    0.262098    0.267104    0.267282
     0.277949    0.279849    0.283444    0.288193    0.294828    0.297188
     0.301178    0.307891    0.310508    0.312388    0.318583    0.319720
     0.320951    0.321939    0.321992    0.322223    0.322579    0.322751
     0.323102    0.323526    0.323678    0.323800    0.323938    0.324004
     0.324064    0.324281    0.324537    0.324573    0.324626    0.324691
     0.324942    0.324951    0.325059    0.326681    0.326775    0.327635
     0.331332    0.367609    0.368916    0.383330    0.400421    0.405193
     0.420800    0.476335    0.492267    0.522476    0.525058    0.525938
     0.537611    0.941778    0.942339    0.946530    0.989119    1.022753
     1.022753    1.022753    1.022753    1.022753    1.022753    1.022753
     1.027667

 Minimum Search - Taking P-RFO Step
 Searching for Lamda that Maximizes Along the Constraint modes Only
 Value Taken    Lamda =   0.00004178
 Searching for Lamda that Minimizes Along All other modes
 Value Taken    Lamda =  -0.07635882
 Calculated Step too Large.  Step scaled by  0.641365
 Step Taken.  Stepsize is  0.300000

                             Maximum     Tolerance    Cnvgd?
         Gradient            0.065884       0.000300      NO
         Displacement        0.095864       0.001200      NO
         Energy change     -0.070953       0.000001      NO


 New Cartesian Coordinates Obtained by Inverse Iteration

 Displacement from previous Coordinates is:  1.216091
 Adding empirical dispersion correction 
 ----------------------------------------------------------------
 Doing -D3(op) with
 s6 =   1.00000
 s8 =   0.78311
 a1 =   0.30000
 a2 =   4.25000
 n  =  10.00000
 -D3 energy without 3body term =     -0.0672052157 hartrees
 ----------------------------------------------------------------
             Standard Nuclear Orientation (Angstroms)
    I     Atom           X                Y                Z
 ----------------------------------------------------------------
    1      O      -4.3412129080    -2.2670374185     2.0568370930
    2      C      -4.0947304147    -1.6118630590     1.0222436092
    3      C      -4.9751103413    -0.4781153163     0.4383512168
    4      C      -4.4776552085     0.9988876071     0.6490626956
    5      C      -3.0675716175     1.1633831894     1.2832846162
    6      O      -2.1070286497     0.3269874819     0.6638494434
    7      C      -1.2140604510     1.0477695297    -0.2348034747
    8      C       0.2154252120     0.4437735381    -0.0971048464
    9      O       1.1766677455     1.4135463398    -0.6195428840
   10      C       2.4155666748     0.8068432483    -0.9319146701
   11      C       3.5155392186     1.1120027467     0.1224602228
   12      C       4.1777294410    -0.1490613765     0.7831026400
   13      C       3.8590834362    -1.4875089140     0.0591219792
   14      O       2.7266298507    -1.8645390999    -0.3086268321
   15      O      -3.0424496917    -1.9505208929     0.1637399466
   16      O       5.0097379034    -2.2280841062    -0.2340251741
   17      O       2.6111565223     0.2067651103    -2.0065461177
   18      C       4.7638832742    -3.4564142217    -0.9404260593
   19      C       4.7938991543     1.8229528418    -0.4781603931
   20      C       5.4802820217     2.6348070999     0.6689144258
   21      C       6.0137821201     1.4777379810     1.5631106037
   22      C       5.6964118907     0.2357554804     0.6535045513
   23      O       5.7563516696     0.7511055123    -0.7100060407
   24      H       3.0736688033     1.7668806992     0.8973798691
   25      H       3.8330650633    -0.2725309971     1.8288186658
   26      H       4.5806033563     2.4498623211    -1.3666935626
   27      H       6.3383582168     3.1671289254     0.2195953644
   28      H       4.8372711019     3.3698001852     1.1824489907
   29      H       7.1012084950     1.5979031576     1.7073448872
   30      H       5.5177576585     1.3866253626     2.5448077453
   31      H       6.3791369898    -0.6113235666     0.8602076611
   32      O      -2.8136863385     1.8727646770     2.2746991678
   33      C      -2.2017553470    -3.0183829348     0.6313504833
   34      C      -5.1041781904    -0.5333616210    -1.1306445317
   35      C      -6.4000369504     0.2362169421    -1.5575422220
   36      C      -5.9567707710     1.7094753387    -1.3222304309
   37      C      -4.4767586870     1.4987795572    -0.8502484255
   38      O      -4.0340222223     0.3346134420    -1.6067590933
   39      H      -5.9694555753    -0.6097639222     0.9072624962
   40      H      -5.1807615614     1.5996094550     1.2566018929
   41      H      -2.7718981655    -3.9637720012     0.7639231733
   42      H      -5.0784126220    -1.5650562250    -1.5336039475
   43      H      -6.5598774433     0.0762073830    -2.6387024012
   44      H      -7.3056262035    -0.0763400127    -1.0102668364
   45      H      -5.9570103015     2.2464962873    -2.2870238845
   46      H      -6.5649592536     2.2715607939    -0.5930322777
   47      H      -3.8626603755     2.4092388426    -1.0014759275
   48      H      -1.7130420996    -2.7618471195     1.5960159793
   49      H      -1.4186221903    -3.1744495682    -0.1355114327
   50      H       5.7464850424    -3.9383581785    -1.1069878543
   51      H       4.2806061129    -3.2713115584    -1.9241154608
   52      H       4.1185982233    -4.1460476675    -0.3540589199
   53      H       0.4302623535     0.2793652013     0.9851459248
   54      H       0.2669659828    -0.5418844488    -0.6122664936
   55      H      -1.1504010146     2.1253433788     0.0439553820
   56      H      -1.5543241939     0.9878409210    -1.2925814156
 ----------------------------------------------------------------
 Molecular Point Group                 C1    NOp =  1
 Largest Abelian Subgroup              C1    NOp =  1
 Nuclear Repulsion Energy =  3084.9346302420 hartrees
 There are      113 alpha and      113 beta electrons
 Applying Cartesian multipole field
    Component          Value
    ---------          -----
     (2,0,0)        1.00000E-12
     (0,2,0)        2.00000E-11
     (0,0,2)       -3.00000E-11
 Nucleus-field energy     =     0.0000000287 hartrees
 Requested basis set is STO-3G
 There are 86 shells and 176 basis functions
 A cutoff of  1.0D-12 yielded   2058 shell pairs
 There are      9591 function pairs
 Smallest overlap matrix eigenvalue = 2.08E-01
 Guess MOs from SCF MO coefficient file
 Reading MOs from coefficient file
 Reading MOs from coefficient file
 A restricted hybrid HF-DFT SCF calculation will be
 performed using Pulay DIIS extrapolation
 Exchange:     0.2000 Hartree-Fock + 0.0800 Slater + 0.7200 B88
 Correlation:  0.1900 VWN1RPA + 0.8100 LYP
 Using SG-1 standard quadrature grid
 Dispersion:   Grimme D3
 SCF converges when DIIS error is below 1.0E-08
 Geometry optimization detected.  Setting ReadMinima to 0
 Setting SaveMinima to 0
 using 48 threads for integral computing
 -------------------------------------------------------
 OpenMP Integral computing Module                
 Release: version 1.0, May 2013, Q-Chem Inc. Pittsburgh 
 -------------------------------------------------------
 -------------------------------------------------------
 OpenMP BLAS3 based DFT computing Module                
 Release: version 1.0, May 2013, Q-Chem Inc. Pittsburgh 
 -------------------------------------------------------
 ---------------------------------------
  Cycle       Energy         DIIS Error
 ---------------------------------------
    1   -1510.0568224461      3.11E-03
    2   -1510.2136528766      8.96E-04
    3   -1510.2071280884      1.54E-03
    4   -1510.2169889505      2.77E-04
    5   -1510.2173289463      6.43E-05
    6   -1510.2173444851      3.03E-05
    7   -1510.2173480548      1.22E-05
    8   -1510.2173486991      2.67E-06
    9   -1510.2173487298      1.41E-06
   10   -1510.2173487381      4.25E-07
   11   -1510.2173487389      1.13E-07
   12   -1510.2173487390      4.82E-08
   13   -1510.2173487390      3.10E-08
   14   -1510.2173487392      5.73E-09 Convergence criterion met
 ---------------------------------------
 SCF time:  CPU 96.97 s  wall 2.03 s
 SCF   energy in the final basis set = -1510.21734874
 Total energy in the final basis set = -1510.21734874
 
 --------------------------------------------------------------
 
                    Orbital Energies (a.u.)
 --------------------------------------------------------------
 
 Alpha MOs
 -- Occupied --
-18.940 -18.932 -18.903 -18.900 -18.900 -18.897 -18.895 -18.889
-18.865 -18.859 -10.111 -10.106 -10.103 -10.097 -10.071 -10.070
-10.068 -10.067 -10.065 -10.064 -10.063 -10.062 -10.042 -10.039
-10.037 -10.033 -10.021 -10.020 -10.018 -10.017  -1.025  -1.020
 -1.012  -1.008  -0.990  -0.987  -0.945  -0.940  -0.934  -0.931
 -0.770  -0.769  -0.731  -0.729  -0.716  -0.712  -0.699  -0.667
 -0.662  -0.609  -0.601  -0.582  -0.550  -0.550  -0.537  -0.536
 -0.524  -0.516  -0.492  -0.482  -0.477  -0.459  -0.452  -0.442
 -0.441  -0.434  -0.428  -0.418  -0.415  -0.413  -0.410  -0.403
 -0.394  -0.391  -0.382  -0.374  -0.368  -0.359  -0.354  -0.348
 -0.345  -0.341  -0.339  -0.337  -0.334  -0.332  -0.322  -0.313
 -0.310  -0.308  -0.304  -0.302  -0.296  -0.294  -0.286  -0.278
 -0.272  -0.247  -0.241  -0.239  -0.235  -0.234  -0.231  -0.176
 -0.172  -0.164  -0.157  -0.153  -0.152  -0.151  -0.147  -0.145
 -0.141
 -- Virtual --
  0.074   0.080   0.106   0.107   0.228   0.243   0.246   0.259
  0.273   0.298   0.300   0.308   0.325   0.331   0.336   0.341
  0.348   0.355   0.357   0.361   0.364   0.370   0.374   0.382
  0.385   0.387   0.394   0.398   0.406   0.408   0.411   0.412
  0.418   0.422   0.424   0.428   0.431   0.436   0.440   0.441
  0.442   0.443   0.450   0.454   0.459   0.461   0.464   0.466
  0.473   0.482   0.486   0.493   0.495   0.514   0.517   0.546
  0.547   0.550   0.551   0.629   0.644   0.647   0.658
 --------------------------------------------------------------
 
          Ground-State Mulliken Net Atomic Charges

     Atom                 Charge (a.u.)
  ----------------------------------------
      1 O                    -0.223241
      2 C                     0.214811
      3 C                    -0.079541
      4 C                    -0.083057
      5 C                     0.227371
      6 O                    -0.204140
      7 C                    -0.036315
      8 C                    -0.037194
      9 O                    -0.210141
     10 C                     0.230612
     11 C                    -0.086551
     12 C                    -0.078250
     13 C                     0.217674
     14 O                    -0.224948
     15 O                    -0.173148
     16 O                    -0.180486
     17 O                    -0.184912
     18 C                    -0.115637
     19 C                     0.030113
     20 C                    -0.143121
     21 C                    -0.145869
     22 C                     0.029910
     23 O                    -0.191715
     24 H                     0.083766
     25 H                     0.084636
     26 H                     0.084761
     27 H                     0.076514
     28 H                     0.074367
     29 H                     0.076780
     30 H                     0.072401
     31 H                     0.091709
     32 O                    -0.187791
     33 C                    -0.115123
     34 C                     0.033183
     35 C                    -0.144249
     36 C                    -0.144174
     37 C                     0.028378
     38 O                    -0.190705
     39 H                     0.087041
     40 H                     0.084284
     41 H                     0.085098
     42 H                     0.087028
     43 H                     0.076923
     44 H                     0.074823
     45 H                     0.077198
     46 H                     0.074907
     47 H                     0.079717
     48 H                     0.088630
     49 H                     0.093253
     50 H                     0.092833
     51 H                     0.093533
     52 H                     0.086502
     53 H                     0.077148
     54 H                     0.092161
     55 H                     0.080931
     56 H                     0.091314
  ----------------------------------------
  Sum of atomic charges =    -0.000000

 -----------------------------------------------------------------
                    Cartesian Multipole Moments
 -----------------------------------------------------------------
    Charge (ESU x 10^10)
                -0.0000
    Dipole Moment (Debye)
         X      -0.1759      Y       0.2756      Z       0.4612
       Tot       0.5653
    Quadrupole Moments (Debye-Ang)
        XX    -144.0301     XY      -6.1186     YY    -150.7572
        XZ      17.9137     YZ       1.2180     ZZ    -169.9671
    Octopole Moments (Debye-Ang^2)
       XXX     -87.8072    XXY      13.2595    XYY      37.4971
       YYY     -47.6192    XXZ       2.4678    XYZ       0.5437
       YYZ     -24.0464    XZZ      25.3538    YZZ      -7.7008
       ZZZ      -9.5562
    Hexadecapole Moments (Debye-Ang^3)
      XXXX  -16917.2773   XXXY    -273.0231   XXYY   -3188.7850
      XYYY    -168.1641   YYYY   -2632.6916   XXXZ     199.8444
      XXYZ     114.9079   XYYZ     -38.5855   YYYZ      18.1477
      XXZZ   -3239.1274   XYZZ     -59.9939   YYZZ    -699.8843
      XZZZ     -79.9773   YZZZ       0.3762   ZZZZ   -1307.0189
 -----------------------------------------------------------------
 Calculating analytic gradient of the SCF energy
 Gradient of SCF Energy
            1           2           3           4           5           6
    1   0.0025293   0.0037711   0.0119033   0.0091428   0.0075523  -0.0089408
    2   0.0001189   0.0159413   0.0004371  -0.0073254  -0.0040136   0.0202621
    3  -0.0125098  -0.0119021  -0.0056907  -0.0056345  -0.0031312   0.0058117
            7           8           9          10          11          12
    1  -0.0052982  -0.0036545   0.0190006  -0.0146467   0.0037942  -0.0022924
    2  -0.0199422   0.0131287  -0.0209753   0.0107405  -0.0087639   0.0037127
    3   0.0002924  -0.0062826  -0.0019946   0.0091572  -0.0081454  -0.0157501
           13          14          15          16          17          18
    1   0.0195008   0.0128070   0.0003495  -0.0371360  -0.0015038   0.0125602
    2   0.0032725   0.0025768  -0.0241231  -0.0192361   0.0044238   0.0196283
    3   0.0163672  -0.0036564   0.0368899  -0.0179360   0.0086214   0.0121811
           19          20          21          22          23          24
    1   0.0114161  -0.0065590  -0.0035509  -0.0066933  -0.0112610   0.0014911
    2  -0.0197209  -0.0120517  -0.0021617   0.0123885   0.0067992   0.0033490
    3   0.0018352   0.0000058  -0.0072297  -0.0209167   0.0211528   0.0012249
           25          26          27          28          29          30
    1  -0.0029965  -0.0034284   0.0028735   0.0016239   0.0020096  -0.0011308
    2  -0.0031396   0.0069204  -0.0026932   0.0034881   0.0044474  -0.0028739
    3  -0.0003014   0.0046574  -0.0026879   0.0009978  -0.0032047   0.0012153
           31          32          33          34          35          36
    1  -0.0001678  -0.0027312  -0.0099707   0.0141525   0.0086726   0.0052956
    2   0.0012235  -0.0084259   0.0186097   0.0179243   0.0029183  -0.0079462
    3   0.0098162  -0.0065791  -0.0151495  -0.0021503   0.0079595   0.0043735
           37          38          39          40          41          42
    1   0.0013365  -0.0202601  -0.0017782   0.0007987  -0.0010774  -0.0087695
    2  -0.0235797   0.0029783  -0.0011879   0.0034539   0.0002578  -0.0022469
    3  -0.0066626   0.0144356  -0.0002254   0.0002796  -0.0012999   0.0026355
           43          44          45          46          47          48
    1   0.0031326  -0.0022290   0.0006781  -0.0002917  -0.0056848   0.0002178
    2   0.0022676  -0.0013980  -0.0031084   0.0022420   0.0057266   0.0016001
    3  -0.0028832  -0.0007625  -0.0040558   0.0008165   0.0043547  -0.0000882
           49          50          51          52          53          54
    1   0.0010985  -0.0003305   0.0007839   0.0004478   0.0025645  -0.0016778
    2  -0.0014307  -0.0016772   0.0013492   0.0004290   0.0032994  -0.0007620
    3   0.0005730  -0.0009337  -0.0004315   0.0015362  -0.0006143   0.0004707
           55          56
    1  -0.0005336   0.0030904
    2   0.0004482   0.0024205
    3   0.0014381  -0.0002889
 Max gradient component =       3.714E-02
 RMS gradient           =       9.423E-03
 Gradient time:  CPU 29.09 s  wall 0.61 s
 Geometry Optimization Parameters
   NAtoms,    NIC,     NZ,  NCons,   NDum,   NFix, NCnnct, MaxDiis
       56     458       0       9       0       0       0       0

 Cartesian Hessian Update
 Hessian Updated using BFGS Update


** CONSTRAINED OPTIMIZATION IN DELOCALIZED INTERNAL COORDINATES **
   Searching for a Minimum

   Optimization Cycle:   3

                       Coordinates (Angstroms)
     ATOM                X               Y               Z
      1  O        -4.3412129080   -2.2670374185    2.0568370930
      2  C        -4.0947304147   -1.6118630590    1.0222436092
      3  C        -4.9751103413   -0.4781153163    0.4383512168
      4  C        -4.4776552085    0.9988876071    0.6490626956
      5  C        -3.0675716175    1.1633831894    1.2832846162
      6  O        -2.1070286497    0.3269874819    0.6638494434
      7  C        -1.2140604510    1.0477695297   -0.2348034747
      8  C         0.2154252120    0.4437735381   -0.0971048464
      9  O         1.1766677455    1.4135463398   -0.6195428840
     10  C         2.4155666748    0.8068432483   -0.9319146701
     11  C         3.5155392186    1.1120027467    0.1224602228
     12  C         4.1777294410   -0.1490613765    0.7831026400
     13  C         3.8590834362   -1.4875089140    0.0591219792
     14  O         2.7266298507   -1.8645390999   -0.3086268321
     15  O        -3.0424496917   -1.9505208929    0.1637399466
     16  O         5.0097379034   -2.2280841062   -0.2340251741
     17  O         2.6111565223    0.2067651103   -2.0065461177
     18  C         4.7638832742   -3.4564142217   -0.9404260593
     19  C         4.7938991543    1.8229528418   -0.4781603931
     20  C         5.4802820217    2.6348070999    0.6689144258
     21  C         6.0137821201    1.4777379810    1.5631106037
     22  C         5.6964118907    0.2357554804    0.6535045513
     23  O         5.7563516696    0.7511055123   -0.7100060407
     24  H         3.0736688033    1.7668806992    0.8973798691
     25  H         3.8330650633   -0.2725309971    1.8288186658
     26  H         4.5806033563    2.4498623211   -1.3666935626
     27  H         6.3383582168    3.1671289254    0.2195953644
     28  H         4.8372711019    3.3698001852    1.1824489907
     29  H         7.1012084950    1.5979031576    1.7073448872
     30  H         5.5177576585    1.3866253626    2.5448077453
     31  H         6.3791369898   -0.6113235666    0.8602076611
     32  O        -2.8136863385    1.8727646770    2.2746991678
     33  C        -2.2017553470   -3.0183829348    0.6313504833
     34  C        -5.1041781904   -0.5333616210   -1.1306445317
     35  C        -6.4000369504    0.2362169421   -1.5575422220
     36  C        -5.9567707710    1.7094753387   -1.3222304309
     37  C        -4.4767586870    1.4987795572   -0.8502484255
     38  O        -4.0340222223    0.3346134420   -1.6067590933
     39  H        -5.9694555753   -0.6097639222    0.9072624962
     40  H        -5.1807615614    1.5996094550    1.2566018929
     41  H        -2.7718981655   -3.9637720012    0.7639231733
     42  H        -5.0784126220   -1.5650562250   -1.5336039475
     43  H        -6.5598774433    0.0762073830   -2.6387024012
     44  H        -7.3056262035   -0.0763400127   -1.0102668364
     45  H        -5.9570103015    2.2464962873   -2.2870238845
     46  H        -6.5649592536    2.2715607939   -0.5930322777
     47  H        -3.8626603755    2.4092388426   -1.0014759275
     48  H        -1.7130420996   -2.7618471195    1.5960159793
     49  H        -1.4186221903   -3.1744495682   -0.1355114327
     50  H         5.7464850424   -3.9383581785   -1.1069878543
     51  H         4.2806061129   -3.2713115584   -1.9241154608
     52  H         4.1185982233   -4.1460476675   -0.3540589199
     53  H         0.4302623535    0.2793652013    0.9851459248
     54  H         0.2669659828   -0.5418844488   -0.6122664936
     55  H        -1.1504010146    2.1253433788    0.0439553820
     56  H        -1.5543241939    0.9878409210   -1.2925814156
   Point Group: c1    Number of degrees of freedom:   162


   Energy is  -1510.217348739

              Constraints and their Current Values
                                        Value     Constraint
   Dihedral:        1   2   3   4      104.212      104.211
   Dihedral:        3   4   5   6       47.378       47.368
   Dihedral:        4   5   6   7      104.211      104.211
   Dihedral:        5   6   7   8      142.099      142.105
   Dihedral:        6   7   8   9     -161.044     -161.053
   Dihedral:        7   8   9  10     -161.054     -161.053
   Dihedral:        8   9  10  11     -104.205     -104.211
   Dihedral:        9  10  11  12      123.162      123.158
   Dihedral:       11  12  13  14      -47.360      -47.368
 Hessian Updated using BFGS Update

   Using Lagrange Multiplier Algorithm


160 Hessian modes will be used to form the next step
  Hessian Eigenvalues:
    -0.977753   -0.977753   -0.977753   -0.977753   -0.977753   -0.977753
    -0.977735   -0.977509    0.044984    0.045000    0.045000    0.045026
     0.045121    0.045196    0.045324    0.045537    0.045577    0.048816
     0.048853    0.054583    0.059089    0.059919    0.062261    0.062360
     0.066925    0.066960    0.067546    0.068083    0.070322    0.070431
     0.071318    0.073834    0.074047    0.075398    0.075887    0.077343
     0.077374    0.082360    0.082535    0.082710    0.084026    0.084249
     0.084303    0.085411    0.085478    0.086217    0.086727    0.086745
     0.087380    0.088263    0.088684    0.089063    0.089421    0.089721
     0.089910    0.093587    0.093854    0.096603    0.096694    0.111549
     0.111642    0.114652    0.114670    0.115910    0.115969    0.116375
     0.117532    0.118096    0.118674    0.119546    0.122008    0.123017
     0.129524    0.131809    0.131820    0.140578    0.142143    0.159857
     0.160009    0.161536    0.171256    0.173080    0.173408    0.173925
     0.220877    0.221260    0.236532    0.240063    0.242347    0.248333
     0.248948    0.249058    0.249581    0.254272    0.257548    0.259255
     0.262369    0.267086    0.267289    0.278028    0.279844    0.283466
     0.288617    0.294833    0.297301    0.301808    0.308301    0.310297
     0.312367    0.318565    0.319190    0.320486    0.321908    0.321993
     0.322189    0.322552    0.322749    0.323030    0.323494    0.323681
     0.323761    0.323938    0.323989    0.324045    0.324251    0.324546
     0.324555    0.324607    0.324682    0.324943    0.324951    0.325058
     0.326707    0.326781    0.327625    0.332430    0.367523    0.368877
     0.383382    0.390984    0.405354    0.407409    0.458264    0.492259
     0.515204    0.523912    0.525864    0.534499    0.941938    0.942449
     0.946775    0.998746    1.022753    1.022753    1.022753    1.022753
     1.022753    1.022753    1.022806    1.027155

 Minimum Search - Taking P-RFO Step
 Searching for Lamda that Maximizes Along the Constraint modes Only
 Value Taken    Lamda =   0.00001260
 Searching for Lamda that Minimizes Along All other modes
 Value Taken    Lamda =  -0.02847009
 Calculated Step too Large.  Step scaled by  0.797371
 Step Taken.  Stepsize is  0.300000

                             Maximum     Tolerance    Cnvgd?
         Gradient            0.030742       0.000300      NO
         Displacement        0.068752       0.001200      NO
         Energy change     -0.037204       0.000001      NO


 New Cartesian Coordinates Obtained by Inverse Iteration

 Displacement from previous Coordinates is:  1.488694
 Adding empirical dispersion correction 
 ----------------------------------------------------------------
 Doing -D3(op) with
 s6 =   1.00000
 s8 =   0.78311
 a1 =   0.30000
 a2 =   4.25000
 n  =  10.00000
 -D3 energy without 3body term =     -0.0667671141 hartrees
 ----------------------------------------------------------------
             Standard Nuclear Orientation (Angstroms)
    I     Atom           X                Y                Z
 ----------------------------------------------------------------
    1      O      -4.2946882992    -2.3628971509     2.0060129902
    2      C      -4.0892033766    -1.6840282302     0.9743141403
    3      C      -4.9934693774    -0.5225342762     0.4417621560
    4      C      -4.4815668769     0.9647090561     0.6595015925
    5      C      -3.0450312802     1.1350887951     1.2727637699
    6      O      -2.0544042650     0.3090302052     0.6418323382
    7      C      -1.1818642722     1.0743975606    -0.2613454206
    8      C       0.2700951885     0.4991790547    -0.1220267719
    9      O       1.2098971274     1.5111776961    -0.6407009966
   10      C       2.4666514045     0.8731778097    -0.9431657023
   11      C       3.5687997130     1.1750227441     0.1297770276
   12      C       4.2153505480    -0.0958485790     0.8150175251
   13      C       3.8247953402    -1.4444468358     0.1136586645
   14      O       2.6692554011    -1.7893226402    -0.2227546986
   15      O      -3.0743717153    -1.9968085107     0.0312417758
   16      O       4.9751247076    -2.2337465949    -0.1512961147
   17      O       2.6608924594     0.2593091063    -2.0140098641
   18      C       4.6027137103    -3.4807809934    -0.8302027087
   19      C       4.8692845695     1.8510258706    -0.4956137073
   20      C       5.5820859268     2.6655821622     0.6465870351
   21      C       6.0939541138     1.4981794908     1.5597357636
   22      C       5.7494370094     0.2406043169     0.6645442971
   23      O       5.8138423057     0.7400317687    -0.7232029984
   24      H       3.1361240123     1.8463409043     0.8924276346
   25      H       3.8853238012    -0.1853475471     1.8678612480
   26      H       4.6715909588     2.4446534784    -1.4092744556
   27      H       6.4469041117     3.1862710871     0.2012742471
   28      H       4.9433923133     3.4089603448     1.1497249626
   29      H       7.1814669331     1.5837636606     1.7140688633
   30      H       5.5925406128     1.4385206404     2.5392440284
   31      H       6.4087731822    -0.6284093306     0.8512354925
   32      O      -2.7849597994     1.8580486980     2.2583866544
[...]
     15  O        -3.0130231794   -1.8633159637   -0.5787098755
     16  O         4.6940648548   -2.2842107648    0.2255374422
     17  O         2.7469518593    0.2201714980   -1.9253243868
     18  C         4.1242650301   -3.5835954931   -0.2015766408
     19  C         4.8951518146    1.9376347222   -0.4714349158
     20  C         5.7260199773    2.6483873696    0.6684790604
     21  C         6.3596333771    1.4072074236    1.3990444161
     22  C         5.7753654579    0.2164034138    0.5427735452
     23  O         5.7226415471    0.7656023332   -0.8319477055
     24  H         3.1200203806    1.9718351099    0.9068370248
     25  H         4.0904309798    0.1095053306    2.0124203507
     26  H         4.6917619793    2.5582106477   -1.3657565040
     27  H         6.4998101548    3.2988913275    0.2308533582
     28  H         5.0870657467    3.2538733949    1.3310468585
     29  H         7.4593852802    1.4210182334    1.3368871793
     30  H         6.0670012215    1.3398246103    2.4590785573
     31  H         6.3573460458   -0.7244111467    0.5639787755
     32  O        -2.7981691300    1.9248558727    2.1333960673
     33  C        -1.8988264876   -2.8164814923   -0.3818526529
     34  C        -5.3877345292   -0.6528666420   -1.0642863119
     35  C        -6.7133664832    0.2022399301   -1.1790814522
     36  C        -6.1437367372    1.6683843011   -1.1398449576
     37  C        -4.6087837785    1.3806817434   -0.9044304828
     38  O        -4.3633021924    0.1844033629   -1.7345852226
     39  H        -5.7037566038   -0.9080544592    1.1597416733
     40  H        -5.1750336297    1.3949693656    1.2457525445
     41  H        -2.2556187580   -3.7931261403    0.0044965493
     42  H        -5.4327867762   -1.6539488219   -1.5339053301
     43  H        -7.2296269128   -0.0072522337   -2.1292357074
     44  H        -7.4063483901   -0.0044339984   -0.3479611874
     45  H        -6.2899812530    2.1834807862   -2.1030227625
     46  H        -6.5869514506    2.2814564226   -0.3390289107
     47  H        -3.9234403819    2.2022606863   -1.1893744525
     48  H        -1.1445448138   -2.4101529577    0.3228808650
     49  H        -1.4367178875   -2.9545230645   -1.3766068918
     50  H         4.9868750260   -4.2581942141   -0.3526702030
     51  H         3.5582847554   -3.4845159114   -1.1502059427
     52  H         3.4496644008   -4.0068967410    0.5704282272
     53  H         0.5015261661    0.3479368436    0.9824712485
     54  H         0.4376077968   -0.4711680833   -0.6152668637
     55  H        -1.1657001844    2.1262960584   -0.0599529586
     56  H        -1.4981394999    0.8883259277   -1.3364788160
   Point Group: c1    Number of degrees of freedom:   162


   Energy is  -1510.240104145

              Constraints and their Current Values
                                        Value     Constraint
   Dihedral:        1   2   3   4      104.211      104.211
   Dihedral:        3   4   5   6       47.368       47.368
   Dihedral:        4   5   6   7      104.211      104.211
   Dihedral:        5   6   7   8      142.105      142.105
   Dihedral:        6   7   8   9     -161.053     -161.053
   Dihedral:        7   8   9  10     -161.053     -161.053
   Dihedral:        8   9  10  11     -104.211     -104.211
   Dihedral:        9  10  11  12      123.158      123.158
   Dihedral:       11  12  13  14      -47.368      -47.368
 Hessian Updated using BFGS Update

153 Hessian modes will be used to form the next step
  Hessian Eigenvalues:
     0.003132    0.003865    0.007756    0.018147    0.024387    0.045005
     0.045071    0.045415    0.045599    0.046025    0.046373    0.047863
     0.048941    0.054854    0.058969    0.061586    0.063050    0.066798
     0.066954    0.067489    0.067920    0.069464    0.070473    0.072185
     0.073462    0.074155    0.075185    0.075571    0.078281    0.078538
     0.082315    0.082408    0.083284    0.083819    0.084582    0.084728
     0.085535    0.086307    0.086473    0.086979    0.087219    0.087415
     0.088854    0.089358    0.089572    0.089717    0.090849    0.091747
     0.093661    0.093850    0.096629    0.096718    0.111485    0.111643
     0.114691    0.114772    0.115588    0.115914    0.116108    0.117085
     0.117491    0.120262    0.121066    0.122891    0.123288    0.129608
     0.131038    0.131737    0.154199    0.157534    0.159973    0.160013
     0.160046    0.160309    0.160783    0.161906    0.173385    0.174000
     0.186640    0.203571    0.221455    0.224503    0.237933    0.241990
     0.244160    0.247168    0.248593    0.250038    0.250578    0.251140
     0.252138    0.253937    0.256128    0.258436    0.265497    0.267082
     0.269980    0.276784    0.280006    0.282473    0.286261    0.292672
     0.294814    0.297631    0.300883    0.306131    0.309056    0.313821
     0.318590    0.318857    0.320108    0.321356    0.321986    0.322317
     0.322621    0.322787    0.323156    0.323552    0.323778    0.323846
     0.323971    0.324016    0.324095    0.324371    0.324502    0.324614
     0.324703    0.324957    0.325046    0.325299    0.325543    0.326797
     0.326948    0.327635    0.332165    0.353005    0.366207    0.367544
     0.376512    0.398797    0.404307    0.413054    0.431381    0.479218
     0.492488    0.512370    0.526407    0.531652    0.561813    0.942132
     0.943187    0.946430    1.015083

 Minimum Search - Taking Simple RFO Step
 Searching for Lamda that Minimizes Along All modes
 Value Taken    Lamda =   0.00000000
 Step Taken.  Stepsize is  0.005430

                             Maximum     Tolerance    Cnvgd?
         Gradient           0.000052      0.000300     YES
         Displacement       0.001985      0.001200      NO
         Energy change      0.000000      0.000001     YES

 Final energy is   -1510.24010414454     


 ******************************
 **  OPTIMIZATION CONVERGED  **
 ******************************

                       Coordinates (Angstroms)
     ATOM                X               Y               Z
      1  O        -3.5561248264   -2.4162672853    1.6590880293
      2  C        -3.7379088091   -1.7057193721    0.6454197364
      3  C        -4.8983308507   -0.6584682224    0.4468164266
      4  C        -4.4572691802    0.8617697012    0.5964084854
      5  C        -3.0381814337    1.1013816933    1.2245816568
      6  O        -2.0098958210    0.2674430926    0.6361693330
      7  C        -1.1527526831    1.0378724485   -0.2887813189
      8  C         0.3155473278    0.5088568604   -0.1050315615
      9  O         1.2346572945    1.5336726292   -0.6460121810
     10  C         2.5292350408    0.9076356334   -0.9068910551
     11  C         3.5989584925    1.2871386478    0.1857085565
     12  C         4.2455677037    0.0336093549    0.9196051867
     13  C         3.6438243965   -1.3442283778    0.4550259758
     14  O         2.4294433016   -1.6209490395    0.3365692381
     15  O        -3.0130231794   -1.8633159637   -0.5787098755
     16  O         4.6940648548   -2.2842107648    0.2255374422
     17  O         2.7469518593    0.2201714980   -1.9253243868
     18  C         4.1242650301   -3.5835954931   -0.2015766408
     19  C         4.8951518146    1.9376347222   -0.4714349158
     20  C         5.7260199773    2.6483873696    0.6684790604
     21  C         6.3596333771    1.4072074236    1.3990444161
     22  C         5.7753654579    0.2164034138    0.5427735452
     23  O         5.7226415471    0.7656023332   -0.8319477055
     24  H         3.1200203806    1.9718351099    0.9068370248
     25  H         4.0904309798    0.1095053306    2.0124203507
     26  H         4.6917619793    2.5582106477   -1.3657565040
     27  H         6.4998101548    3.2988913275    0.2308533582
     28  H         5.0870657467    3.2538733949    1.3310468585
     29  H         7.4593852802    1.4210182334    1.3368871793
     30  H         6.0670012215    1.3398246103    2.4590785573
     31  H         6.3573460458   -0.7244111467    0.5639787755
     32  O        -2.7981691300    1.9248558727    2.1333960673
     33  C        -1.8988264876   -2.8164814923   -0.3818526529
     34  C        -5.3877345292   -0.6528666420   -1.0642863119
     35  C        -6.7133664832    0.2022399301   -1.1790814522
     36  C        -6.1437367372    1.6683843011   -1.1398449576
     37  C        -4.6087837785    1.3806817434   -0.9044304828
     38  O        -4.3633021924    0.1844033629   -1.7345852226
     39  H        -5.7037566038   -0.9080544592    1.1597416733
     40  H        -5.1750336297    1.3949693656    1.2457525445
     41  H        -2.2556187580   -3.7931261403    0.0044965493
     42  H        -5.4327867762   -1.6539488219   -1.5339053301
     43  H        -7.2296269128   -0.0072522337   -2.1292357074
     44  H        -7.4063483901   -0.0044339984   -0.3479611874
     45  H        -6.2899812530    2.1834807862   -2.1030227625
     46  H        -6.5869514506    2.2814564226   -0.3390289107
     47  H        -3.9234403819    2.2022606863   -1.1893744525
     48  H        -1.1445448138   -2.4101529577    0.3228808650
     49  H        -1.4367178875   -2.9545230645   -1.3766068918
     50  H         4.9868750260   -4.2581942141   -0.3526702030
     51  H         3.5582847554   -3.4845159114   -1.1502059427
     52  H         3.4496644008   -4.0068967410    0.5704282272
     53  H         0.5015261661    0.3479368436    0.9824712485
     54  H         0.4376077968   -0.4711680833   -0.6152668637
     55  H        -1.1657001844    2.1262960584   -0.0599529586
     56  H        -1.4981394999    0.8883259277   -1.3364788160

Z-matrix Print:
$molecule
0 1
O 
C  1 1.448811
O  2 1.249664 1 122.570870
C  1 1.477765 2 111.455985 3 -75.477902 0
H  4 1.112293 1 112.002139 2 23.373626 0
H  4 1.113250 1 109.820071 2 -97.568174 0
C  2 1.570295 1 113.023093 3 179.688857 0
H  7 1.105050 2 106.158356 1 169.274103 0
C  4 1.571473 1 107.052882 2 142.104985 0
H  9 1.111615 4 110.225247 1 76.460107 0
H  9 1.114964 4 108.571371 1 -41.150967 0
O  9 1.479078 4 107.733833 1 -161.053031 0
C  12 1.461476 9 108.598410 4 -161.053011 0
O  13 1.247884 12 122.426119 9 79.498941 0
C  13 1.575470 12 111.991555 9 -104.211039 0
H  15 1.103729 13 107.933174 12 -1.077293 0
C  7 1.589980 2 115.735899 1 47.368014 0
H  17 1.104204 7 110.959870 2 109.446787 0
C  17 1.575677 7 114.792257 2 -13.059182 0
O  19 1.251178 17 125.913662 7 104.210999 0
O  19 1.431359 17 109.776362 7 -83.505405 0
C  21 1.479429 19 109.788277 17 178.342014 0
H  22 1.105503 21 105.993561 19 175.474116 0
H  22 1.109235 21 111.799833 19 55.920019 0
H  22 1.109366 21 111.137968 19 -65.685386 0
C  17 1.588389 7 99.881171 2 -131.149651 0
H  26 1.106678 17 114.396921 7 160.405527 0
O  26 1.483167 17 102.657521 7 40.909630 0
C  28 1.476652 26 95.073412 17 -59.028906 0
H  29 1.107195 28 110.705236 26 178.614519 0
C  29 1.579327 28 103.023519 26 -57.528179 0
H  31 1.101637 29 112.584252 28 159.007030 0
H  31 1.102009 29 110.145673 28 -79.400516 0
C  31 1.573403 29 100.709668 28 38.363505 0
H  34 1.101456 31 111.618899 29 -121.774512 0
H  34 1.101680 31 112.564713 29 115.694941 0
C  15 1.589982 13 113.974151 12 123.158056 0
H  37 1.106378 15 110.170198 13 -122.927119 0
C  37 1.573647 15 113.485407 13 -2.541774 0
O  39 1.251131 37 126.353323 15 -47.368042 0
O  39 1.428019 37 110.032477 15 134.817961 0
C  41 1.481722 39 109.922228 37 179.562758 0
H  42 1.105445 41 105.930835 39 -179.604271 0
H  42 1.109075 41 111.374126 39 61.268861 0
H  42 1.109172 41 111.587917 39 -60.286181 0
C  37 1.586095 15 101.053101 13 119.381617 0
H  46 1.106473 37 113.876238 15 -155.323725 0
O  46 1.481303 37 103.231676 15 -35.373884 0
C  48 1.479314 46 95.018831 37 57.141682 0
H  49 1.107381 48 110.482324 46 -179.964610 0
C  46 1.578792 37 108.361248 15 74.163324 0
H  51 1.101594 46 110.383846 37 167.338946 0
H  51 1.101747 46 112.172746 37 45.985184 0
C  51 1.573442 46 101.193782 37 -74.530719 0
H  54 1.101555 51 111.556539 46 -117.308412 0
H  54 1.101759 51 112.819332 46 119.902075 0
$end

 
 --------------------------------------------------------------
 
                    Orbital Energies (a.u.)
 --------------------------------------------------------------
 
 Alpha MOs
 -- Occupied --
-18.942 -18.924 -18.901 -18.899 -18.898 -18.893 -18.891 -18.889
-18.877 -18.863 -10.108 -10.105 -10.104 -10.091 -10.068 -10.068
-10.064 -10.061 -10.061 -10.060 -10.059 -10.053 -10.042 -10.037
-10.036 -10.036 -10.023 -10.021 -10.021 -10.020  -1.017  -1.008
 -1.001  -0.999  -0.972  -0.971  -0.941  -0.938  -0.929  -0.925
 -0.764  -0.763  -0.724  -0.723  -0.710  -0.706  -0.692  -0.664
 -0.652  -0.604  -0.597  -0.578  -0.547  -0.546  -0.539  -0.538
 -0.517  -0.512  -0.484  -0.475  -0.469  -0.455  -0.449  -0.437
 -0.434  -0.433  -0.423  -0.415  -0.414  -0.407  -0.402  -0.396
 -0.391  -0.383  -0.376  -0.366  -0.364  -0.356  -0.354  -0.348
 -0.341  -0.337  -0.335  -0.332  -0.330  -0.326  -0.321  -0.313
 -0.310  -0.307  -0.305  -0.302  -0.297  -0.293  -0.284  -0.280
 -0.274  -0.257  -0.244  -0.241  -0.236  -0.235  -0.234  -0.182
 -0.169  -0.164  -0.159  -0.155  -0.151  -0.149  -0.145  -0.144
 -0.141
 -- Virtual --
  0.070   0.075   0.099   0.107   0.219   0.239   0.242   0.246
  0.262   0.278   0.283   0.288   0.306   0.318   0.325   0.330
  0.333   0.340   0.342   0.353   0.354   0.359   0.368   0.371
  0.373   0.378   0.385   0.394   0.401   0.406   0.407   0.409
  0.412   0.415   0.421   0.424   0.427   0.429   0.433   0.434
  0.436   0.440   0.441   0.445   0.446   0.451   0.458   0.463
  0.466   0.472   0.486   0.488   0.491   0.503   0.509   0.534
  0.537   0.551   0.552   0.618   0.631   0.638   0.651
 --------------------------------------------------------------
 
          Ground-State Mulliken Net Atomic Charges

     Atom                 Charge (a.u.)
  ----------------------------------------
      1 O                    -0.218252
      2 C                     0.211941
      3 C                    -0.078636
      4 C                    -0.083004
      5 C                     0.219917
      6 O                    -0.200732
      7 C                    -0.042656
      8 C                    -0.044613
      9 O                    -0.201415
     10 C                     0.221662
     11 C                    -0.083397
     12 C                    -0.078894
     13 C                     0.211696
     14 O                    -0.220264
     15 O                    -0.162827
     16 O                    -0.166155
     17 O                    -0.181515
     18 C                    -0.127213
     19 C                     0.025776
     20 C                    -0.143867
     21 C                    -0.144309
     22 C                     0.023417
     23 O                    -0.187018
     24 H                     0.084975
     25 H                     0.085281
     26 H                     0.084290
     27 H                     0.078573
     28 H                     0.074356
     29 H                     0.078361
     30 H                     0.073126
     31 H                     0.093823
     32 O                    -0.183597
     33 C                    -0.127505
     34 C                     0.027312
     35 C                    -0.145298
     36 C                    -0.142084
     37 C                     0.024320
     38 O                    -0.184023
     39 H                     0.085226
     40 H                     0.082977
     41 H                     0.087009
     42 H                     0.086468
     43 H                     0.078245
     44 H                     0.074181
     45 H                     0.078449
     46 H                     0.074744
     47 H                     0.080932
     48 H                     0.091791
     49 H                     0.088686
     50 H                     0.092383
     51 H                     0.093707
     52 H                     0.089554
     53 H                     0.080844
     54 H                     0.090650
     55 H                     0.083796
     56 H                     0.088803
  ----------------------------------------
  Sum of atomic charges =    -0.000000

 -----------------------------------------------------------------
                    Cartesian Multipole Moments
 -----------------------------------------------------------------
    Charge (ESU x 10^10)
                -0.0000
    Dipole Moment (Debye)
         X      -0.1705      Y       0.3355      Z       0.7313
       Tot       0.8225
    Quadrupole Moments (Debye-Ang)
        XX    -139.8993     XY      -3.7384     YY    -151.4070
        XZ      15.1051     YZ       1.8019     ZZ    -169.4289
    Octopole Moments (Debye-Ang^2)
       XXX    -114.2209    XXY      16.8265    XYY      38.8489
       YYY     -49.6546    XXZ      38.6407    XYZ       1.6948
       YYZ     -24.2367    XZZ      14.6718    YZZ      -5.8599
       ZZZ       4.4269
    Hexadecapole Moments (Debye-Ang^3)
      XXXX  -16748.4524   XXXY    -233.7095   XXYY   -3206.9033
      XYYY    -303.1075   YYYY   -2635.2837   XXXZ    -126.8326
      XXYZ      42.8233   XYYZ    -101.4559   YYYZ      10.3424
      XXZZ   -3192.7149   XYZZ     -76.5886   YYZZ    -666.4999
      XZZZ    -367.4799   YZZZ     -11.3134   ZZZZ   -1106.6473
 -----------------------------------------------------------------
Archival summary:
1\1\vega02.cac.cornell.edu\OPT\ProcedureUnspecified\STO-3G\102026\jj585\SatJan1323:12:502018SatJan1323:12:502018\0\\#,OPT,ProcedureUnspecified,STO-3G,\\0,1\O\C,1,1.44881\O,2,1.24966,1,122.571\C,1,1.47777,2,111.456,3,-75.4779,0\H,4,1.11229,1,112.002,2,23.3736,0\H,4,1.11325,1,109.82,2,-97.5682,0\C,2,1.57029,1,113.023,3,179.689,0\H,7,1.10505,2,106.158,1,169.274,0\C,4,1.57147,1,107.053,2,142.105,0\H,9,1.11161,4,110.225,1,76.4601,0\H,9,1.11496,4,108.571,1,-41.151,0\O,9,1.47908,4,107.734,1,-161.053,0\C,12,1.46148,9,108.598,4,-161.053,0\O,13,1.24788,12,122.426,9,79.4989,0\C,13,1.57547,12,111.992,9,-104.211,0\H,15,1.10373,13,107.933,12,-1.07729,0\C,7,1.58998,2,115.736,1,47.368,0\H,17,1.1042,7,110.96,2,109.447,0\C,17,1.57568,7,114.792,2,-13.0592,0\O,19,1.25118,17,125.914,7,104.211,0\O,19,1.43136,17,109.776,7,-83.5054,0\C,21,1.47943,19,109.788,17,178.342,0\H,22,1.1055,21,105.994,19,175.474,0\H,22,1.10923,21,111.8,19,55.92,0\H,22,1.10937,21,111.138,19,-65.6854,0\C,17,1.58839,7,99.8812,2,-131.15,0\H,26,1.10668,17,114.397,7,160.406,0\O,26,1.48317,17,102.658,7,40.9096,0\C,28,1.47665,26,95.0734,17,-59.0289,0\H,29,1.10719,28,110.705,26,178.615,0\C,29,1.57933,28,103.024,26,-57.5282,0\H,31,1.10164,29,112.584,28,159.007,0\H,31,1.10201,29,110.146,28,-79.4005,0\C,31,1.5734,29,100.71,28,38.3635,0\H,34,1.10146,31,111.619,29,-121.775,0\H,34,1.10168,31,112.565,29,115.695,0\C,15,1.58998,13,113.974,12,123.158,0\H,37,1.10638,15,110.17,13,-122.927,0\C,37,1.57365,15,113.485,13,-2.54177,0\O,39,1.25113,37,126.353,15,-47.368,0\O,39,1.42802,37,110.032,15,134.818,0\C,41,1.48172,39,109.922,37,179.563,0\H,42,1.10545,41,105.931,39,-179.604,0\H,42,1.10908,41,111.374,39,61.2689,0\H,42,1.10917,41,111.588,39,-60.2862,0\C,37,1.58609,15,101.053,13,119.382,0\H,46,1.10647,37,113.876,15,-155.324,0\O,46,1.4813,37,103.232,15,-35.3739,0\C,48,1.47931,46,95.0188,37,57.1417,0\H,49,1.10738,48,110.482,46,-179.965,0\C,46,1.57879,37,108.361,15,74.1633,0\H,51,1.10159,46,110.384,37,167.339,0\H,51,1.10175,46,112.173,37,45.9852,0\C,51,1.57344,46,101.194,37,-74.5307,0\H,54,1.10155,51,111.557,46,-117.308,0\H,54,1.10176,51,112.819,46,119.902,0\\\@

 Total job time:  62.66s(wall), 2981.32s(cpu) 
 Sat Jan 13 23:12:50 2018

        *************************************************************
        *                                                           *
        *  Thank you very much for using Q-Chem.  Have a nice day.  *
        *                                                           *
        *************************************************************


0 sent ACK to 0 
now end server 0 ... 
