mFile = /opt/software/qchem/qchem-5.0.1//bin/mpi/machines
Process 0 of 1 is on vega02.cac.cornell.edu - thread support 0
initial socket setup ...start
initial socket setup ...done 
now start server 0 ... 
vega02.cac.cornell.edu 10.84.3
Q-Chem Developer Version! Running on 10.84.3.*
                  Welcome to Q-Chem
     A Quantum Leap Into The Future Of Chemistry


 Q-Chem 5.0, Q-Chem, Inc., Pleasanton, CA (2017)

 Yihan Shao,  Zhengting Gan,  E. Epifanovsky,  A. T. B. Gilbert,  M. Wormit,  
 J. Kussmann,  A. W. Lange,  A. Behn,  Jia Deng,  Xintian Feng,  D. Ghosh,  
 M. Goldey,  P. R. Horn,  L. D. Jacobson,  I. Kaliman,  T. Kus,  A. Landau,  
 Jie Liu,  E. I. Proynov,  R. M. Richard,  R. P. Steele,  E. J. Sundstrom,  
 H. L. Woodcock III,  P. M. Zimmerman,  D. Zuev,  B. Albrecht,  E. Alguire,  
 S. A. Baeppler,  Z. Benda,  Y. A. Bernard,  E. J. Berquist,  K. B. Bravaya,  
 D. Casanova,  Chun-Min Chang,  Yunqing Chen,  A. Chien,  K. D. Closser,  
 M. P. Coons,  S. Dasgupta,  M. Diedenhofen,  Hainam Do,  R. G. Edgar,  
 Po-Tung Fang,  S. Fatehi,  Qingguo Feng,  Qinghui Ge,  A. Ghysels,  
 J. Gomes,  J. Gonthier,  A. Gunina,  M. W. D. Hanson-Heine,  
 P. H. P. Harbach,  A. W. Hauser,  J. E. Herr,  E. G. Hohenstein,  
 Z. C. Holden,  Kerwin Hui,  T.-C. Jagau,  Hyunjun Ji,  B. Kaduk,  
 K. Khistyaev,  Jaehoon Kim,  P. Klunzinger,  K. Koh,  D. Kosenkov,  
 T. Kowalczyk,  C. M. Krauter,  A. Kunitsa,  Ka Un Lao,  A. Laurent,  
 K. V. Lawler,  Joonho Lee,  D. Lefrancois,  S. Lehtola,  D. S. Levine,  
 Yi-Pei Li,  You-Sheng Lin,  Fenglai Liu,  E. Livshits,  A. Luenser,  
 P. Manohar,  E. Mansoor,  S. F. Manzer,  Shan-Ping Mao,  Yuezhi Mao,  
 N. Mardirossian,  A. V. Marenich,  L. A. Martinez-Martinez,  S. A. Maurer,  
 N. J. Mayhall,  S. C. McKenzie,  J.-M. Mewes,  A. F. Morrison,  K. Nanda,  
 T. S. Nguyen-Beck,  R. Olivares-Amaya,  J. A. Parkhill,  T. M. Perrine,  
 F. Plasser,  S. Prager,  A. Prociuk,  D. R. Rehn,  F. Rob,  M. Schneider,  
 N. Sergueev,  S. M. Sharada,  S. Sharma,  D. W. Small,  T. Stauch,  
 T. Stein,  Yu-Chuan Su,  A. J. W. Thom,  T. Tsuchimochi,  L. Vogt,  
 O. Vydrov,  M. A. Watson,  J. Wenzel,  M. de Wergifosse,  T. A. Wesolowski,  
 A. White,  J. Witte,  A. Yamada,  Jun Yang,  K. Yao,  S. Yeganeh,  
 S. R. Yost,  Zhi-Qiang You,  A. Zech,  Igor Ying Zhang,  Xing Zhang,  
 Yan Zhao,  Ying Zhu,  B. R. Brooks,  G. K. L. Chan,  C. J. Cramer,  
 M. S. Gordon,  W. J. Hehre,  A. Klamt,  M. W. Schmidt,  C. D. Sherrill,  
 D. G. Truhlar,  A. Aspuru-Guzik,  R. Baer,  A. T. Bell,  N. A. Besley,  
 Jeng-Da Chai,  A. Dreuw,  B. D. Dunietz,  T. R. Furlani,  Chao-Ping Hsu,  
 Yousung Jung,  Jing Kong,  D. S. Lambrecht,  WanZhen Liang,  C. Ochsenfeld,  
 V. A. Rassolov,  L. V. Slipchenko,  J. E. Subotnik,  T. Van Voorhis,  
 J. M. Herbert,  A. I. Krylov,  P. M. W. Gill,  M. Head-Gordon

 Contributors to earlier versions of Q-Chem not listed above: 
 R. D. Adamson,  B. Austin,  J. Baker,  G. J. O. Beran,  K. Brandhorst,  
 S. T. Brown,  E. F. C. Byrd,  A. K. Chakraborty,  C.-L. Cheng,  
 Siu Hung Chien,  D. M. Chipman,  D. L. Crittenden,  H. Dachsel,  
 R. A. DiStasio Jr.,  R. J. Doerksen,  A. D. Dutoi,  L. Fusti-Molnar,  
 W. A. Goddard III,  A. Golubeva-Zadorozhnaya,  S. R. Gwaltney,  G. Hawkins,  
 A. Heyden,  S. Hirata,  G. Kedziora,  F. J. Keil,  C. Kelley,  Jihan Kim,  
 R. A. King,  R. Z. Khaliullin,  P. P. Korambath,  W. Kurlancheek,  
 A. M. Lee,  M. S. Lee,  S. V. Levchenko,  Ching Yeh Lin,  D. Liotard,  
 R. C. Lochan,  I. Lotan,  P. E. Maslen,  N. Nair,  D. P. O'Neill,  
 D. Neuhauser,  E. Neuscamman,  C. M. Oana,  R. Olson,  B. Peters,  
 R. Peverati,  P. A. Pieniazek,  Y. M. Rhee,  J. Ritchie,  M. A. Rohrdanz,  
 E. Rosta,  N. J. Russ,  H. F. Schaefer III,  N. E. Schultz,  N. Shenvi,  
 A. C. Simmonett,  A. Sodt,  D. Stuck,  K. S. Thanthiriwatte,  V. Vanovschi,  
 Tao Wang,  A. Warshel,  C. F. Williams,  Q. Wu,  X. Xu,  W. Zhang

 Please cite Q-Chem as follows:
 Y. Shao et al., Mol. Phys. 113, 184-215 (2015)
 DOI: 10.1080/00268976.2014.952696

 Q-Chem 5.0.1 for Intel X86 EM64T Linux

 Parts of Q-Chem use Armadillo 5.200.1 (Boston Tea Smuggler).
 http://arma.sourceforge.net/

 Q-Chem begins on Sun Jan 14 02:16:40 2018  

Host: vega02.cac.cornell.edu
0

     Scratch files written to /scratch/jj585/SOT1001/0280r.save//
 Parallel job on  1  processors

Checking the input file for inconsistencies... 	...done.

--------------------------------------------------------------
User input:
--------------------------------------------------------------
$molecule
0  1
O -6.0573249931 0.1133920961 0.314576289
C -4.916573636 0.1571752719 -0.1923741529
C -3.9383072807 -1.0473824781 -0.421842655
C -2.3950078576 -0.6876096252 -0.4253965351
C -2.075470164 0.7867650177 0.0055264485
O -1.4425789337 1.4447539461 -1.1043822895
C -1.0212120384 2.810096836 -0.7110338795
C 0.5203836265 2.9206908461 -0.9468091347
O 1.204160752 2.1942393918 0.1535174843
C 1.9811575604 1.1135929237 -0.3651022396
C 2.6853119587 0.3956080652 0.8330805189
C 3.6232451411 -0.7988634797 0.3855764266
C 3.6410224246 -1.0670700753 -1.1648852371
O 4.4920079098 -0.6833899644 -1.9945251774
O -4.3417834903 1.3349988679 -0.7710991256
O 2.542000189 -1.9417528345 -1.466999808
O 2.0634740277 0.8244359503 -1.5809866491
C 2.451729572 -2.1419208908 -2.9298788575
C 3.7346976236 1.3554888458 1.5442594166
C 4.136469607 0.7157988155 2.93091102
C 5.0862313609 -0.449207188 2.4648401053
C 5.0321474327 -0.2764055067 0.896199062
O 4.9476920873 1.1923483792 0.713106265
H 1.9058217646 0.0605802318 1.5419445006
H 3.3261968904 -1.7338460068 0.8924461022
H 3.4196612504 2.4163681806 1.5827214989
H 4.6713842336 1.4509092617 3.5528729608
H 3.258730741 0.3530413858 3.4895421571
H 6.1141655438 -0.3032558417 2.8329516421
H 4.7326170996 -1.4420602244 2.785912355
H 5.8965625548 -0.6830334119 0.3366627424
O -2.2220029954 1.3024246514 1.1357379571
C -5.2123767498 2.5077188477 -0.5311984974
C -4.0106455179 -2.1130793963 0.7526892652
C -3.4558780015 -3.4841078843 0.2013600335
C -1.9166761199 -3.1669278256 0.1067558462
C -1.8683920175 -1.6968391588 0.6846202503
O -2.9539174812 -1.6721829533 1.6916162501
H -4.220589879 -1.513080812 -1.3851656743
H -1.9373628118 -0.8685673922 -1.4133114567
H -5.2809866436 2.7428293213 0.5506137143
H -4.994691263 -2.1569001616 1.2591914019
H -3.6564962496 -4.2950773168 0.9194526852
H -3.8986009247 -3.7539883454 -0.7704887381
H -1.3219292578 -3.8485852593 0.7352533455
H -1.5354464778 -3.2163664153 -0.9258885049
H -0.9057758269 -1.4037629379 1.1464244985
H -6.2358095085 2.3416961188 -0.9245655648
H -4.7392061104 3.3528511821 -1.064019972
H 1.6300442126 -2.8635232576 -3.0928770871
H 3.3941137541 -2.5502106351 -3.3488274056
H 2.2181028643 -1.1892117759 -3.4483547346
H 0.8098354173 2.4616104723 -1.9169816262
H 0.8428375906 3.983086644 -0.9137155031
H -1.2793695355 2.9659017543 0.3600311827
H -1.5594174553 3.5480634565 -1.3437053559
$end

$rem
JOBTYPE                   OPT
METHOD                    B3LYP
DFT_D                     d3_op
BASIS                     STO-3G
GEOM_OPT_MAX_CYCLES       100
GEOM_OPT_TOL_GRADIENT     300
GEOM_OPT_TOL_DISPLACEMENT 1200
GEOM_OPT_TOL_ENERGY       100
SYMMETRY                  False
THRESH                    12
SCF_CONVERGENCE           8
MAX_SUB_FILE_NUM          128
MEM_STATIC                400
MEM_TOTAL                 4000
$end
--------------------------------------------------------------
 Adding empirical dispersion correction 
 ----------------------------------------------------------------
 Doing -D3(op) with
 s6 =   1.00000
 s8 =   0.78311
 a1 =   0.30000
 a2 =   4.25000
 n  =  10.00000
 -D3 energy without 3body term =     -0.0664985873 hartrees
 ----------------------------------------------------------------
             Standard Nuclear Orientation (Angstroms)
    I     Atom           X                Y                Z
 ----------------------------------------------------------------
    1      O      -6.0327050284     0.2563568827     0.5453174060
    2      C      -4.9110222427     0.2554233125    -0.0042790209
    3      C      -3.9682015686    -0.9788205875    -0.2241685396
    4      C      -2.4187193844    -0.6548804471    -0.2975850985
    5      C      -2.0515999185     0.8265522425     0.0659531071
    6      O      -1.4466072225     1.4288476973    -1.0901706618
    7      C      -0.9815074552     2.7976428835    -0.7638024900
    8      C       0.5522225643     2.8641855883    -1.0597458900
    9      O       1.2608385986     2.1629670195     0.0412342986
   10      C       1.9944389012     1.0465605160    -0.4646850253
   11      C       2.7272535301     0.3569111598     0.7329560234
   12      C       3.6218457975    -0.8743026981     0.2964265855
   13      C       3.5758708459    -1.1993496781    -1.2425383085
   14      O       4.4033199934    -0.8658593916    -2.1164955678
   15      O      -4.3330189575     1.3978201696    -0.6472536331
   16      O       2.4477304095    -2.0590764967    -1.4713656903
   17      O       2.0249980247     0.7113353149    -1.6711065345
   18      C       2.2985481748    -2.3104702709    -2.9214611974
   19      C       3.8229303357     1.3178490082     1.3689179722
   20      C       4.2623762685     0.7202414145     2.7628975871
   21      C       5.1687270235    -0.4824841957     2.3062928450
   22      C       5.0597815829    -0.3659513799     0.7353150575
   23      O       5.0002112710     1.0966765013     0.5006563389
   24      H       1.9677669184     0.0659739821     1.4818701719
   25      H       3.3238728340    -1.7830765747     0.8484130089
   26      H       3.5324860741     2.3863661499     1.3791873427
   27      H       4.8358826096     1.4651467186     3.3369744517
   28      H       3.3985192449     0.3983597183     3.3664126520
   29      H       6.2126090367    -0.3467682455     2.6308665759
   30      H       4.8060485827    -1.4545708663     2.6769671503
   31      H       5.8937138489    -0.8124662470     0.1601436928
   32      O      -2.1446371117     1.3864087229     1.1806995288
   33      C      -5.1685629304     2.5981697938    -0.4196923557
   34      C      -4.0195334297    -1.9989279719     0.9912383626
   35      C      -3.5154356271    -3.4015490590     0.4716332000
   36      C      -1.9743684552    -3.1233968182     0.3090328408
   37      C      -1.8728496847    -1.6346578273     0.8293879777
   38      O      -2.9191915568    -1.5483332396     1.8737687305
   39      H      -4.2962655803    -1.4728339347    -1.1584460465
   40      H      -2.0023281351    -0.8822743442    -1.2941145446
   41      H      -5.1916045015     2.8741832186     0.6543595932
   42      H      -4.9846741021    -2.0016395620     1.5346597757
   43      H      -3.7065005251    -4.1809131926     1.2263927050
   44      H      -3.9998895411    -3.6965617826    -0.4726130513
   45      H      -1.3713714159    -3.7950722084     0.9404095384
   46      H      -1.6331593047    -3.2192780591    -0.7342876629
   47      H      -0.8875522019    -1.3470318516     1.2444144031
   48      H      -6.2093242807     2.4413746867    -0.7689013388
   49      H      -4.6975378597     3.4121922023    -1.0006749214
   50      H       1.4559852472    -3.0185290749    -3.0272235328
   51      H       3.2155962345    -2.7552925463    -3.3590253040
   52      H       2.0662885218    -1.3722491646    -3.4663005688
   53      H       0.7952470966     2.3634312157    -2.0220119276
   54      H       0.8985069876     3.9194121762    -1.0781992112
   55      H      -1.1960308075     2.9983755639     0.3094108885
   56      H      -1.5269583118     3.5241266671    -1.4035193618
 ----------------------------------------------------------------
 Molecular Point Group                 C1    NOp =  1
 Largest Abelian Subgroup              C1    NOp =  1
 Nuclear Repulsion Energy =  3176.9682479870 hartrees
 There are      113 alpha and      113 beta electrons
 Requested basis set is STO-3G
 There are 86 shells and 176 basis functions

 Total QAlloc Memory Limit   4000 MB
 Mega-Array Size       392 MB
 MEM_STATIC part       400 MB
 A cutoff of  1.0D-12 yielded   2279 shell pairs
 There are     10796 function pairs
 
 -------------------------------------------------------
 OpenMP Integral Computing Module                       
 Release: version 1.0, May 2013, Q-Chem Inc. Pittsburgh 
 -------------------------------------------------------
 Integral Job Info:
 Integral job number is                      11
 Integral operator is                         1
 short-range coefficients                     0
 long-range coefficients              100000000
 Omega coefficients                           0
 if combine SR and LR in K                    0
 Integral screening is                        0
 Integral computing path is                   2
 max size of driver memory is            800000
 size of driver memory is                 45569
 size of scratch memory is              1046100
 max col of scratch BK array                289
 max len of scratch array in speh3           22
 max len of scratch index in speh4            8
 max int batch size is                      520
 min int batch size is                       52
 fixed nKL is                                52
 max L of basis functions is                  1
 order of int derivative is                   0
 number of shells is                         86
 number of basis is                         176
 number of cartesian basis is               176
 number of contracted shell pairs          2279
 number of primitive shell pairs          11187
 maxK2 (contraction) of shell pair            9
 max number of K2 of shell pair               1
 max number of CS2 of shell pair            354
 max number of PS2 of shell pair           1182
 mem total for path MDJ                   49782
 -------------------------------------------------------
 Smallest overlap matrix eigenvalue = 2.13E-01

 Scale SEOQF with 1.000000e-02/1.000000e-01/1.000000e-01

 Standard Electronic Orientation quadrupole field applied
 Nucleus-field energy     =     0.0000000171 hartrees
 Guess from superposition of atomic densities
 Warning:  Energy on first SCF cycle will be non-variational
 A restricted hybrid HF-DFT SCF calculation will be
 performed using Pulay DIIS extrapolation
 Exchange:     0.2000 Hartree-Fock + 0.0800 Slater + 0.7200 B88
 Correlation:  0.1900 VWN1RPA + 0.8100 LYP
 Using SG-1 standard quadrature grid
 Dispersion:   Grimme D3
 SCF converges when DIIS error is below 1.0E-08
 using 48 threads for integral computing
 -------------------------------------------------------
 OpenMP Integral computing Module                
 Release: version 1.0, May 2013, Q-Chem Inc. Pittsburgh 
 -------------------------------------------------------
 -------------------------------------------------------
 OpenMP BLAS3 based DFT computing Module                
 Release: version 1.0, May 2013, Q-Chem Inc. Pittsburgh 
 -------------------------------------------------------
 ---------------------------------------
  Cycle       Energy         DIIS Error
 ---------------------------------------
    1   -1507.6448685524      7.47E-02
    2   -1509.7475041248      1.04E-02
    3   -1507.4207019965      2.70E-02
    4   -1510.1956197407      4.47E-03
    5   -1510.2780545949      1.42E-03
    6   -1510.2864531490      4.06E-04
    7   -1510.2870715321      1.63E-04
    8   -1510.2871832118      3.34E-05
    9   -1510.2871878381      1.11E-05
   10   -1510.2871882861      5.27E-06
   11   -1510.2871884007      1.49E-06
   12   -1510.2871884106      2.74E-07
   13   -1510.2871884109      1.11E-07
   14   -1510.2871884109      5.63E-08
   15   -1510.2871884108      1.56E-08
   16   -1510.2871884110      5.54E-09 Convergence criterion met
 ---------------------------------------
 SCF time:  CPU 123.26 s  wall 2.62 s
 SCF   energy in the final basis set = -1510.28718841
 Total energy in the final basis set = -1510.28718841
 
 --------------------------------------------------------------
 
                    Orbital Energies (a.u.)
 --------------------------------------------------------------
 
 Alpha MOs
 -- Occupied --
-18.943 -18.939 -18.927 -18.918 -18.888 -18.887 -18.886 -18.882
-18.867 -18.860 -10.107 -10.105 -10.097 -10.089 -10.072 -10.070
-10.067 -10.061 -10.060 -10.060 -10.056 -10.054 -10.041 -10.041
-10.037 -10.032 -10.021 -10.020 -10.020 -10.018  -1.021  -1.018
 -1.005  -0.996  -0.971  -0.969  -0.945  -0.942  -0.930  -0.923
 -0.765  -0.762  -0.728  -0.723  -0.714  -0.705  -0.696  -0.666
 -0.654  -0.619  -0.598  -0.577  -0.547  -0.544  -0.538  -0.536
 -0.512  -0.512  -0.488  -0.476  -0.462  -0.454  -0.453  -0.450
 -0.432  -0.431  -0.425  -0.418  -0.415  -0.413  -0.404  -0.402
 -0.401  -0.384  -0.372  -0.366  -0.362  -0.355  -0.352  -0.350
 -0.344  -0.339  -0.334  -0.332  -0.331  -0.326  -0.324  -0.313
 -0.312  -0.306  -0.306  -0.301  -0.296  -0.290  -0.275  -0.274
 -0.272  -0.254  -0.253  -0.244  -0.243  -0.235  -0.233  -0.189
 -0.182  -0.166  -0.163  -0.163  -0.161  -0.151  -0.144  -0.144
 -0.140
 -- Virtual --
  0.092   0.093   0.110   0.115   0.226   0.234   0.245   0.256
  0.257   0.272   0.282   0.286   0.303   0.310   0.327   0.330
  0.333   0.340   0.343   0.348   0.354   0.356   0.370   0.374
  0.382   0.384   0.390   0.400   0.406   0.407   0.408   0.412
  0.416   0.418   0.419   0.421   0.423   0.427   0.427   0.432
  0.434   0.434   0.437   0.440   0.441   0.444   0.451   0.460
  0.466   0.468   0.480   0.488   0.488   0.505   0.508   0.540
  0.542   0.551   0.553   0.636   0.637   0.653   0.660
 --------------------------------------------------------------
 
          Ground-State Mulliken Net Atomic Charges

     Atom                 Charge (a.u.)
  ----------------------------------------
      1 O                    -0.209551
      2 C                     0.213897
      3 C                    -0.078790
      4 C                    -0.078831
      5 C                     0.216623
      6 O                    -0.174904
      7 C                    -0.056280
      8 C                    -0.055125
      9 O                    -0.173113
     10 C                     0.215798
     11 C                    -0.077578
     12 C                    -0.081896
     13 C                     0.215379
     14 O                    -0.215829
     15 O                    -0.168217
     16 O                    -0.176920
     17 O                    -0.207517
     18 C                    -0.128624
     19 C                     0.025255
     20 C                    -0.143777
     21 C                    -0.144110
     22 C                     0.025157
     23 O                    -0.188805
     24 H                     0.086990
     25 H                     0.083262
     26 H                     0.086639
     27 H                     0.078420
     28 H                     0.074370
     29 H                     0.077968
     30 H                     0.073232
     31 H                     0.087948
     32 O                    -0.220567
     33 C                    -0.127359
     34 C                     0.024435
     35 C                    -0.143341
     36 C                    -0.144228
     37 C                     0.026654
     38 O                    -0.187007
     39 H                     0.085665
     40 H                     0.087761
     41 H                     0.093164
     42 H                     0.090117
     43 H                     0.078482
     44 H                     0.073264
     45 H                     0.078344
     46 H                     0.074655
     47 H                     0.082090
     48 H                     0.092254
     49 H                     0.090859
     50 H                     0.083798
     51 H                     0.086913
     52 H                     0.092256
     53 H                     0.106404
     54 H                     0.086526
     55 H                     0.105307
     56 H                     0.082481
  ----------------------------------------
  Sum of atomic charges =    -0.000000

 -----------------------------------------------------------------
                    Cartesian Multipole Moments
 -----------------------------------------------------------------
    Charge (ESU x 10^10)
                -0.0000
    Dipole Moment (Debye)
         X      -1.1951      Y      -0.4146      Z      -0.4633
       Tot       1.3471
    Quadrupole Moments (Debye-Ang)
        XX    -173.2186     XY      -5.5800     YY    -144.8186
        XZ      19.6071     YZ      -0.5980     ZZ    -163.1438
    Octopole Moments (Debye-Ang^2)
       XXX     -28.8184    XXY      -6.2547    XYY     -33.9228
       YYY      46.6500    XXZ       9.6335    XYZ       5.0647
       YYZ     -23.8946    XZZ       7.4170    YZZ      -0.8280
       ZZZ     -22.9150
    Hexadecapole Moments (Debye-Ang^3)
      XXXX  -12656.9238   XXXY    -291.0772   XXYY   -2362.6767
      XYYY     -86.4100   YYYY   -3031.4616   XXXZ     339.8092
      XXYZ      -6.3262   XYYZ     -33.7993   YYYZ     -32.1301
      XXZZ   -2353.9523   XYZZ     -19.3821   YYZZ    -792.1194
      XZZZ     -44.4958   YZZZ      47.6791   ZZZZ   -1830.7002
 -----------------------------------------------------------------
 Calculating analytic gradient of the SCF energy
 Gradient of SCF Energy
            1           2           3           4           5           6
    1  -0.0013968   0.0019842  -0.0004880   0.0000658  -0.0018087   0.0019685
    2  -0.0005747   0.0009339  -0.0005563   0.0001277   0.0006794  -0.0003781
    3  -0.0026782   0.0031172   0.0016720  -0.0017364  -0.0007573  -0.0011321
            7           8           9          10          11          12
    1   0.0004339   0.0006888  -0.0026178   0.0006527   0.0011915  -0.0013061
    2   0.0010846  -0.0018558  -0.0004039   0.0003213   0.0008828  -0.0000140
    3   0.0050115  -0.0045399   0.0014373  -0.0001501  -0.0000875  -0.0000956
           13          14          15          16          17          18
    1   0.0014664  -0.0007524  -0.0000244   0.0000635  -0.0000413  -0.0000362
    2  -0.0014247   0.0011537  -0.0000487  -0.0000091   0.0000997  -0.0000381
    3   0.0004580  -0.0003892  -0.0001118   0.0000272   0.0000408  -0.0000164
           19          20          21          22          23          24
    1  -0.0000832   0.0001914  -0.0000276   0.0000442   0.0000470  -0.0000140
    2   0.0000418  -0.0000277  -0.0000057  -0.0001313   0.0001641  -0.0000984
    3  -0.0001251  -0.0000796   0.0000755   0.0001021  -0.0001041  -0.0000010
           25          26          27          28          29          30
    1   0.0001249  -0.0000089  -0.0000465  -0.0000188  -0.0000214  -0.0001241
    2   0.0000517   0.0000020   0.0000011   0.0000403   0.0000264  -0.0000018
    3   0.0001037   0.0000139   0.0000574   0.0000733  -0.0000725  -0.0000682
           31          32          33          34          35          36
    1   0.0000034   0.0001132  -0.0000099   0.0000153   0.0000604   0.0001302
    2  -0.0000027   0.0001819   0.0000354   0.0002794  -0.0001413   0.0000453
    3  -0.0000003   0.0000624   0.0000417   0.0001045   0.0000986  -0.0000397
           37          38          39          40          41          42
    1  -0.0000196  -0.0000718  -0.0000648  -0.0000258  -0.0000345  -0.0000131
    2  -0.0000798  -0.0000729  -0.0000072  -0.0000694  -0.0000380   0.0000037
    3   0.0000392  -0.0000925  -0.0001189  -0.0000278   0.0000081   0.0000152
           43          44          45          46          47          48
    1  -0.0000106   0.0000075   0.0000077  -0.0000984  -0.0000116  -0.0000098
    2  -0.0000000  -0.0000490   0.0000070  -0.0000082  -0.0000003   0.0000035
    3   0.0000022  -0.0000050  -0.0000285  -0.0000505  -0.0000494  -0.0000057
           49          50          51          52          53          54
    1   0.0000174   0.0000138  -0.0000008  -0.0000089   0.0000122  -0.0000113
    2   0.0000146   0.0000263   0.0000347  -0.0000143   0.0000070  -0.0000029
    3  -0.0000000  -0.0000303   0.0000214  -0.0000223   0.0000498  -0.0000105
           55          56
    1  -0.0001000   0.0000035
    2  -0.0002171   0.0000224
    3  -0.0000362   0.0000295
 Max gradient component =       5.011E-03
 RMS gradient           =       8.149E-04
 Gradient time:  CPU 33.50 s  wall 0.73 s
 Geometry Optimization Parameters
   NAtoms,    NIC,     NZ,  NCons,   NDum,   NFix, NCnnct, MaxDiis
       56     458       0       0       0       0       0       0


** GEOMETRY OPTIMIZATION IN DELOCALIZED INTERNAL COORDINATES **
   Searching for a Minimum

   Optimization Cycle:   1

                       Coordinates (Angstroms)
     ATOM                X               Y               Z
      1  O        -6.0327050284    0.2563568827    0.5453174060
      2  C        -4.9110222427    0.2554233125   -0.0042790209
      3  C        -3.9682015686   -0.9788205875   -0.2241685396
      4  C        -2.4187193844   -0.6548804471   -0.2975850985
      5  C        -2.0515999185    0.8265522425    0.0659531071
      6  O        -1.4466072225    1.4288476973   -1.0901706618
      7  C        -0.9815074552    2.7976428835   -0.7638024900
      8  C         0.5522225643    2.8641855883   -1.0597458900
      9  O         1.2608385986    2.1629670195    0.0412342986
     10  C         1.9944389012    1.0465605160   -0.4646850253
     11  C         2.7272535301    0.3569111598    0.7329560234
     12  C         3.6218457975   -0.8743026981    0.2964265855
     13  C         3.5758708459   -1.1993496781   -1.2425383085
     14  O         4.4033199934   -0.8658593916   -2.1164955678
     15  O        -4.3330189575    1.3978201696   -0.6472536331
     16  O         2.4477304095   -2.0590764967   -1.4713656903
     17  O         2.0249980247    0.7113353149   -1.6711065345
     18  C         2.2985481748   -2.3104702709   -2.9214611974
     19  C         3.8229303357    1.3178490082    1.3689179722
     20  C         4.2623762685    0.7202414145    2.7628975871
     21  C         5.1687270235   -0.4824841957    2.3062928450
     22  C         5.0597815829   -0.3659513799    0.7353150575
     23  O         5.0002112710    1.0966765013    0.5006563389
     24  H         1.9677669184    0.0659739821    1.4818701719
     25  H         3.3238728340   -1.7830765747    0.8484130089
     26  H         3.5324860741    2.3863661499    1.3791873427
     27  H         4.8358826096    1.4651467186    3.3369744517
     28  H         3.3985192449    0.3983597183    3.3664126520
     29  H         6.2126090367   -0.3467682455    2.6308665759
     30  H         4.8060485827   -1.4545708663    2.6769671503
     31  H         5.8937138489   -0.8124662470    0.1601436928
     32  O        -2.1446371117    1.3864087229    1.1806995288
     33  C        -5.1685629304    2.5981697938   -0.4196923557
     34  C        -4.0195334297   -1.9989279719    0.9912383626
     35  C        -3.5154356271   -3.4015490590    0.4716332000
     36  C        -1.9743684552   -3.1233968182    0.3090328408
     37  C        -1.8728496847   -1.6346578273    0.8293879777
     38  O        -2.9191915568   -1.5483332396    1.8737687305
     39  H        -4.2962655803   -1.4728339347   -1.1584460465
     40  H        -2.0023281351   -0.8822743442   -1.2941145446
     41  H        -5.1916045015    2.8741832186    0.6543595932
     42  H        -4.9846741021   -2.0016395620    1.5346597757
     43  H        -3.7065005251   -4.1809131926    1.2263927050
     44  H        -3.9998895411   -3.6965617826   -0.4726130513
     45  H        -1.3713714159   -3.7950722084    0.9404095384
     46  H        -1.6331593047   -3.2192780591   -0.7342876629
     47  H        -0.8875522019   -1.3470318516    1.2444144031
     48  H        -6.2093242807    2.4413746867   -0.7689013388
     49  H        -4.6975378597    3.4121922023   -1.0006749214
     50  H         1.4559852472   -3.0185290749   -3.0272235328
     51  H         3.2155962345   -2.7552925463   -3.3590253040
     52  H         2.0662885218   -1.3722491646   -3.4663005688
     53  H         0.7952470966    2.3634312157   -2.0220119276
     54  H         0.8985069876    3.9194121762   -1.0781992112
     55  H        -1.1960308075    2.9983755639    0.3094108885
     56  H        -1.5269583118    3.5241266671   -1.4035193618
   Point Group: c1    Number of degrees of freedom:   162


   Energy is  -1510.287188411


 Attempting to Generate Delocalized Internal Coordinates

162 Hessian modes will be used to form the next step
  Hessian Eigenvalues:
     0.002000    0.002000    0.002000    0.002000    0.002000    0.002681
     0.002696    0.004305    0.004325    0.004367    0.004384    0.004473
     0.004793    0.005047    0.005160    0.006807    0.006807    0.010731
     0.010787    0.011322    0.011881    0.021719    0.021752    0.026115
     0.026290    0.030827    0.030893    0.035383    0.035449    0.040637
     0.041480    0.041694    0.041969    0.045447    0.046379    0.047093
     0.047258    0.051134    0.051288    0.051614    0.051741    0.053690
     0.053706    0.054489    0.054670    0.055166    0.055435    0.055641
     0.055723    0.058728    0.058808    0.060460    0.060489    0.063703
     0.063932    0.064052    0.064206    0.069749    0.069857    0.072849
     0.072923    0.092429    0.092515    0.092756    0.093039    0.095801
     0.095858    0.097058    0.097095    0.102627    0.102839    0.109711
     0.109785    0.110220    0.110603    0.121156    0.121310    0.134755
     0.134783    0.157594    0.157826    0.160000    0.160000    0.160000
     0.160000    0.160000    0.160000    0.163269    0.163459    0.219437
     0.219700    0.220388    0.220481    0.228265    0.228831    0.238380
     0.238729    0.239610    0.239794    0.246158    0.246474    0.249107
     0.249317    0.249405    0.249998    0.250000    0.250000    0.250000
     0.250000    0.250000    0.250000    0.250000    0.250000    0.253269
     0.253543    0.257391    0.261015    0.261256    0.264718    0.265396
     0.292502    0.292749    0.307327    0.307429    0.323158    0.324257
     0.324843    0.325212    0.326500    0.326857    0.326860    0.327140
     0.328539    0.328837    0.329034    0.329104    0.329633    0.330658
     0.330711    0.330857    0.332175    0.332759    0.334753    0.334777
     0.334876    0.335031    0.335091    0.335124    0.335140    0.335154
     0.339741    0.343374    0.345558    0.346536    0.399790    0.400374
     0.406065    0.412119    0.823190    0.829046    0.835734    0.836538

 Minimum Search - Taking Simple RFO Step
 Searching for Lamda that Minimizes Along All modes
 Value Taken    Lamda =  -0.00467932
 Calculated Step too Large.  Step scaled by  0.418228
 Step Taken.  Stepsize is  0.300000

                             Maximum     Tolerance    Cnvgd?
         Gradient           0.003646      0.000300      NO
         Displacement       0.121520      0.001200      NO
         Energy change     *********      0.000001      NO


 New Cartesian Coordinates Obtained by Inverse Iteration

 Displacement from previous Coordinates is:  3.810349
 Adding empirical dispersion correction 
 ----------------------------------------------------------------
 Doing -D3(op) with
 s6 =   1.00000
 s8 =   0.78311
 a1 =   0.30000
 a2 =   4.25000
 n  =  10.00000
 -D3 energy without 3body term =     -0.0680736549 hartrees
 ----------------------------------------------------------------
             Standard Nuclear Orientation (Angstroms)
    I     Atom           X                Y                Z
 ----------------------------------------------------------------
    1      O      -5.7957717323     0.1539655721     0.7143693391
    2      C      -4.7456620710     0.1825115024     0.0386208315
    3      C      -3.7535871212    -1.0051572807    -0.2179702106
    4      C      -2.2259682957    -0.6053431677    -0.3537280300
    5      C      -1.9190284533     0.8951254845    -0.0135900193
    6      O      -1.3871335864     1.5156764943    -1.1957673130
    7      C      -0.9713350134     2.9065151345    -0.8971447470
    8      C       0.5700205955     3.0058737794    -1.1396233566
    9      O       1.2544588103     2.3096491222    -0.0203417540
   10      C       1.9308095345     1.1438251559    -0.4935922142
   11      C       2.5663417164     0.4121750855     0.7343222990
   12      C       3.3469882814    -0.9083592782     0.3431319145
   13      C       3.3035297865    -1.2605556253    -1.1899437010
   14      O       4.1973224016    -1.0668575215    -2.0403865341
   15      O      -4.2714945678     1.3404886134    -0.6590967676
   16      O       2.0924615893    -1.9948118446    -1.4316172674
   17      O       1.9467213857     0.7755466177    -1.6906411271
   18      C       1.9615897542    -2.2787050901    -2.8774493351
   19      C       3.7352508847     1.2751996051     1.3801926056
   20      C       4.0817739702     0.6662864578     2.7953035864
   21      C       4.8782255018    -0.6271670958     2.3836071274
   22      C       4.8171500482    -0.5333171162     0.8084932041
   23      O       4.9053919050     0.9231009303     0.5460410607
   24      H       1.7651452955     0.2109875445     1.4690945236
   25      H       2.9472235772    -1.7714393602     0.9040747196
   26      H       3.5501041049     2.3668235534     1.3638128774
   27      H       4.7111318428     1.3640148015     3.3701378204
   28      H       3.1768833984     0.4413393202     3.3823218902
   29      H       5.9225607802    -0.5855715891     2.7316694870
   30      H       4.4152981672    -1.5520851948     2.7631796841
   31      H       5.6167066768    -1.0701485450     0.2624547271
   32      O      -1.9962502073     1.4582962513     1.1006565635
   33      C      -5.1290153313     2.5102438462    -0.3641346544
   34      C      -3.7042186762    -2.0174005738     1.0043682340
   35      C      -3.1512283901    -3.3967039927     0.4725501934
   36      C      -1.6334154956    -3.0435138797     0.2491469377
   37      C      -1.5870475772    -1.5475076321     0.7561894064
   38      O      -2.5944639430    -1.5055608330     1.8405067176
   39      H      -4.0965850240    -1.5228695567    -1.1337724209
   40      H      -1.8378751322    -0.8190124484    -1.3645912894
   41      H      -5.0655359681     2.7956598934     0.7058261666
   42      H      -4.6457435639    -2.0646869899     1.5858124477
   43      H      -3.2738588148    -4.1792768882     1.2381338668
   44      H      -3.6564285837    -3.7219690218    -0.4506395166
   45      H      -0.9738902770    -3.6792524814     0.8609325170
   46      H      -1.3275705689    -3.1303819862    -0.8058508140
   47      H      -0.6020757585    -1.2073835077     1.1303262372
   48      H      -6.1901946688     2.3105172759    -0.6165444044
   49      H      -4.7444080847     3.3359339262    -0.9904848660
   50      H       1.0471617253    -2.8898437072    -2.9906365868
   51      H       2.8349495409    -2.8399959715    -3.2680064453
   52      H       1.8557961057    -1.3399778090    -3.4593899657
   53      H       0.8501217326     2.5064790450    -2.0925056561
   54      H       0.9007560351     4.0661862991    -1.1503949901
   55      H      -1.2223328318     3.1260493149     0.1644529590
   56      H      -1.5172959919     3.6026581725    -1.5693436307
 ----------------------------------------------------------------
 Molecular Point Group                 C1    NOp =  1
 Largest Abelian Subgroup              C1    NOp =  1
 Nuclear Repulsion Energy =  3222.7556991765 hartrees
 There are      113 alpha and      113 beta electrons
 Applying Cartesian multipole field
    Component          Value
    ---------          -----
     (2,0,0)        1.00000E-12
     (0,2,0)        2.00000E-11
     (0,0,2)       -3.00000E-11
 Nucleus-field energy     =     0.0000000165 hartrees
 Requested basis set is STO-3G
 There are 86 shells and 176 basis functions
 A cutoff of  1.0D-12 yielded   2388 shell pairs
 There are     11406 function pairs
 Smallest overlap matrix eigenvalue = 2.13E-01
 Guess MOs from SCF MO coefficient file
 Reading MOs from coefficient file
 Reading MOs from coefficient file
 A restricted hybrid HF-DFT SCF calculation will be
 performed using Pulay DIIS extrapolation
 Exchange:     0.2000 Hartree-Fock + 0.0800 Slater + 0.7200 B88
 Correlation:  0.1900 VWN1RPA + 0.8100 LYP
 Using SG-1 standard quadrature grid
 Dispersion:   Grimme D3
 SCF converges when DIIS error is below 1.0E-08
 Geometry optimization detected.  Setting ReadMinima to 0
 Setting SaveMinima to 0
 using 48 threads for integral computing
 -------------------------------------------------------
 OpenMP Integral computing Module                
 Release: version 1.0, May 2013, Q-Chem Inc. Pittsburgh 
 -------------------------------------------------------
 -------------------------------------------------------
 OpenMP BLAS3 based DFT computing Module                
 Release: version 1.0, May 2013, Q-Chem Inc. Pittsburgh 
 -------------------------------------------------------
 ---------------------------------------
  Cycle       Energy         DIIS Error
 ---------------------------------------
    1   -1510.1820380654      4.82E-03
    2   -1510.2873617565      3.87E-04
    3   -1510.2878250725      4.18E-04
    4   -1510.2884101624      2.17E-04
    5   -1510.2885834172      8.47E-05
    6   -1510.2886150343      2.04E-05
    7   -1510.2886167882      8.29E-06
    8   -1510.2886170428      3.59E-06
    9   -1510.2886171040      6.18E-07
   10   -1510.2886171060      3.41E-07
   11   -1510.2886171065      1.79E-07
   12   -1510.2886171066      4.69E-08
   13   -1510.2886171067      1.37E-08
   14   -1510.2886171067      4.89E-09 Convergence criterion met
 ---------------------------------------
 SCF time:  CPU 97.88 s  wall 2.05 s
 SCF   energy in the final basis set = -1510.28861711
 Total energy in the final basis set = -1510.28861711
 
 --------------------------------------------------------------
 
                    Orbital Energies (a.u.)
 --------------------------------------------------------------
 
 Alpha MOs
 -- Occupied --
-18.942 -18.940 -18.927 -18.919 -18.888 -18.888 -18.886 -18.882
-18.868 -18.860 -10.107 -10.105 -10.098 -10.090 -10.072 -10.069
-10.068 -10.061 -10.060 -10.059 -10.056 -10.054 -10.041 -10.040
-10.037 -10.032 -10.021 -10.020 -10.020 -10.018  -1.022  -1.018
 -1.005  -0.997  -0.971  -0.969  -0.945  -0.942  -0.931  -0.924
 -0.765  -0.762  -0.728  -0.723  -0.714  -0.705  -0.696  -0.666
 -0.655  -0.619  -0.598  -0.577  -0.547  -0.544  -0.538  -0.536
 -0.512  -0.512  -0.488  -0.476  -0.462  -0.455  -0.452  -0.450
 -0.432  -0.430  -0.426  -0.418  -0.415  -0.413  -0.404  -0.402
 -0.401  -0.384  -0.372  -0.366  -0.362  -0.355  -0.352  -0.350
 -0.344  -0.340  -0.334  -0.332  -0.331  -0.326  -0.324  -0.314
 -0.312  -0.306  -0.306  -0.301  -0.297  -0.290  -0.275  -0.273
 -0.273  -0.254  -0.254  -0.245  -0.244  -0.235  -0.233  -0.190
 -0.182  -0.166  -0.164  -0.163  -0.161  -0.151  -0.144  -0.144
 -0.141
 -- Virtual --
  0.092   0.093   0.110   0.115   0.227   0.233   0.245   0.256
  0.257   0.271   0.282   0.286   0.303   0.310   0.327   0.329
  0.333   0.340   0.343   0.347   0.354   0.356   0.370   0.374
  0.382   0.384   0.389   0.399   0.406   0.407   0.408   0.411
  0.416   0.418   0.420   0.421   0.423   0.427   0.427   0.431
  0.433   0.434   0.439   0.439   0.442   0.445   0.450   0.459
  0.468   0.468   0.479   0.488   0.489   0.505   0.508   0.540
  0.543   0.553   0.553   0.635   0.637   0.652   0.659
 --------------------------------------------------------------
 
          Ground-State Mulliken Net Atomic Charges

     Atom                 Charge (a.u.)
  ----------------------------------------
      1 O                    -0.209155
      2 C                     0.213605
      3 C                    -0.078927
      4 C                    -0.078498
      5 C                     0.215882
      6 O                    -0.174420
      7 C                    -0.056572
      8 C                    -0.055238
      9 O                    -0.172794
     10 C                     0.215828
     11 C                    -0.077702
     12 C                    -0.082017
     13 C                     0.215640
     14 O                    -0.216079
     15 O                    -0.168776
     16 O                    -0.177450
     17 O                    -0.207090
     18 C                    -0.128580
     19 C                     0.025355
     20 C                    -0.143814
     21 C                    -0.144077
     22 C                     0.025120
     23 O                    -0.188872
     24 H                     0.087262
     25 H                     0.083153
     26 H                     0.086439
     27 H                     0.078423
     28 H                     0.074695
     29 H                     0.078002
     30 H                     0.073251
     31 H                     0.088282
     32 O                    -0.220024
     33 C                    -0.127516
     34 C                     0.024357
     35 C                    -0.143526
     36 C                    -0.143664
     37 C                     0.027176
     38 O                    -0.187303
     39 H                     0.085223
     40 H                     0.088520
     41 H                     0.093260
     42 H                     0.090335
     43 H                     0.078318
     44 H                     0.073073
     45 H                     0.078372
     46 H                     0.075081
     47 H                     0.081481
     48 H                     0.092022
     49 H                     0.090782
     50 H                     0.083087
     51 H                     0.087068
     52 H                     0.092375
     53 H                     0.105697
     54 H                     0.086987
     55 H                     0.104633
     56 H                     0.083311
  ----------------------------------------
  Sum of atomic charges =    -0.000000

 -----------------------------------------------------------------
                    Cartesian Multipole Moments
 -----------------------------------------------------------------
    Charge (ESU x 10^10)
                -0.0000
    Dipole Moment (Debye)
         X      -1.3703      Y      -0.2138      Z      -0.5605
       Tot       1.4959
    Quadrupole Moments (Debye-Ang)
        XX    -172.8251     XY      -4.7658     YY    -144.3986
        XZ      19.0110     YZ      -1.2675     ZZ    -163.0326
    Octopole Moments (Debye-Ang^2)
       XXX     -50.0992    XXY       3.7442    XYY     -31.1228
       YYY      48.0789    XXZ       7.3369    XYZ       1.1169
       YYZ     -24.7003    XZZ       7.1721    YZZ       0.7559
       ZZZ     -21.7582
    Hexadecapole Moments (Debye-Ang^3)
      XXXX  -11394.4998   XXXY    -210.8692   XXYY   -2177.5815
      XYYY     -18.9803   YYYY   -3065.7802   XXXZ     264.1578
      XXYZ      -7.5254   XYYZ     -48.7986   YYYZ     -10.8413
      XXZZ   -2162.9391   XYZZ      11.3668   YYZZ    -802.6929
      XZZZ    -101.0853   YZZZ      71.8040   ZZZZ   -1846.6395
 -----------------------------------------------------------------
 Calculating analytic gradient of the SCF energy
 Gradient of SCF Energy
            1           2           3           4           5           6
    1  -0.0004050  -0.0008996   0.0008030  -0.0000088  -0.0023600   0.0025847
    2   0.0000841  -0.0008839   0.0003764  -0.0001506   0.0008496  -0.0008113
    3  -0.0003300  -0.0028208   0.0025753  -0.0012250  -0.0005141  -0.0000420
            7           8           9          10          11          12
    1   0.0007394  -0.0003332  -0.0032758   0.0050774  -0.0002311  -0.0007615
    2   0.0009062  -0.0011457  -0.0017124   0.0029382  -0.0001549  -0.0007472
    3   0.0024665  -0.0023251   0.0009095  -0.0010775  -0.0000480   0.0001025
           13          14          15          16          17          18
    1   0.0001787   0.0001951  -0.0001206   0.0005676  -0.0022109   0.0000965
    2   0.0006497  -0.0000340   0.0004481  -0.0001033  -0.0005546  -0.0002086
    3  -0.0001556  -0.0000776   0.0011193   0.0001871   0.0006323  -0.0001619
           19          20          21          22          23          24
    1   0.0001536   0.0000912  -0.0002736   0.0004620  -0.0000978  -0.0000040
    2   0.0000366  -0.0000520   0.0001743  -0.0001750   0.0001396  -0.0004044
    3  -0.0000585  -0.0003503   0.0001304   0.0000055  -0.0000488   0.0002303
           25          26          27          28          29          30
    1   0.0000014  -0.0001880  -0.0000657   0.0000083  -0.0000380   0.0001409
    2   0.0001364  -0.0000688  -0.0000183   0.0000434   0.0000064  -0.0000410
    3  -0.0000143  -0.0000393  -0.0000196   0.0000407   0.0000348   0.0000352
           31          32          33          34          35          36
    1   0.0000322   0.0008006   0.0001778   0.0004917  -0.0000451   0.0003224
    2  -0.0000089  -0.0001722   0.0002248  -0.0000336   0.0001029  -0.0002384
    3   0.0000985   0.0003319   0.0001352   0.0002644  -0.0000378   0.0001619
           37          38          39          40          41          42
    1  -0.0001325   0.0000113  -0.0006909  -0.0001699  -0.0000298   0.0000319
    2   0.0001523   0.0000950   0.0000542  -0.0000292   0.0000439  -0.0001946
    3   0.0000305  -0.0002261   0.0001087  -0.0000001  -0.0000695   0.0000309
           43          44          45          46          47          48
    1   0.0000235   0.0000041  -0.0000501  -0.0002573  -0.0002283  -0.0000043
    2   0.0000619  -0.0000981  -0.0000699  -0.0001088   0.0000681  -0.0001618
    3   0.0000141   0.0000864   0.0000407  -0.0000695   0.0001118   0.0000152
           49          50          51          52          53          54
    1   0.0000148   0.0000567  -0.0000325   0.0000525   0.0002123   0.0000867
    2   0.0000355   0.0000178   0.0000549   0.0000706  -0.0001949   0.0003417
    3   0.0000393   0.0000191  -0.0000208   0.0000043   0.0002824  -0.0009121
           55          56
    1  -0.0002762  -0.0002279
    2  -0.0004563   0.0009203
    3  -0.0001593   0.0005592
 Max gradient component =       5.077E-03
 RMS gradient           =       8.168E-04
 Gradient time:  CPU 31.02 s  wall 0.66 s
 Geometry Optimization Parameters
   NAtoms,    NIC,     NZ,  NCons,   NDum,   NFix, NCnnct, MaxDiis
       56     458       0       0       0       0       0       0

 Cartesian Hessian Update
 Hessian Updated using BFGS Update


** GEOMETRY OPTIMIZATION IN DELOCALIZED INTERNAL COORDINATES **
   Searching for a Minimum

   Optimization Cycle:   2

                       Coordinates (Angstroms)
     ATOM                X               Y               Z
      1  O        -5.7957717323    0.1539655721    0.7143693391
      2  C        -4.7456620710    0.1825115024    0.0386208315
      3  C        -3.7535871212   -1.0051572807   -0.2179702106
      4  C        -2.2259682957   -0.6053431677   -0.3537280300
      5  C        -1.9190284533    0.8951254845   -0.0135900193
      6  O        -1.3871335864    1.5156764943   -1.1957673130
      7  C        -0.9713350134    2.9065151345   -0.8971447470
      8  C         0.5700205955    3.0058737794   -1.1396233566
      9  O         1.2544588103    2.3096491222   -0.0203417540
     10  C         1.9308095345    1.1438251559   -0.4935922142
     11  C         2.5663417164    0.4121750855    0.7343222990
     12  C         3.3469882814   -0.9083592782    0.3431319145
     13  C         3.3035297865   -1.2605556253   -1.1899437010
     14  O         4.1973224016   -1.0668575215   -2.0403865341
     15  O        -4.2714945678    1.3404886134   -0.6590967676
     16  O         2.0924615893   -1.9948118446   -1.4316172674
     17  O         1.9467213857    0.7755466177   -1.6906411271
     18  C         1.9615897542   -2.2787050901   -2.8774493351
     19  C         3.7352508847    1.2751996051    1.3801926056
     20  C         4.0817739702    0.6662864578    2.7953035864
     21  C         4.8782255018   -0.6271670958    2.3836071274
     22  C         4.8171500482   -0.5333171162    0.8084932041
     23  O         4.9053919050    0.9231009303    0.5460410607
     24  H         1.7651452955    0.2109875445    1.4690945236
     25  H         2.9472235772   -1.7714393602    0.9040747196
     26  H         3.5501041049    2.3668235534    1.3638128774
     27  H         4.7111318428    1.3640148015    3.3701378204
     28  H         3.1768833984    0.4413393202    3.3823218902
     29  H         5.9225607802   -0.5855715891    2.7316694870
     30  H         4.4152981672   -1.5520851948    2.7631796841
     31  H         5.6167066768   -1.0701485450    0.2624547271
     32  O        -1.9962502073    1.4582962513    1.1006565635
     33  C        -5.1290153313    2.5102438462   -0.3641346544
     34  C        -3.7042186762   -2.0174005738    1.0043682340
     35  C        -3.1512283901   -3.3967039927    0.4725501934
     36  C        -1.6334154956   -3.0435138797    0.2491469377
     37  C        -1.5870475772   -1.5475076321    0.7561894064
     38  O        -2.5944639430   -1.5055608330    1.8405067176
     39  H        -4.0965850240   -1.5228695567   -1.1337724209
     40  H        -1.8378751322   -0.8190124484   -1.3645912894
     41  H        -5.0655359681    2.7956598934    0.7058261666
     42  H        -4.6457435639   -2.0646869899    1.5858124477
     43  H        -3.2738588148   -4.1792768882    1.2381338668
     44  H        -3.6564285837   -3.7219690218   -0.4506395166
     45  H        -0.9738902770   -3.6792524814    0.8609325170
     46  H        -1.3275705689   -3.1303819862   -0.8058508140
     47  H        -0.6020757585   -1.2073835077    1.1303262372
     48  H        -6.1901946688    2.3105172759   -0.6165444044
     49  H        -4.7444080847    3.3359339262   -0.9904848660
     50  H         1.0471617253   -2.8898437072   -2.9906365868
     51  H         2.8349495409   -2.8399959715   -3.2680064453
     52  H         1.8557961057   -1.3399778090   -3.4593899657
     53  H         0.8501217326    2.5064790450   -2.0925056561
     54  H         0.9007560351    4.0661862991   -1.1503949901
     55  H        -1.2223328318    3.1260493149    0.1644529590
     56  H        -1.5172959919    3.6026581725   -1.5693436307
   Point Group: c1    Number of degrees of freedom:   162


   Energy is  -1510.288617107

 Hessian Updated using BFGS Update

149 Hessian modes will be used to form the next step
  Hessian Eigenvalues:
     0.000019    0.002275    0.002613    0.002696    0.002740    0.004311
     0.004381    0.004384    0.004629    0.005046    0.005160    0.006740
     0.006807    0.010327    0.010784    0.010897    0.011317    0.021693
     0.021751    0.026015    0.026169    0.030060    0.030867    0.033868
     0.035421    0.039920    0.040337    0.041525    0.041725    0.042589
     0.044659    0.046225    0.046746    0.047725    0.050165    0.051189
     0.051474    0.052688    0.053702    0.053832    0.054519    0.054685
     0.055160    0.055436    0.055669    0.058622    0.058716    0.060248
     0.060473    0.063696    0.063931    0.064050    0.064138    0.069743
     0.069855    0.072494    0.072856    0.078386    0.092432    0.092736
     0.093009    0.093070    0.095798    0.097004    0.097081    0.097231
     0.102627    0.102839    0.109741    0.109908    0.110390    0.113290
     0.121155    0.124409    0.134701    0.147516    0.157664    0.159806
     0.159999    0.161507    0.163374    0.169581    0.219433    0.219688
     0.220421    0.227782    0.228718    0.238362    0.238630    0.239266
     0.239750    0.243386    0.246157    0.246478    0.249045    0.249321
     0.249371    0.249808    0.249998    0.253265    0.253542    0.257387
     0.260979    0.261192    0.264562    0.265358    0.292491    0.292649
     0.307320    0.307397    0.323118    0.324238    0.324490    0.325081
     0.326496    0.326854    0.326858    0.327140    0.328538    0.328833
     0.329009    0.329104    0.329626    0.330633    0.330662    0.330856
     0.332161    0.332745    0.334752    0.334773    0.334874    0.335027
     0.335090    0.335115    0.335132    0.335151    0.339461    0.343169
     0.345556    0.346510    0.397918    0.400160    0.406053    0.411419
     0.815961    0.829001    0.835421    0.836289    0.944199
**WARNING** Magnitude of eigenvalue   1 too small.  Replaced by     0.000100

 Minimum Search - Taking Simple RFO Step
 Searching for Lamda that Minimizes Along All modes
 Value Taken    Lamda =  -0.00676018
 Calculated Step too Large.  Step scaled by  0.312171
 Step Taken.  Stepsize is  0.300000

                             Maximum     Tolerance    Cnvgd?
         Gradient           0.008847      0.000300      NO
         Displacement       0.114148      0.001200      NO
         Energy change     -0.001429      0.000001      NO


 New Cartesian Coordinates Obtained by Inverse Iteration

 Displacement from previous Coordinates is:  4.600046
 Adding empirical dispersion correction 
 ----------------------------------------------------------------
 Doing -D3(op) with
 s6 =   1.00000
 s8 =   0.78311
 a1 =   0.30000
 a2 =   4.25000
 n  =  10.00000
 -D3 energy without 3body term =     -0.0714885701 hartrees
 ----------------------------------------------------------------
             Standard Nuclear Orientation (Angstroms)
    I     Atom           X                Y                Z
 ----------------------------------------------------------------
    1      O      -5.4900414316     0.0410205202     0.8946993088
    2      C      -4.5271938582     0.0975651622     0.1010922695
    3      C      -3.4865915177    -1.0355002152    -0.2051706607
    4      C      -1.9923293154    -0.5514196289    -0.4188175992
    5      C      -1.7550188465     0.9675236224    -0.1069655896
    6      O      -1.3126571228     1.6005073421    -1.3191334973
    7      C      -0.9500745533     3.0134246624    -1.0569394821
    8      C       0.5966633589     3.1479432391    -1.2415403876
    9      O       1.2534162028     2.4599359150    -0.1008492587
   10      C       1.8542561784     1.2377685485    -0.5320355049
   11      C       2.3687382720     0.4716426997     0.7309881848
   12      C       3.0080710404    -0.9363351067     0.3933356940
   13      C       2.9667400207    -1.3210361030    -1.1320005668
   14      O       3.9098245230    -1.2845510499    -1.9497980785
   15      O      -4.1682701749     1.2679044887    -0.6432263195
   16      O       1.6823653674    -1.9091646024    -1.3944017741
   17      O       1.8572893645     0.8349724605    -1.7180662788
   18      C       1.5654608509    -2.2304191219    -2.8335384874
   19      C       3.6071342038     1.2143691396     1.3966223441
   20      C       3.8410630093     0.6046497729     2.8342885283
   21      C       4.5008906544    -0.7785678250     2.4753577483
   22      C       4.4967092671    -0.7170623728     0.8974164048
   23      O       4.7548383920     0.7138218914     0.6081660225
   24      H       1.5284189232     0.3778140564     1.4431753488
   25      H       2.4946230593    -1.7335279932     0.9592843700
   26      H       3.5461784456     2.3191176151     1.3517933791
   27      H       4.5270216200     1.2420077886     3.4144466261
   28      H       2.8996700454     0.4952543502     3.3961679827
   29      H       5.5326685248    -0.8440481586     2.8558377689
   30      H       3.9274891312    -1.6372473673     2.8596305239
   31      H       5.2467805542    -1.3525608095     0.3883311948
   32      O      -1.8103788972     1.5381676492     1.0047035794
   33      C      -5.0441774272     2.4034454328    -0.2773815327
   34      C      -3.3162633469    -2.0293239682     1.0219260037
   35      C      -2.7126229915    -3.3805595291     0.4739875987
   36      C      -1.2302056247    -2.9445168302     0.1734217858
   37      C      -1.2451651595    -1.4427736169     0.6649569671
   38      O      -2.1980273362    -1.4460017337     1.7977951806
   39      H      -3.8494592190    -1.5840371038    -1.0948144421
   40      H      -1.6424652945    -0.7530786366    -1.4459363879
   41      H      -4.8941324358     2.7025161779     0.7801491099
   42      H      -4.2232014480    -2.1238059478     1.6506306782
   43      H      -2.7526242386    -4.1605907299     1.2508635118
   44      H      -3.2432590504    -3.7435455679    -0.4204015746
   45      H      -0.5064010856    -3.5348998186     0.7573913948
   46      H      -0.9709945752    -3.0252981022    -0.8944466919
   47      H      -0.2641265220    -1.0426609814     0.9865284296
   48      H      -6.1146141708     2.1566397084    -0.4288048591
   49      H      -4.7549877067     3.2379976033    -0.9420815701
   50      H       0.5859837191    -2.7275612463    -2.9601282316
   51      H       2.3741592844    -2.9103394972    -3.1713557590
   52      H       1.5973813031    -1.3089865400    -3.4507872964
   53      H       0.9125891019     2.6403384887    -2.1788206231
   54      H       0.9146026677     4.2121126739    -1.2549347889
   55      H      -1.2356415046     3.2504541670    -0.0078305944
   56      H      -1.4976428129     3.6767778388    -1.7602377749
 ----------------------------------------------------------------
 Molecular Point Group                 C1    NOp =  1
 Largest Abelian Subgroup              C1    NOp =  1
 Nuclear Repulsion Energy =  3288.4735420341 hartrees
 There are      113 alpha and      113 beta electrons
 Applying Cartesian multipole field
    Component          Value
    ---------          -----
     (2,0,0)        1.00000E-12
     (0,2,0)        2.00000E-11
     (0,0,2)       -3.00000E-11
 Nucleus-field energy     =     0.0000000152 hartrees
 Requested basis set is STO-3G
 There are 86 shells and 176 basis functions
 A cutoff of  1.0D-12 yielded   2485 shell pairs
 There are     11893 function pairs
 Smallest overlap matrix eigenvalue = 2.13E-01
 Guess MOs from SCF MO coefficient file
 Reading MOs from coefficient file
 Reading MOs from coefficient file
 A restricted hybrid HF-DFT SCF calculation will be
 performed using Pulay DIIS extrapolation
 Exchange:     0.2000 Hartree-Fock + 0.0800 Slater + 0.7200 B88
 Correlation:  0.1900 VWN1RPA + 0.8100 LYP
 Using SG-1 standard quadrature grid
 Dispersion:   Grimme D3
 SCF converges when DIIS error is below 1.0E-08
 Geometry optimization detected.  Setting ReadMinima to 0
 Setting SaveMinima to 0
 using 48 threads for integral computing
 -------------------------------------------------------
 OpenMP Integral computing Module                
 Release: version 1.0, May 2013, Q-Chem Inc. Pittsburgh 
 -------------------------------------------------------
 -------------------------------------------------------
 OpenMP BLAS3 based DFT computing Module                
 Release: version 1.0, May 2013, Q-Chem Inc. Pittsburgh 
 -------------------------------------------------------
 ---------------------------------------
  Cycle       Energy         DIIS Error
 ---------------------------------------
    1   -1510.1592113066      5.30E-03
    2   -1510.2888401585      4.77E-04
    3   -1510.2891932929      5.61E-04
    4   -1510.2903048789      2.58E-04
    5   -1510.2905573936      9.43E-05
    6   -1510.2905963455      2.66E-05
    7   -1510.2905989179      1.38E-05
    8   -1510.2905996935      4.09E-06
    9   -1510.2905997755      7.43E-07
   10   -1510.2905997781      5.01E-07
   11   -1510.2905997791      2.47E-07
   12   -1510.2905997794      4.91E-08
   13   -1510.2905997795      2.01E-08
   14   -1510.2905997795      8.29E-09 Convergence criterion met
 ---------------------------------------
 SCF time:  CPU 101.87 s  wall 2.13 s
 SCF   energy in the final basis set = -1510.29059978
 Total energy in the final basis set = -1510.29059978
 
 --------------------------------------------------------------
 
                    Orbital Energies (a.u.)
 --------------------------------------------------------------
 
 Alpha MOs
 -- Occupied --
-18.942 -18.940 -18.928 -18.919 -18.889 -18.887 -18.886 -18.881
-18.869 -18.861 -10.108 -10.104 -10.098 -10.090 -10.072 -10.069
-10.068 -10.061 -10.060 -10.058 -10.057 -10.056 -10.041 -10.040
-10.037 -10.033 -10.020 -10.020 -10.019 -10.018  -1.023  -1.017
 -1.005  -0.998  -0.970  -0.969  -0.946  -0.942  -0.932  -0.924
 -0.764  -0.762  -0.728  -0.722  -0.714  -0.705  -0.696  -0.666
 -0.656  -0.619  -0.598  -0.577  -0.546  -0.544  -0.537  -0.536
 -0.512  -0.511  -0.488  -0.475  -0.462  -0.456  -0.452  -0.450
 -0.433  -0.429  -0.428  -0.418  -0.415  -0.413  -0.405  -0.403
 -0.400  -0.383  -0.373  -0.365  -0.362  -0.355  -0.352  -0.351
 -0.344  -0.339  -0.335  -0.333  -0.330  -0.326  -0.325  -0.314
 -0.311  -0.305  -0.304  -0.301  -0.297  -0.289  -0.276  -0.273
 -0.272  -0.254  -0.253  -0.245  -0.243  -0.234  -0.233  -0.191
 -0.181  -0.167  -0.164  -0.163  -0.161  -0.151  -0.144  -0.144
 -0.142
 -- Virtual --
  0.091   0.092   0.110   0.114   0.227   0.232   0.245   0.256
  0.257   0.270   0.283   0.286   0.303   0.310   0.326   0.329
  0.334   0.340   0.344   0.347   0.354   0.358   0.369   0.373
  0.382   0.384   0.388   0.394   0.406   0.407   0.408   0.410
  0.414   0.418   0.418   0.421   0.425   0.426   0.427   0.431
  0.432   0.435   0.439   0.441   0.445   0.449   0.452   0.458
  0.468   0.476   0.477   0.489   0.494   0.508   0.510   0.540
  0.544   0.553   0.557   0.635   0.637   0.653   0.658
 --------------------------------------------------------------
 
          Ground-State Mulliken Net Atomic Charges

     Atom                 Charge (a.u.)
  ----------------------------------------
      1 O                    -0.208657
      2 C                     0.213221
      3 C                    -0.079084
      4 C                    -0.078093
      5 C                     0.215151
      6 O                    -0.174210
      7 C                    -0.056702
      8 C                    -0.055282
      9 O                    -0.172464
     10 C                     0.215566
     11 C                    -0.078238
     12 C                    -0.082376
     13 C                     0.215915
     14 O                    -0.216031
     15 O                    -0.169060
     16 O                    -0.178172
     17 O                    -0.206418
     18 C                    -0.128510
     19 C                     0.025560
     20 C                    -0.143875
     21 C                    -0.144047
     22 C                     0.025148
     23 O                    -0.188872
     24 H                     0.088242
     25 H                     0.082890
     26 H                     0.086377
     27 H                     0.078455
     28 H                     0.075337
     29 H                     0.078068
     30 H                     0.073396
     31 H                     0.088616
     32 O                    -0.219971
     33 C                    -0.127660
     34 C                     0.024288
     35 C                    -0.143929
     36 C                    -0.142291
     37 C                     0.028193
     38 O                    -0.188176
     39 H                     0.084771
     40 H                     0.089418
     41 H                     0.093420
     42 H                     0.090195
     43 H                     0.077909
     44 H                     0.072642
     45 H                     0.077893
     46 H                     0.076001
     47 H                     0.080515
     48 H                     0.091801
     49 H                     0.090691
     50 H                     0.081912
     51 H                     0.087426
     52 H                     0.092797
     53 H                     0.104652
     54 H                     0.087769
     55 H                     0.103426
     56 H                     0.084457
  ----------------------------------------
  Sum of atomic charges =     0.000000

 -----------------------------------------------------------------
                    Cartesian Multipole Moments
 -----------------------------------------------------------------
    Charge (ESU x 10^10)
                 0.0000
    Dipole Moment (Debye)
         X      -1.5314      Y       0.0210      Z      -0.6743
       Tot       1.6734
    Quadrupole Moments (Debye-Ang)
        XX    -171.9511     XY      -3.7534     YY    -144.2106
        XZ      17.8718     YZ      -1.9881     ZZ    -162.8019
    Octopole Moments (Debye-Ang^2)
       XXX     -68.4082    XXY      14.5828    XYY     -28.5144
       YYY      49.8141    XXZ       5.1577    XYZ      -3.0871
       YYZ     -25.4292    XZZ       6.9139    YZZ       2.7520
       ZZZ     -20.6662
    Hexadecapole Moments (Debye-Ang^3)
      XXXX   -9901.9121   XXXY    -119.8309   XXYY   -1964.9198
      XYYY      46.6815   YYYY   -3095.9562   XXXZ     166.5576
      XXYZ      -2.0870   XYYZ     -60.3914   YYYZ      15.4072
      XXZZ   -1937.7775   XYZZ      39.5970   YYZZ    -814.1427
      XZZZ    -152.1966   YZZZ     103.2376   ZZZZ   -1877.1831
 -----------------------------------------------------------------
 Calculating analytic gradient of the SCF energy
 Gradient of SCF Energy
            1           2           3           4           5           6
    1   0.0011401  -0.0047710   0.0018888  -0.0000894  -0.0028626   0.0031394
    2   0.0005298  -0.0028145   0.0018597  -0.0004597   0.0007703  -0.0012112
    3   0.0013965  -0.0071003   0.0022324  -0.0004476  -0.0003990   0.0018427
            7           8           9          10          11          12
    1   0.0012514  -0.0017117  -0.0036015   0.0097181  -0.0029985  -0.0001996
    2   0.0007184   0.0008168  -0.0033591   0.0044610  -0.0012003  -0.0013408
    3  -0.0020790   0.0012560  -0.0002872  -0.0016322  -0.0004050   0.0001600
           13          14          15          16          17          18
    1  -0.0007802   0.0007070   0.0006250   0.0013725  -0.0041135   0.0000981
    2   0.0027221  -0.0011383   0.0007743  -0.0001573  -0.0007675  -0.0004108
    3  -0.0014395   0.0006683   0.0023605   0.0005676   0.0011361  -0.0003143
           19          20          21          22          23          24
    1   0.0005803  -0.0004104   0.0002623   0.0003622   0.0000587   0.0002442
    2   0.0001086   0.0000739   0.0002877  -0.0001667  -0.0000515  -0.0008993
    3   0.0004470  -0.0005595   0.0004560  -0.0003575   0.0000463   0.0002949
           25          26          27          28          29          30
    1  -0.0000368  -0.0002491   0.0000071   0.0001064  -0.0000283  -0.0000187
    2   0.0004309  -0.0000300  -0.0000345  -0.0001861   0.0000085  -0.0000438
    3   0.0000126  -0.0000747  -0.0001114   0.0000925   0.0001049  -0.0000087
           31          32          33          34          35          36
    1   0.0000914   0.0010413   0.0004171   0.0009043  -0.0001833   0.0001066
    2  -0.0000160  -0.0004746   0.0002425  -0.0000254   0.0002324  -0.0005410
    3   0.0001783   0.0004978   0.0002591   0.0002654  -0.0003619   0.0004657
           37          38          39          40          41          42
    1  -0.0004016   0.0004144  -0.0012804  -0.0003914  -0.0000927   0.0001255
    2   0.0005819   0.0003143  -0.0002978   0.0000125   0.0001463  -0.0002065
    3   0.0001087  -0.0002286   0.0005937   0.0000443  -0.0001275  -0.0000635
           43          44          45          46          47          48
    1   0.0001355   0.0000550  -0.0000499  -0.0003925   0.0000478   0.0000028
    2   0.0001886  -0.0000242  -0.0002513  -0.0003252   0.0003450  -0.0002236
    3  -0.0000348   0.0001249   0.0002633  -0.0004276   0.0007244  -0.0000495
           49          50          51          52          53          54
    1   0.0000011  -0.0000212   0.0000120   0.0001500   0.0001280   0.0003392
    2   0.0000331  -0.0000136   0.0000589   0.0001424  -0.0009497   0.0007851
    3   0.0000632   0.0001559  -0.0000844  -0.0000037   0.0008596  -0.0021531
           55          56
    1  -0.0001091  -0.0007404
    2  -0.0011140   0.0020889
    3  -0.0001081   0.0011799
 Max gradient component =       9.718E-03
 RMS gradient           =       1.448E-03
 Gradient time:  CPU 31.05 s  wall 0.65 s
 Geometry Optimization Parameters
   NAtoms,    NIC,     NZ,  NCons,   NDum,   NFix, NCnnct, MaxDiis
       56     458       0       0       0       0       0       0

 Cartesian Hessian Update
 Hessian Updated using BFGS Update


** GEOMETRY OPTIMIZATION IN DELOCALIZED INTERNAL COORDINATES **
   Searching for a Minimum

   Optimization Cycle:   3

                       Coordinates (Angstroms)
     ATOM                X               Y               Z
      1  O        -5.4900414316    0.0410205202    0.8946993088
      2  C        -4.5271938582    0.0975651622    0.1010922695
      3  C        -3.4865915177   -1.0355002152   -0.2051706607
      4  C        -1.9923293154   -0.5514196289   -0.4188175992
      5  C        -1.7550188465    0.9675236224   -0.1069655896
      6  O        -1.3126571228    1.6005073421   -1.3191334973
      7  C        -0.9500745533    3.0134246624   -1.0569394821
      8  C         0.5966633589    3.1479432391   -1.2415403876
      9  O         1.2534162028    2.4599359150   -0.1008492587
     10  C         1.8542561784    1.2377685485   -0.5320355049
     11  C         2.3687382720    0.4716426997    0.7309881848
     12  C         3.0080710404   -0.9363351067    0.3933356940
     13  C         2.9667400207   -1.3210361030   -1.1320005668
     14  O         3.9098245230   -1.2845510499   -1.9497980785
     15  O        -4.1682701749    1.2679044887   -0.6432263195
     16  O         1.6823653674   -1.9091646024   -1.3944017741
     17  O         1.8572893645    0.8349724605   -1.7180662788
     18  C         1.5654608509   -2.2304191219   -2.8335384874
     19  C         3.6071342038    1.2143691396    1.3966223441
     20  C         3.8410630093    0.6046497729    2.8342885283
     21  C         4.5008906544   -0.7785678250    2.4753577483
     22  C         4.4967092671   -0.7170623728    0.8974164048
     23  O         4.7548383920    0.7138218914    0.6081660225
     24  H         1.5284189232    0.3778140564    1.4431753488
     25  H         2.4946230593   -1.7335279932    0.9592843700
     26  H         3.5461784456    2.3191176151    1.3517933791
     27  H         4.5270216200    1.2420077886    3.4144466261
     28  H         2.8996700454    0.4952543502    3.3961679827
     29  H         5.5326685248   -0.8440481586    2.8558377689
     30  H         3.9274891312   -1.6372473673    2.8596305239
     31  H         5.2467805542   -1.3525608095    0.3883311948
     32  O        -1.8103788972    1.5381676492    1.0047035794
     33  C        -5.0441774272    2.4034454328   -0.2773815327
     34  C        -3.3162633469   -2.0293239682    1.0219260037
     35  C        -2.7126229915   -3.3805595291    0.4739875987
     36  C        -1.2302056247   -2.9445168302    0.1734217858
     37  C        -1.2451651595   -1.4427736169    0.6649569671
     38  O        -2.1980273362   -1.4460017337    1.7977951806
     39  H        -3.8494592190   -1.5840371038   -1.0948144421
     40  H        -1.6424652945   -0.7530786366   -1.4459363879
     41  H        -4.8941324358    2.7025161779    0.7801491099
     42  H        -4.2232014480   -2.1238059478    1.6506306782
     43  H        -2.7526242386   -4.1605907299    1.2508635118
     44  H        -3.2432590504   -3.7435455679   -0.4204015746
     45  H        -0.5064010856   -3.5348998186    0.7573913948
     46  H        -0.9709945752   -3.0252981022   -0.8944466919
     47  H        -0.2641265220   -1.0426609814    0.9865284296
     48  H        -6.1146141708    2.1566397084   -0.4288048591
     49  H        -4.7549877067    3.2379976033   -0.9420815701
     50  H         0.5859837191   -2.7275612463   -2.9601282316
     51  H         2.3741592844   -2.9103394972   -3.1713557590
     52  H         1.5973813031   -1.3089865400   -3.4507872964
     53  H         0.9125891019    2.6403384887   -2.1788206231
     54  H         0.9146026677    4.2121126739   -1.2549347889
     55  H        -1.2356415046    3.2504541670   -0.0078305944
     56  H        -1.4976428129    3.6767778388   -1.7602377749
   Point Group: c1    Number of degrees of freedom:   162


   Energy is  -1510.290599780

 Hessian Updated using BFGS Update

151 Hessian modes will be used to form the next step
  Hessian Eigenvalues:
     0.000958    0.002325    0.002654    0.002690    0.003363    0.004312
     0.004381    0.004476    0.004685    0.005053    0.005160    0.006504
     0.006805    0.008370    0.010780    0.011293    0.015115    0.019644
     0.021774    0.021890    0.026319    0.027312    0.030676    0.031237
     0.035310    0.035661    0.040841    0.041513    0.041761    0.042037
     0.044355    0.046113    0.046679    0.048048    0.050685    0.051415
     0.051493    0.053209    0.053734    0.053871    0.054572    0.054697
     0.055426    0.055666    0.056800    0.058580    0.059754    0.060465
     0.061696    0.063701    0.063931    0.064106    0.064439    0.069758
     0.069862    0.072854    0.073149    0.083984    0.092495    0.092728
     0.092978    0.095757    0.096069    0.097019    0.097080    0.098081
     0.102627    0.102901    0.109757    0.109890    0.110387    0.112820
     0.120598    0.125678    0.134679    0.157572    0.158668    0.159757
     0.159995    0.160896    0.162037    0.164380    0.172851    0.219368
     0.219966    0.221426    0.228616    0.229598    0.238465    0.238654
     0.239217    0.239743    0.243007    0.246122    0.246563    0.247945
     0.249246    0.249440    0.249564    0.249998    0.253194    0.253534
     0.257373    0.259779    0.261115    0.263987    0.265172    0.288657
     0.292572    0.297380    0.307334    0.307512    0.323118    0.324284
     0.324422    0.325074    0.326495    0.326857    0.326870    0.327140
     0.328540    0.328838    0.329103    0.329568    0.330129    0.330659
     0.330854    0.332083    0.332734    0.332881    0.334763    0.334865
     0.335010    0.335075    0.335085    0.335118    0.335150    0.337340
     0.340613    0.345326    0.345895    0.346512    0.398075    0.400492
     0.406068    0.411947    0.822327    0.828994    0.835811    0.836657
   259.496507
**WARNING** Magnitude of eigenvalue 151 too large.  Replaced by    25.000000

 Minimum Search - Taking Simple RFO Step
 Searching for Lamda that Minimizes Along All modes
 Value Taken    Lamda =  -0.00239308
 Calculated Step too Large.  Step scaled by  0.459285
 Step Taken.  Stepsize is  0.300000

                             Maximum     Tolerance    Cnvgd?
         Gradient           0.012439      0.000300      NO
         Displacement       0.092380      0.001200      NO
         Energy change     -0.001983      0.000001      NO


 New Cartesian Coordinates Obtained by Inverse Iteration

 Displacement from previous Coordinates is:  3.442985
 Adding empirical dispersion correction 
 ----------------------------------------------------------------
 Doing -D3(op) with
 s6 =   1.00000
 s8 =   0.78311
 a1 =   0.30000
 a2 =   4.25000
 n  =  10.00000
 -D3 energy without 3body term =     -0.0748728627 hartrees
 ----------------------------------------------------------------
             Standard Nuclear Orientation (Angstroms)
    I     Atom           X                Y                Z
 ----------------------------------------------------------------
    1      O      -5.2849636654    -0.0450087773     1.0227182094
    2      C      -4.3473193423     0.0564549905     0.2039605426
    3      C      -3.2960185522    -1.0450827732    -0.1732532252
    4      C      -1.8303408897    -0.5110118559    -0.4613449533
    5      C      -1.6259097671     1.0152896959    -0.1641770368
    6      O      -1.2679925384     1.6489143035    -1.4037380086
    7      C      -0.9262283073     3.0753882305    -1.1907492407
    8      C       0.6210123238     3.2098771067    -1.3745333819
    9      O       1.2687854883     2.5440980348    -0.2158582895
   10      C       1.7972633484     1.2738744220    -0.6004973599
   11      C       2.2049113196     0.4989230878     0.6957556916
   12      C       2.7646655342    -0.9523642820     0.4091500502
   13      C       2.7641649583    -1.3602547639    -1.1108596973
   14      O       3.7389431522    -1.3790148516    -1.8910386785
   15      O      -4.0526564382     1.2480025886    -0.5349624434
   16      O       1.4604659084    -1.8805877539    -1.4195195665
   17      O       1.8237490323     0.8480857458    -1.7784098051
   18      C       1.3828505298    -2.2094700152    -2.8593193277
   19      C       3.4550835548     1.1683394756     1.4143098746
   20      C       3.5736728118     0.5706351101     2.8706883997
   21      C       4.1526267212    -0.8619799226     2.5673569384
   22      C       4.2356113896    -0.8299556999     0.9903812194
   23      O       4.6048674707     0.5751562855     0.6952821117
   24      H       1.3254729936     0.4687797063     1.3648587967
   25      H       2.1587864075    -1.6983113480     0.9535427769
   26      H       3.4723430310     2.2736251765     1.3496720870
   27      H       4.2741379774     1.1695526207     3.4739618121
   28      H       2.6002039299     0.5379218210     3.3851877972
   29      H       5.1557045945    -0.9920617245     3.0043003042
   30      H       3.5027261766    -1.6719613097     2.9347646343
   31      H       4.9657629272    -1.5243886578     0.5318864908
   32      O      -1.6323292788     1.5870285323     0.9479908204
   33      C      -4.9464033648     2.3511872728    -0.1176488439
   34      C      -3.0202214332    -2.0174231278     1.0544894496
   35      C      -2.4080011092    -3.3552051633     0.4861524877
   36      C      -0.9605812795    -2.8753545207     0.0955410855
   37      C      -0.9941408412    -1.3718723564     0.5797659539
   38      O      -1.8799950453    -1.3938672706     1.7638215448
   39      H      -3.6970951663    -1.6238604243    -1.0257866787
   40      H      -1.5265048460    -0.7014015483    -1.5050299594
   41      H      -4.7611383119     2.6414629666     0.9367806449
   42      H      -3.8862620586    -2.1316947426     1.7353686913
   43      H      -2.3765641760    -4.1263415873     1.2723521437
   44      H      -2.9789726164    -3.7455529776    -0.3710478454
   45      H      -0.1845064190    -3.4383893252     0.6378491888
   46      H      -0.7609450179    -2.9534612211    -0.9849282648
   47      H      -0.0093307757    -0.9401862012     0.8429744045
   48      H      -6.0142615707     2.0736815967    -0.2281945830
   49      H      -4.7103322215     3.2025322185    -0.7818586110
   50      H       0.3834234423    -2.6544393672    -3.0201064741
   51      H       2.1656313064    -2.9356772212    -3.1600933543
   52      H       1.4884762700    -1.2970173156    -3.4816230776
   53      H       0.9034448065     2.6225515656    -2.2756102245
   54      H       0.9748578434     4.2581407868    -1.4698151010
   55      H      -1.1671030437     3.3076962747    -0.1290661649
   56      H      -1.5110677556     3.7322713006    -1.8692516281
 ----------------------------------------------------------------
 Molecular Point Group                 C1    NOp =  1
 Largest Abelian Subgroup              C1    NOp =  1
 Nuclear Repulsion Energy =  3342.0315726589 hartrees
 There are      113 alpha and      113 beta electrons
 Applying Cartesian multipole field
    Component          Value
    ---------          -----
     (2,0,0)        1.00000E-12
     (0,2,0)        2.00000E-11
     (0,0,2)       -3.00000E-11
 Nucleus-field energy     =     0.0000000130 hartrees
 Requested basis set is STO-3G
 There are 86 shells and 176 basis functions
 A cutoff of  1.0D-12 yielded   2582 shell pairs
 There are     12380 function pairs
 Smallest overlap matrix eigenvalue = 2.12E-01
 Guess MOs from SCF MO coefficient file
 Reading MOs from coefficient file
[...]
      7  C        -0.8053774668    2.6831155033   -2.6951902345
      8  C         0.7259391944    2.7831625998   -2.3477896941
      9  O         0.9525559437    2.3732134484   -0.9434931921
     10  C         1.3285411779    0.9892744346   -0.8865758991
     11  C         1.3695918744    0.5249749613    0.5978165843
     12  C         2.1669243131   -0.8268682349    0.8063716539
     13  C         2.8363076530   -1.3826257704   -0.4998803433
     14  O         3.9596697737   -1.0958592761   -0.9661438007
     15  O        -3.5505005191    1.0084520369    1.7917345374
     16  O         1.9711440754   -2.3891992856   -1.0559454969
     17  O         1.5424390546    0.2907357834   -1.9063182777
     18  C         2.5264382573   -2.8679854240   -2.3401369529
     19  C         2.1761043121    1.5079313594    1.5455849234
     20  C         1.7585333815    1.1741647708    3.0305647499
     21  C         2.5314591460   -0.1778073184    3.2619731899
     22  C         3.2516668654   -0.3638491385    1.8669520621
     23  O         3.5714709534    1.0219441152    1.4511435775
     24  H         0.3189827244    0.4121559535    0.9634616228
     25  H         1.4844103466   -1.6031035747    1.1938081507
     26  H         2.1096529443    2.5744834334    1.2563193870
     27  H         2.1034830052    1.9610568559    3.7200403396
     28  H         0.6658644912    1.0600275806    3.1226531752
     29  H         3.2731339853   -0.0882830569    4.0716383184
     30  H         1.8559372694   -1.0175275434    3.4900395054
     31  H         4.1705735593   -0.9811795987    1.8827216897
     32  O        -1.8982315238    1.9511556696   -0.3541900922
     33  C        -3.2202232962    2.0874956093    2.7511091604
     34  C        -1.9057499515   -2.1074111147    0.6556976148
     35  C        -2.3755750100   -3.2618323394   -0.3176658224
     36  C        -1.6363374804   -2.8659480144   -1.6510881874
     37  C        -0.9963695095   -1.4873869033   -1.2368951609
     38  O        -0.5637792710   -1.7393158349    0.1554834358
     39  H        -3.8256687922   -0.9389880205    0.3653442976
     40  H        -2.9627444580   -0.6435313259   -1.8561282106
     41  H        -2.5335749096    2.8287192650    2.2935936813
     42  H        -1.8570953716   -2.3822771897    1.7269735399
     43  H        -2.0430408911   -4.2428305320    0.0566589728
     44  H        -3.4714129596   -3.2802014786   -0.4314366748
     45  H        -0.8407469632   -3.5871506453   -1.8975299914
     46  H        -2.3184231416   -2.7766436424   -2.5116820237
     47  H        -0.1343727374   -1.1374865623   -1.8413052324
     48  H        -2.7483824970    1.6854478569    3.6707796708
     49  H        -4.1792728987    2.5744342990    3.0059695478
     50  H         1.8556718039   -3.6774690137   -2.6828887894
     51  H         3.5565847059   -3.2626791685   -2.2246602343
     52  H         2.5435015407   -2.0567743225   -3.0970636100
     53  H         1.3085735202    2.1238537329   -3.0261996470
     54  H         1.0623034757    3.8355319609   -2.4443436037
     55  H        -1.3886154727    3.3505113155   -2.0259474875
     56  H        -0.9700705622    2.9622181155   -3.7558184723
   Point Group: c1    Number of degrees of freedom:   162


   Energy is  -1510.305723354

 Hessian Updated using BFGS Update

161 Hessian modes will be used to form the next step
  Hessian Eigenvalues:
     0.002202    0.003499    0.003658    0.004770    0.005202    0.005964
     0.006237    0.007902    0.011334    0.013338    0.015643    0.018134
     0.019306    0.021749    0.022361    0.024680    0.026167    0.030125
     0.032183    0.032817    0.036513    0.037261    0.038980    0.041471
     0.042520    0.043170    0.043310    0.044668    0.045393    0.047588
     0.048192    0.051080    0.051513    0.052785    0.053611    0.054558
     0.055075    0.056029    0.056648    0.056719    0.057203    0.058658
     0.059559    0.060782    0.063282    0.064019    0.064147    0.064815
     0.064908    0.066147    0.069088    0.070237    0.071124    0.073126
     0.073748    0.075119    0.079785    0.092282    0.093712    0.094483
     0.096722    0.097462    0.098419    0.100150    0.102659    0.103323
     0.104028    0.109916    0.113759    0.117175    0.117897    0.126165
     0.127123    0.140319    0.143288    0.152346    0.159586    0.160132
     0.160530    0.160656    0.162742    0.164163    0.166695    0.172621
     0.178517    0.184457    0.201567    0.208117    0.224734    0.228314
     0.238312    0.239640    0.240816    0.241164    0.241425    0.245862
     0.246174    0.249116    0.250067    0.253843    0.255061    0.255856
     0.257221    0.259553    0.263000    0.268569    0.269222    0.272596
     0.278523    0.282709    0.286893    0.288351    0.296270    0.298770
     0.304026    0.307004    0.313729    0.322312    0.323589    0.324895
     0.326540    0.326732    0.327073    0.327488    0.327994    0.329026
     0.329139    0.329418    0.330198    0.331085    0.331218    0.332675
     0.332766    0.333951    0.334589    0.335048    0.335089    0.335197
     0.335518    0.335816    0.336282    0.338073    0.340655    0.348524
     0.351262    0.363821    0.371309    0.386261    0.393499    0.413951
     0.436682    0.446222    0.489733    0.611843    0.807739    0.826741
     0.837854    0.852933    0.865108    1.082406    6.698358

 Minimum Search - Taking Simple RFO Step
 Searching for Lamda that Minimizes Along All modes
 Value Taken    Lamda =   0.00000000
 Step Taken.  Stepsize is  0.005164

                             Maximum     Tolerance    Cnvgd?
         Gradient           0.000190      0.000300     YES
         Displacement       0.002107      0.001200      NO
         Energy change     -0.000000      0.000001     YES

 Final energy is   -1510.30572335407     


 ******************************
 **  OPTIMIZATION CONVERGED  **
 ******************************

                       Coordinates (Angstroms)
     ATOM                X               Y               Z
      1  O        -1.2458972640    0.4874311605    1.9703172479
      2  C        -2.3613585939    0.3100633503    1.4223253961
      3  C        -2.7321044906   -0.7884024396    0.3565540343
      4  C        -2.1936469226   -0.4395900956   -1.0889313970
      5  C        -1.7781384668    1.0608623304   -1.2281685742
      6  O        -1.2782885093    1.2840621732   -2.5476706371
      7  C        -0.8053774668    2.6831155033   -2.6951902345
      8  C         0.7259391944    2.7831625998   -2.3477896941
      9  O         0.9525559437    2.3732134484   -0.9434931921
     10  C         1.3285411779    0.9892744346   -0.8865758991
     11  C         1.3695918744    0.5249749613    0.5978165843
     12  C         2.1669243131   -0.8268682349    0.8063716539
     13  C         2.8363076530   -1.3826257704   -0.4998803433
     14  O         3.9596697737   -1.0958592761   -0.9661438007
     15  O        -3.5505005191    1.0084520369    1.7917345374
     16  O         1.9711440754   -2.3891992856   -1.0559454969
     17  O         1.5424390546    0.2907357834   -1.9063182777
     18  C         2.5264382573   -2.8679854240   -2.3401369529
     19  C         2.1761043121    1.5079313594    1.5455849234
     20  C         1.7585333815    1.1741647708    3.0305647499
     21  C         2.5314591460   -0.1778073184    3.2619731899
     22  C         3.2516668654   -0.3638491385    1.8669520621
     23  O         3.5714709534    1.0219441152    1.4511435775
     24  H         0.3189827244    0.4121559535    0.9634616228
     25  H         1.4844103466   -1.6031035747    1.1938081507
     26  H         2.1096529443    2.5744834334    1.2563193870
     27  H         2.1034830052    1.9610568559    3.7200403396
     28  H         0.6658644912    1.0600275806    3.1226531752
     29  H         3.2731339853   -0.0882830569    4.0716383184
     30  H         1.8559372694   -1.0175275434    3.4900395054
     31  H         4.1705735593   -0.9811795987    1.8827216897
     32  O        -1.8982315238    1.9511556696   -0.3541900922
     33  C        -3.2202232962    2.0874956093    2.7511091604
     34  C        -1.9057499515   -2.1074111147    0.6556976148
     35  C        -2.3755750100   -3.2618323394   -0.3176658224
     36  C        -1.6363374804   -2.8659480144   -1.6510881874
     37  C        -0.9963695095   -1.4873869033   -1.2368951609
     38  O        -0.5637792710   -1.7393158349    0.1554834358
     39  H        -3.8256687922   -0.9389880205    0.3653442976
     40  H        -2.9627444580   -0.6435313259   -1.8561282106
     41  H        -2.5335749096    2.8287192650    2.2935936813
     42  H        -1.8570953716   -2.3822771897    1.7269735399
     43  H        -2.0430408911   -4.2428305320    0.0566589728
     44  H        -3.4714129596   -3.2802014786   -0.4314366748
     45  H        -0.8407469632   -3.5871506453   -1.8975299914
     46  H        -2.3184231416   -2.7766436424   -2.5116820237
     47  H        -0.1343727374   -1.1374865623   -1.8413052324
     48  H        -2.7483824970    1.6854478569    3.6707796708
     49  H        -4.1792728987    2.5744342990    3.0059695478
     50  H         1.8556718039   -3.6774690137   -2.6828887894
     51  H         3.5565847059   -3.2626791685   -2.2246602343
     52  H         2.5435015407   -2.0567743225   -3.0970636100
     53  H         1.3085735202    2.1238537329   -3.0261996470
     54  H         1.0623034757    3.8355319609   -2.4443436037
     55  H        -1.3886154727    3.3505113155   -2.0259474875
     56  H        -0.9700705622    2.9622181155   -3.7558184723

Z-matrix Print:
$molecule
0 1
O 
C  1 1.478714
H  2 1.107046 1 110.442484
C  1 1.479635 2 95.473471 3 178.500619 0
H  4 1.109405 1 109.829042 2 177.585420 0
C  4 1.575292 1 102.544518 2 -57.763913 0
H  6 1.101740 4 109.773445 1 -78.345379 0
H  6 1.101743 4 112.703130 1 159.970513 0
C  6 1.575186 4 100.837162 1 39.193812 0
H  9 1.101388 6 111.707208 4 -123.067884 0
H  9 1.101881 6 112.551483 4 114.326655 0
C  2 1.584971 1 101.662820 3 121.741782 0
H  12 1.103919 2 113.669216 1 162.300114 0
C  12 1.574785 2 109.269346 1 -75.909677 0
O  14 1.255392 12 127.096140 2 33.603926 0
O  14 1.427679 12 108.677452 2 -140.178414 0
C  16 1.481154 14 109.769690 12 -177.576161 0
H  17 1.105368 16 106.069298 14 -179.154918 0
H  17 1.109085 16 111.584693 14 -59.695714 0
H  17 1.109152 16 110.960113 14 61.712271 0
C  12 1.581466 2 100.285032 1 42.611745 0
H  21 1.105303 12 110.904585 2 107.508486 0
C  21 1.563135 12 112.559333 2 -132.046702 0
O  23 1.253349 21 126.460125 12 -3.566775 0
O  23 1.428550 21 108.981478 12 178.742230 0
C  25 1.484169 23 110.522872 21 -176.973643 0
H  26 1.109033 25 106.557029 23 -149.164778 0
H  26 1.110617 25 109.830297 23 -29.684809 0
C  26 1.573413 25 110.371482 23 91.598718 0
H  29 1.109029 26 109.651395 25 -179.000434 0
H  29 1.111032 26 109.744421 25 59.396160 0
O  29 1.480359 26 109.927312 25 -61.154227 0
C  32 1.435232 29 110.166589 26 95.520758 0
O  33 1.254425 32 123.325140 29 5.862852 0
C  33 1.555854 32 109.420803 29 -172.201658 0
H  35 1.118125 33 108.500651 32 74.341210 0
C  35 1.583261 33 113.188944 32 -163.116378 0
H  37 1.103845 35 109.589550 33 -117.239823 0
C  37 1.569470 35 114.047993 33 3.786434 0
O  39 1.249632 37 127.784307 35 86.660226 0
O  39 1.439065 37 108.232483 35 -97.690151 0
C  41 1.478761 39 109.650172 37 176.066861 0
H  42 1.105744 41 106.166015 39 176.571410 0
H  42 1.109198 41 111.934826 39 57.038228 0
H  42 1.109636 41 111.189966 39 -64.461269 0
C  35 1.585853 33 113.493070 32 -48.484246 0
H  46 1.107079 35 114.233503 33 32.922443 0
O  46 1.480591 35 103.752039 33 -87.889779 0
C  48 1.481754 46 94.914956 35 -55.932656 0
H  49 1.107129 48 110.264029 46 179.983964 0
C  46 1.578268 35 107.258348 33 162.555511 0
H  51 1.101620 46 110.791924 35 -167.237136 0
H  51 1.102467 46 111.266729 35 -45.306927 0
C  51 1.574418 46 100.952933 35 74.464757 0
H  54 1.101578 51 112.579464 46 -119.420192 0
H  54 1.101660 51 111.638610 46 117.836662 0
$end

 
 --------------------------------------------------------------
 
                    Orbital Energies (a.u.)
 --------------------------------------------------------------
 
 Alpha MOs
 -- Occupied --
-18.948 -18.937 -18.934 -18.908 -18.892 -18.890 -18.874 -18.874
-18.867 -18.846 -10.112 -10.105 -10.096 -10.080 -10.075 -10.074
-10.063 -10.063 -10.057 -10.046 -10.043 -10.040 -10.040 -10.039
-10.022 -10.019 -10.010 -10.008 -10.002  -9.997  -1.029  -1.012
 -1.008  -0.985  -0.973  -0.951  -0.950  -0.936  -0.935  -0.911
 -0.767  -0.744  -0.727  -0.720  -0.704  -0.699  -0.684  -0.663
 -0.644  -0.619  -0.593  -0.570  -0.547  -0.540  -0.528  -0.520
 -0.515  -0.500  -0.486  -0.470  -0.461  -0.458  -0.443  -0.439
 -0.433  -0.426  -0.418  -0.413  -0.411  -0.406  -0.398  -0.394
 -0.392  -0.381  -0.372  -0.365  -0.359  -0.356  -0.349  -0.344
 -0.340  -0.334  -0.331  -0.329  -0.322  -0.317  -0.313  -0.308
 -0.307  -0.304  -0.296  -0.289  -0.285  -0.278  -0.274  -0.265
 -0.260  -0.256  -0.252  -0.244  -0.236  -0.230  -0.213  -0.200
 -0.177  -0.171  -0.164  -0.156  -0.153  -0.150  -0.145  -0.127
 -0.125
 -- Virtual --
  0.086   0.096   0.106   0.127   0.221   0.237   0.251   0.261
  0.263   0.285   0.285   0.302   0.306   0.322   0.326   0.339
  0.346   0.348   0.353   0.354   0.364   0.366   0.371   0.373
  0.377   0.389   0.398   0.399   0.401   0.406   0.409   0.414
  0.418   0.425   0.430   0.434   0.435   0.438   0.440   0.441
  0.442   0.444   0.445   0.450   0.453   0.455   0.462   0.470
  0.473   0.475   0.485   0.490   0.505   0.508   0.532   0.538
  0.553   0.571   0.574   0.627   0.643   0.651   0.675
 --------------------------------------------------------------
 
          Ground-State Mulliken Net Atomic Charges

     Atom                 Charge (a.u.)
  ----------------------------------------
      1 O                    -0.223228
      2 C                     0.223124
      3 C                    -0.080853
      4 C                    -0.081412
      5 C                     0.210760
      6 O                    -0.168780
      7 C                    -0.052392
      8 C                    -0.054080
      9 O                    -0.170868
     10 C                     0.210822
     11 C                    -0.092100
     12 C                    -0.082537
     13 C                     0.210951
     14 O                    -0.221710
     15 O                    -0.166868
     16 O                    -0.172068
     17 O                    -0.219130
     18 C                    -0.129217
     19 C                     0.023430
     20 C                    -0.147506
     21 C                    -0.143805
     22 C                     0.024195
     23 O                    -0.193280
     24 H                     0.117146
     25 H                     0.095170
     26 H                     0.083289
     27 H                     0.070533
     28 H                     0.086385
     29 H                     0.072513
     30 H                     0.071975
     31 H                     0.080824
     32 O                    -0.207480
     33 C                    -0.127720
     34 C                     0.025280
     35 C                    -0.144759
     36 C                    -0.141444
     37 C                     0.022844
     38 O                    -0.186265
     39 H                     0.086501
     40 H                     0.087606
     41 H                     0.095484
     42 H                     0.082742
     43 H                     0.078930
     44 H                     0.072829
     45 H                     0.081107
     46 H                     0.072774
     47 H                     0.103540
     48 H                     0.088494
     49 H                     0.089778
     50 H                     0.080941
     51 H                     0.085684
     52 H                     0.088436
     53 H                     0.102281
     54 H                     0.090690
     55 H                     0.098978
     56 H                     0.091462
  ----------------------------------------
  Sum of atomic charges =    -0.000000

 -----------------------------------------------------------------
                    Cartesian Multipole Moments
 -----------------------------------------------------------------
    Charge (ESU x 10^10)
                 0.0000
    Dipole Moment (Debye)
         X      -4.6389      Y      -0.1263      Z      -0.8322
       Tot       4.7146
    Quadrupole Moments (Debye-Ang)
        XX    -169.4157     XY      -0.5750     YY    -148.2968
        XZ       0.8871     YZ      -3.2746     ZZ    -149.5248
    Octopole Moments (Debye-Ang^2)
       XXX    -131.1166    XXY     -12.5184    XYY     -22.5263
       YYY      29.2007    XXZ       9.0154    XYZ      -9.4671
       YYZ     -24.8095    XZZ     -24.5093    YZZ      23.4191
       ZZZ      -2.5796
    Hexadecapole Moments (Debye-Ang^3)
      XXXX   -5247.9432   XXXY      53.1619   XXYY   -1302.3053
      XYYY      78.4842   YYYY   -3084.0336   XXXZ     -19.8827
      XXYZ     -51.9359   XYYZ     -66.4879   YYYZ    -221.5152
      XXZZ   -1303.3389   XYZZ     -10.7312   YYZZ    -948.9908
      XZZZ     -89.2423   YZZZ    -209.7979   ZZZZ   -3135.9633
 -----------------------------------------------------------------
Archival summary:
1\1\vega02.cac.cornell.edu\OPT\ProcedureUnspecified\STO-3G\102026\jj585\SunJan1402:20:052018SunJan1402:20:052018\0\\#,OPT,ProcedureUnspecified,STO-3G,\\0,1\O\C,1,1.47871\H,2,1.10705,1,110.442\C,1,1.47964,2,95.4735,3,178.501,0\H,4,1.10941,1,109.829,2,177.585,0\C,4,1.57529,1,102.545,2,-57.7639,0\H,6,1.10174,4,109.773,1,-78.3454,0\H,6,1.10174,4,112.703,1,159.971,0\C,6,1.57519,4,100.837,1,39.1938,0\H,9,1.10139,6,111.707,4,-123.068,0\H,9,1.10188,6,112.551,4,114.327,0\C,2,1.58497,1,101.663,3,121.742,0\H,12,1.10392,2,113.669,1,162.3,0\C,12,1.57479,2,109.269,1,-75.9097,0\O,14,1.25539,12,127.096,2,33.6039,0\O,14,1.42768,12,108.677,2,-140.178,0\C,16,1.48115,14,109.77,12,-177.576,0\H,17,1.10537,16,106.069,14,-179.155,0\H,17,1.10909,16,111.585,14,-59.6957,0\H,17,1.10915,16,110.96,14,61.7123,0\C,12,1.58147,2,100.285,1,42.6117,0\H,21,1.1053,12,110.905,2,107.508,0\C,21,1.56314,12,112.559,2,-132.047,0\O,23,1.25335,21,126.46,12,-3.56678,0\O,23,1.42855,21,108.981,12,178.742,0\C,25,1.48417,23,110.523,21,-176.974,0\H,26,1.10903,25,106.557,23,-149.165,0\H,26,1.11062,25,109.83,23,-29.6848,0\C,26,1.57341,25,110.371,23,91.5987,0\H,29,1.10903,26,109.651,25,-179,0\H,29,1.11103,26,109.744,25,59.3962,0\O,29,1.48036,26,109.927,25,-61.1542,0\C,32,1.43523,29,110.167,26,95.5208,0\O,33,1.25443,32,123.325,29,5.86285,0\C,33,1.55585,32,109.421,29,-172.202,0\H,35,1.11813,33,108.501,32,74.3412,0\C,35,1.58326,33,113.189,32,-163.116,0\H,37,1.10384,35,109.59,33,-117.24,0\C,37,1.56947,35,114.048,33,3.78643,0\O,39,1.24963,37,127.784,35,86.6602,0\O,39,1.43906,37,108.232,35,-97.6902,0\C,41,1.47876,39,109.65,37,176.067,0\H,42,1.10574,41,106.166,39,176.571,0\H,42,1.1092,41,111.935,39,57.0382,0\H,42,1.10964,41,111.19,39,-64.4613,0\C,35,1.58585,33,113.493,32,-48.4842,0\H,46,1.10708,35,114.234,33,32.9224,0\O,46,1.48059,35,103.752,33,-87.8898,0\C,48,1.48175,46,94.915,35,-55.9327,0\H,49,1.10713,48,110.264,46,179.984,0\C,46,1.57827,35,107.258,33,162.556,0\H,51,1.10162,46,110.792,35,-167.237,0\H,51,1.10247,46,111.267,35,-45.3069,0\C,51,1.57442,46,100.953,35,74.4648,0\H,54,1.10158,51,112.579,46,-119.42,0\H,54,1.10166,51,111.639,46,117.837,0\\\@

 Total job time:  205.18s(wall), 9767.15s(cpu) 
 Sun Jan 14 02:20:05 2018

        *************************************************************
        *                                                           *
        *  Thank you very much for using Q-Chem.  Have a nice day.  *
        *                                                           *
        *************************************************************


0 sent ACK to 0 
now end server 0 ... 
