mFile = /opt/software/qchem/qchem-5.0.1//bin/mpi/machines
Process 0 of 1 is on vega02.cac.cornell.edu - thread support 0
initial socket setup ...start
initial socket setup ...done 
now start server 0 ... 
vega02.cac.cornell.edu 10.84.3
Q-Chem Developer Version! Running on 10.84.3.*
                  Welcome to Q-Chem
     A Quantum Leap Into The Future Of Chemistry


 Q-Chem 5.0, Q-Chem, Inc., Pleasanton, CA (2017)

 Yihan Shao,  Zhengting Gan,  E. Epifanovsky,  A. T. B. Gilbert,  M. Wormit,  
 J. Kussmann,  A. W. Lange,  A. Behn,  Jia Deng,  Xintian Feng,  D. Ghosh,  
 M. Goldey,  P. R. Horn,  L. D. Jacobson,  I. Kaliman,  T. Kus,  A. Landau,  
 Jie Liu,  E. I. Proynov,  R. M. Richard,  R. P. Steele,  E. J. Sundstrom,  
 H. L. Woodcock III,  P. M. Zimmerman,  D. Zuev,  B. Albrecht,  E. Alguire,  
 S. A. Baeppler,  Z. Benda,  Y. A. Bernard,  E. J. Berquist,  K. B. Bravaya,  
 D. Casanova,  Chun-Min Chang,  Yunqing Chen,  A. Chien,  K. D. Closser,  
 M. P. Coons,  S. Dasgupta,  M. Diedenhofen,  Hainam Do,  R. G. Edgar,  
 Po-Tung Fang,  S. Fatehi,  Qingguo Feng,  Qinghui Ge,  A. Ghysels,  
 J. Gomes,  J. Gonthier,  A. Gunina,  M. W. D. Hanson-Heine,  
 P. H. P. Harbach,  A. W. Hauser,  J. E. Herr,  E. G. Hohenstein,  
 Z. C. Holden,  Kerwin Hui,  T.-C. Jagau,  Hyunjun Ji,  B. Kaduk,  
 K. Khistyaev,  Jaehoon Kim,  P. Klunzinger,  K. Koh,  D. Kosenkov,  
 T. Kowalczyk,  C. M. Krauter,  A. Kunitsa,  Ka Un Lao,  A. Laurent,  
 K. V. Lawler,  Joonho Lee,  D. Lefrancois,  S. Lehtola,  D. S. Levine,  
 Yi-Pei Li,  You-Sheng Lin,  Fenglai Liu,  E. Livshits,  A. Luenser,  
 P. Manohar,  E. Mansoor,  S. F. Manzer,  Shan-Ping Mao,  Yuezhi Mao,  
 N. Mardirossian,  A. V. Marenich,  L. A. Martinez-Martinez,  S. A. Maurer,  
 N. J. Mayhall,  S. C. McKenzie,  J.-M. Mewes,  A. F. Morrison,  K. Nanda,  
 T. S. Nguyen-Beck,  R. Olivares-Amaya,  J. A. Parkhill,  T. M. Perrine,  
 F. Plasser,  S. Prager,  A. Prociuk,  D. R. Rehn,  F. Rob,  M. Schneider,  
 N. Sergueev,  S. M. Sharada,  S. Sharma,  D. W. Small,  T. Stauch,  
 T. Stein,  Yu-Chuan Su,  A. J. W. Thom,  T. Tsuchimochi,  L. Vogt,  
 O. Vydrov,  M. A. Watson,  J. Wenzel,  M. de Wergifosse,  T. A. Wesolowski,  
 A. White,  J. Witte,  A. Yamada,  Jun Yang,  K. Yao,  S. Yeganeh,  
 S. R. Yost,  Zhi-Qiang You,  A. Zech,  Igor Ying Zhang,  Xing Zhang,  
 Yan Zhao,  Ying Zhu,  B. R. Brooks,  G. K. L. Chan,  C. J. Cramer,  
 M. S. Gordon,  W. J. Hehre,  A. Klamt,  M. W. Schmidt,  C. D. Sherrill,  
 D. G. Truhlar,  A. Aspuru-Guzik,  R. Baer,  A. T. Bell,  N. A. Besley,  
 Jeng-Da Chai,  A. Dreuw,  B. D. Dunietz,  T. R. Furlani,  Chao-Ping Hsu,  
 Yousung Jung,  Jing Kong,  D. S. Lambrecht,  WanZhen Liang,  C. Ochsenfeld,  
 V. A. Rassolov,  L. V. Slipchenko,  J. E. Subotnik,  T. Van Voorhis,  
 J. M. Herbert,  A. I. Krylov,  P. M. W. Gill,  M. Head-Gordon

 Contributors to earlier versions of Q-Chem not listed above: 
 R. D. Adamson,  B. Austin,  J. Baker,  G. J. O. Beran,  K. Brandhorst,  
 S. T. Brown,  E. F. C. Byrd,  A. K. Chakraborty,  C.-L. Cheng,  
 Siu Hung Chien,  D. M. Chipman,  D. L. Crittenden,  H. Dachsel,  
 R. A. DiStasio Jr.,  R. J. Doerksen,  A. D. Dutoi,  L. Fusti-Molnar,  
 W. A. Goddard III,  A. Golubeva-Zadorozhnaya,  S. R. Gwaltney,  G. Hawkins,  
 A. Heyden,  S. Hirata,  G. Kedziora,  F. J. Keil,  C. Kelley,  Jihan Kim,  
 R. A. King,  R. Z. Khaliullin,  P. P. Korambath,  W. Kurlancheek,  
 A. M. Lee,  M. S. Lee,  S. V. Levchenko,  Ching Yeh Lin,  D. Liotard,  
 R. C. Lochan,  I. Lotan,  P. E. Maslen,  N. Nair,  D. P. O'Neill,  
 D. Neuhauser,  E. Neuscamman,  C. M. Oana,  R. Olson,  B. Peters,  
 R. Peverati,  P. A. Pieniazek,  Y. M. Rhee,  J. Ritchie,  M. A. Rohrdanz,  
 E. Rosta,  N. J. Russ,  H. F. Schaefer III,  N. E. Schultz,  N. Shenvi,  
 A. C. Simmonett,  A. Sodt,  D. Stuck,  K. S. Thanthiriwatte,  V. Vanovschi,  
 Tao Wang,  A. Warshel,  C. F. Williams,  Q. Wu,  X. Xu,  W. Zhang

 Please cite Q-Chem as follows:
 Y. Shao et al., Mol. Phys. 113, 184-215 (2015)
 DOI: 10.1080/00268976.2014.952696

 Q-Chem 5.0.1 for Intel X86 EM64T Linux

 Parts of Q-Chem use Armadillo 5.200.1 (Boston Tea Smuggler).
 http://arma.sourceforge.net/

 Q-Chem begins on Sun Jan 14 04:46:34 2018  

Host: vega02.cac.cornell.edu
0

     Scratch files written to /scratch/jj585/SOT1001/0317r.save//
 Parallel job on  1  processors

Checking the input file for inconsistencies... 	...done.

--------------------------------------------------------------
User input:
--------------------------------------------------------------
$molecule
0  1
O -4.435751182 0.7705705702 3.0504623512
C -4.0009483327 0.2562126012 1.9969131071
C -3.6221632744 1.0252696992 0.6817982857
C -3.1018240334 0.1737485417 -0.5519173211
C -2.9084424373 -1.3829117377 -0.3207010918
O -1.7033449458 -1.7122003611 0.4464804569
C -0.5249977194 -1.6231770038 -0.4483006789
C 0.5045310415 -0.5869509721 0.1441867217
O 1.1627770304 0.0733449922 -1.0153115119
C 1.9344061219 1.198324445 -0.540152384
C 3.2410952979 0.9548521096 0.3273385534
C 3.9244394094 -0.4644816979 0.5699393158
C 3.6147855704 -1.627288713 -0.4598741173
O 2.5291332138 -2.2087313341 -0.6734896854
O -3.8498521986 -1.1478158611 1.8069843917
O 4.8090520042 -1.9602881559 -1.1747510183
O 1.6471230628 2.3485839549 -0.9399880818
C 4.528592651 -3.0365021627 -2.152503691
C 4.4830386244 1.823995917 -0.1739420487
C 5.2527652631 2.3165772419 1.1099053534
C 5.8342802813 0.9503328285 1.6311764361
C 5.4473661352 -0.0303044513 0.4504516189
O 5.4191483759 0.8360955029 -0.7535761601
H 2.9584093639 1.3297644093 1.3307880533
H 3.6673200555 -0.8377299285 1.5787839976
H 4.218461936 2.607531026 -0.9107030695
H 6.057762774 3.0144549407 0.8281612129
H 4.5919973043 2.8119891704 1.8390008205
H 6.9275900209 0.9922002339 1.7561048065
H 5.3838199281 0.6370960162 2.5868169189
H 6.1418556043 -0.8774526656 0.2998580047
O -3.6640819841 -2.2672111568 -0.768881451
C -4.2259596511 -1.9019945445 3.0214352448
C -4.9377095508 1.672262026 0.05257661
C -4.5097158619 2.7861747667 -0.9820155421
C -4.0354811614 1.9076187902 -2.1983299343
C -4.2437787228 0.4543617552 -1.6179021772
O -5.4688119976 0.5830662246 -0.7941460116
H -2.8940313195 1.8110211103 0.9542969859
H -2.1338572521 0.5811226588 -0.895016774
H -5.2770794808 -1.6997342564 3.3118428848
H -5.6863828348 1.9874368259 0.8057034469
H -5.3734479841 3.4162840762 -1.2473867397
H -3.710347008 3.4316505534 -0.5845030371
H -4.6724465056 2.0654369629 -3.0832726879
H -2.9868869368 2.0978684225 -2.4777495803
H -4.3682450091 -0.3523425158 -2.3660888792
H -3.5643537491 -1.6485493296 3.8748390442
H -4.1069669913 -2.9699677741 2.7617253606
H 5.4838840032 -3.2241684459 -2.6762648726
H 3.7552391927 -2.7290669124 -2.8855241812
H 4.1889365173 -3.9661580392 -1.6516016999
H -0.0620119062 0.1609530709 0.7448862379
H 1.233600226 -1.0967084814 0.8055359039
H -0.7811754959 -1.2963379221 -1.4784589615
H -0.0435337 -2.6225636739 -0.51959989
$end

$rem
JOBTYPE                   OPT
METHOD                    B3LYP
DFT_D                     d3_op
BASIS                     STO-3G
GEOM_OPT_MAX_CYCLES       100
GEOM_OPT_TOL_GRADIENT     300
GEOM_OPT_TOL_DISPLACEMENT 1200
GEOM_OPT_TOL_ENERGY       100
SYMMETRY                  False
THRESH                    12
SCF_CONVERGENCE           8
MAX_SUB_FILE_NUM          128
MEM_STATIC                400
MEM_TOTAL                 4000
$end
--------------------------------------------------------------
 Adding empirical dispersion correction 
 ----------------------------------------------------------------
 Doing -D3(op) with
 s6 =   1.00000
 s8 =   0.78311
 a1 =   0.30000
 a2 =   4.25000
 n  =  10.00000
 -D3 energy without 3body term =     -0.0675241565 hartrees
 ----------------------------------------------------------------
             Standard Nuclear Orientation (Angstroms)
    I     Atom           X                Y                Z
 ----------------------------------------------------------------
    1      O      -4.6044147723     0.7102372022     2.7889651640
    2      C      -4.0960217857     0.1876987475     1.7730548421
    3      C      -3.6702598405     0.9399654087     0.4626062280
    4      C      -3.0557833527     0.0794349331    -0.7205257817
    5      C      -2.8256412473    -1.4644899458    -0.4423546267
    6      O      -1.6546676842    -1.7366045640     0.3967121402
    7      C      -0.4323133559    -1.6280124323    -0.4346230931
    8      C       0.5293085023    -0.5453656807     0.1881887492
    9      O       1.2288832887     0.1109361669    -0.9491668236
   10      C       1.9367433648     1.2711118667    -0.4595824293
   11      C       3.2008311212     1.0903233049     0.4831017953
   12      C       3.9149139391    -0.2998239798     0.7959899826
   13      C       3.6998335266    -1.4945600749    -0.2212943634
   14      O       2.6467748324    -2.1163588982    -0.4797160771
   15      O      -3.8897886675    -1.2143426192     1.6249103562
   16      O       4.9416950326    -1.8031873432    -0.8621836960
   17      O       1.6351942265     2.4021413787    -0.9015523847
   18      C       4.7501095048    -2.9092876207    -1.8279639443
   19      C       4.4399952236     1.9891478037     0.0295565672
   20      C       5.1217074182     2.5350674475     1.3412805618
   21      C       5.7171276761     1.2006779517     1.9255634087
   22      C       5.4274132798     0.1820912815     0.7491239123
   23      O       5.4377649513     1.0205061457    -0.4748374326
   24      H       2.8514721448     1.4774940682     1.4605620626
   25      H       3.6147460145    -0.6592504473     1.7979400948
   26      H       4.1914029702     2.7471242725    -0.7388303517
   27      H       5.9182166302     3.2530217654     1.0872161833
   28      H       4.4062743626     3.0240497651     2.0214859061
   29      H       6.7999995255     1.2816434443     2.1086462065
   30      H       5.2250169129     0.8936141826     2.8624835767
   31      H       6.1559271554    -0.6445612642     0.6565644290
   32      O      -3.5267413811    -2.3830538278    -0.9098385503
   33      C      -4.3078142677    -1.9538572087     2.8346648546
   34      C      -4.9692319708     1.5288747206    -0.2522631451
   35      C      -4.5208525643     2.6335023673    -1.2881756814
   36      C      -3.9524785591     1.7448046464    -2.4558002814
   37      C      -4.1457353422     0.2984736302    -1.8532899723
   38      O      -5.4177481125     0.4043274215    -1.1005456119
   39      H      -2.9837834858     1.7552978991     0.7555569235
   40      H      -2.0839499029     0.5111984721    -1.0201098062
   41      H      -5.3792661308    -1.7803920954     3.0626987938
   42      H      -5.7679393017     1.8353627202     0.4514261179
   43      H      -5.3884146040     3.2285482111    -1.6149008629
   44      H      -3.7656703190     3.3137788253    -0.8632410221
   45      H      -4.5444970214     1.8619202473    -3.3775123725
   46      H      -2.8967292126     1.9636942453    -2.6822970139
   47      H      -4.2029166193    -0.5281123757    -2.5878189743
   48      H      -3.7026473902    -1.6599061256     3.7164929004
   49      H      -4.1405466607    -3.0227065191     2.6071610182
   50      H       5.7383044808    -3.0764688814    -2.2944905697
   51      H       4.0088232789    -2.6438883529    -2.6089690682
   52      H       4.4133604693    -3.8385471180    -1.3243708385
   53      H      -0.0931140728     0.1962342724     0.7393610685
   54      H       1.2368284511    -1.0159697648     0.9000346968
   55      H      -0.6417401171    -1.3325126028    -1.4846217637
   56      H       0.0841211079    -2.6121383474    -0.4559895075
 ----------------------------------------------------------------
 Molecular Point Group                 C1    NOp =  1
 Largest Abelian Subgroup              C1    NOp =  1
 Nuclear Repulsion Energy =  3093.9161971044 hartrees
 There are      113 alpha and      113 beta electrons
 Requested basis set is STO-3G
 There are 86 shells and 176 basis functions

 Total QAlloc Memory Limit   4000 MB
 Mega-Array Size       392 MB
 MEM_STATIC part       400 MB
 A cutoff of  1.0D-12 yielded   2106 shell pairs
 There are      9855 function pairs
 
 -------------------------------------------------------
 OpenMP Integral Computing Module                       
 Release: version 1.0, May 2013, Q-Chem Inc. Pittsburgh 
 -------------------------------------------------------
 Integral Job Info:
 Integral job number is                      11
 Integral operator is                         1
 short-range coefficients                     0
 long-range coefficients              100000000
 Omega coefficients                           0
 if combine SR and LR in K                    0
 Integral screening is                        0
 Integral computing path is                   2
 max size of driver memory is            800000
 size of driver memory is                 45569
 size of scratch memory is              1046100
 max col of scratch BK array                289
 max len of scratch array in speh3           22
 max len of scratch index in speh4            8
 max int batch size is                      520
 min int batch size is                       52
 fixed nKL is                                52
 max L of basis functions is                  1
 order of int derivative is                   0
 number of shells is                         86
 number of basis is                         176
 number of cartesian basis is               176
 number of contracted shell pairs          2106
 number of primitive shell pairs          10939
 maxK2 (contraction) of shell pair            9
 max number of K2 of shell pair               1
 max number of CS2 of shell pair            315
 max number of PS2 of shell pair           1240
 mem total for path MDJ                   49782
 -------------------------------------------------------
 Smallest overlap matrix eigenvalue = 2.13E-01

 Scale SEOQF with 1.000000e-02/1.000000e-01/1.000000e-01

 Standard Electronic Orientation quadrupole field applied
 Nucleus-field energy     =     0.0000000103 hartrees
 Guess from superposition of atomic densities
 Warning:  Energy on first SCF cycle will be non-variational
 A restricted hybrid HF-DFT SCF calculation will be
 performed using Pulay DIIS extrapolation
 Exchange:     0.2000 Hartree-Fock + 0.0800 Slater + 0.7200 B88
 Correlation:  0.1900 VWN1RPA + 0.8100 LYP
 Using SG-1 standard quadrature grid
 Dispersion:   Grimme D3
 SCF converges when DIIS error is below 1.0E-08
 using 48 threads for integral computing
 -------------------------------------------------------
 OpenMP Integral computing Module                
 Release: version 1.0, May 2013, Q-Chem Inc. Pittsburgh 
 -------------------------------------------------------
 -------------------------------------------------------
 OpenMP BLAS3 based DFT computing Module                
 Release: version 1.0, May 2013, Q-Chem Inc. Pittsburgh 
 -------------------------------------------------------
 ---------------------------------------
  Cycle       Energy         DIIS Error
 ---------------------------------------
    1   -1507.5525510504      7.43E-02
    2   -1509.6573991186      1.07E-02
    3   -1507.2967946227      2.71E-02
    4   -1510.1552029622      4.00E-03
    5   -1510.2175250546      1.58E-03
    6   -1510.2260087762      7.62E-04
    7   -1510.2285438415      1.53E-04
    8   -1510.2286422781      4.25E-05
    9   -1510.2286486055      1.95E-05
   10   -1510.2286501919      5.52E-06
   11   -1510.2286503182      1.53E-06
   12   -1510.2286503282      3.84E-07
   13   -1510.2286503285      2.84E-07
   14   -1510.2286503289      4.99E-08
   15   -1510.2286503289      1.02E-08
   16   -1510.2286503289      4.16E-09 Convergence criterion met
 ---------------------------------------
 SCF time:  CPU 116.51 s  wall 2.48 s
 SCF   energy in the final basis set = -1510.22865033
 Total energy in the final basis set = -1510.22865033
 
 --------------------------------------------------------------
 
                    Orbital Energies (a.u.)
 --------------------------------------------------------------
 
 Alpha MOs
 -- Occupied --
-18.946 -18.941 -18.914 -18.896 -18.890 -18.888 -18.888 -18.886
-18.880 -18.876 -10.109 -10.105 -10.104 -10.102 -10.068 -10.068
-10.066 -10.062 -10.062 -10.062 -10.059 -10.055 -10.047 -10.040
-10.040 -10.032 -10.024 -10.023 -10.019 -10.017  -1.019  -1.018
 -1.009  -0.993  -0.973  -0.969  -0.944  -0.940  -0.937  -0.925
 -0.766  -0.761  -0.726  -0.721  -0.708  -0.703  -0.695  -0.664
 -0.664  -0.605  -0.601  -0.581  -0.549  -0.543  -0.541  -0.537
 -0.518  -0.511  -0.489  -0.481  -0.470  -0.455  -0.445  -0.444
 -0.435  -0.432  -0.427  -0.418  -0.414  -0.413  -0.411  -0.401
 -0.391  -0.388  -0.381  -0.371  -0.364  -0.358  -0.351  -0.347
 -0.343  -0.339  -0.334  -0.334  -0.329  -0.325  -0.314  -0.313
 -0.310  -0.310  -0.305  -0.304  -0.298  -0.296  -0.295  -0.278
 -0.270  -0.259  -0.254  -0.244  -0.236  -0.233  -0.226  -0.184
 -0.182  -0.170  -0.159  -0.158  -0.156  -0.147  -0.147  -0.145
 -0.141
 -- Virtual --
  0.075   0.090   0.094   0.098   0.216   0.233   0.237   0.249
  0.252   0.269   0.275   0.283   0.296   0.309   0.318   0.326
  0.331   0.332   0.333   0.344   0.346   0.352   0.362   0.365
  0.372   0.380   0.385   0.394   0.398   0.406   0.407   0.410
  0.411   0.420   0.420   0.422   0.424   0.429   0.430   0.432
  0.436   0.437   0.438   0.443   0.446   0.447   0.456   0.465
  0.469   0.476   0.486   0.493   0.495   0.506   0.509   0.534
  0.545   0.553   0.555   0.604   0.630   0.635   0.638
 --------------------------------------------------------------
 
          Ground-State Mulliken Net Atomic Charges

     Atom                 Charge (a.u.)
  ----------------------------------------
      1 O                    -0.214975
      2 C                     0.212462
      3 C                    -0.078846
      4 C                    -0.085997
      5 C                     0.233338
      6 O                    -0.199264
      7 C                    -0.049334
      8 C                    -0.045841
      9 O                    -0.184910
     10 C                     0.212840
     11 C                    -0.086701
     12 C                    -0.079766
     13 C                     0.208956
     14 O                    -0.214362
     15 O                    -0.161883
     16 O                    -0.165555
     17 O                    -0.189806
     18 C                    -0.127147
     19 C                     0.024265
     20 C                    -0.141848
     21 C                    -0.146463
     22 C                     0.024613
     23 O                    -0.188078
     24 H                     0.080503
     25 H                     0.081184
     26 H                     0.089685
     27 H                     0.078951
     28 H                     0.073681
     29 H                     0.078753
     30 H                     0.071938
     31 H                     0.092426
     32 O                    -0.187345
     33 C                    -0.122896
     34 C                     0.025450
     35 C                    -0.144033
     36 C                    -0.144255
     37 C                     0.023958
     38 O                    -0.189452
     39 H                     0.084809
     40 H                     0.080438
     41 H                     0.093153
     42 H                     0.085756
     43 H                     0.078435
     44 H                     0.074332
     45 H                     0.078125
     46 H                     0.075197
     47 H                     0.088092
     48 H                     0.090526
     49 H                     0.098715
     50 H                     0.092349
     51 H                     0.092636
     52 H                     0.088458
     53 H                     0.073013
     54 H                     0.085961
     55 H                     0.084116
     56 H                     0.091643
  ----------------------------------------
  Sum of atomic charges =     0.000000

 -----------------------------------------------------------------
                    Cartesian Multipole Moments
 -----------------------------------------------------------------
    Charge (ESU x 10^10)
                -0.0000
    Dipole Moment (Debye)
         X       3.0084      Y       0.2956      Z       1.8457
       Tot       3.5418
    Quadrupole Moments (Debye-Ang)
        XX    -166.5567     XY      -9.7578     YY    -160.1645
        XZ       6.6394     YZ      -0.9365     ZZ    -156.2071
    Octopole Moments (Debye-Ang^2)
       XXX      75.7975    XXY     -15.4018    XYY      19.0679
       YYY     -31.6886    XXZ      34.5306    XYZ      51.0446
       YYZ       3.6244    XZZ       9.6748    YZZ     -31.5710
       ZZZ     -14.9869
    Hexadecapole Moments (Debye-Ang^3)
      XXXX  -15651.1228   XXXY    -163.3820   XXYY   -2825.3774
      XYYY     -76.5991   YYYY   -2690.3589   XXXZ     -41.3673
      XXYZ     -55.1453   XYYZ    -100.5173   YYYZ      11.1685
      XXZZ   -2828.2821   XYZZ      47.2378   YYZZ    -744.3499
      XZZZ     -69.4298   YZZZ     -35.7460   ZZZZ   -1923.6275
 -----------------------------------------------------------------
 Calculating analytic gradient of the SCF energy
 Gradient of SCF Energy
            1           2           3           4           5           6
    1  -0.0015685   0.0017441   0.0002488  -0.0011294   0.0008443  -0.0000213
    2  -0.0003612   0.0004012   0.0001139   0.0001879  -0.0009675   0.0031462
    3  -0.0006895   0.0007829   0.0000950   0.0016077  -0.0018242   0.0005767
            7           8           9          10          11          12
    1  -0.0017196   0.0037780   0.0046667  -0.0113560   0.0079158  -0.0029282
    2  -0.0006317  -0.0035096   0.0005604   0.0004082   0.0011625   0.0012230
    3  -0.0004290   0.0002064  -0.0070494   0.0128292  -0.0119613   0.0036542
           13          14          15          16          17          18
    1   0.0001498  -0.0009172  -0.0000373  -0.0000949  -0.0000269   0.0000736
    2  -0.0046424   0.0028372  -0.0000500   0.0000454   0.0000368   0.0000626
    3   0.0055217  -0.0032729  -0.0000123   0.0000544  -0.0000314   0.0001919
           19          20          21          22          23          24
    1  -0.0000996   0.0000980   0.0002016  -0.0000406  -0.0000034   0.0003591
    2   0.0000041   0.0000457   0.0000489   0.0000443   0.0000651  -0.0001665
    3   0.0002783  -0.0001024   0.0000410  -0.0001451  -0.0001468  -0.0000594
           25          26          27          28          29          30
    1  -0.0000640   0.0000113  -0.0000015   0.0001125  -0.0000172  -0.0001241
    2   0.0000683   0.0000038  -0.0000128   0.0000639  -0.0000086  -0.0000106
    3  -0.0000486  -0.0000015  -0.0000060   0.0000272   0.0000626   0.0000676
           31          32          33          34          35          36
    1  -0.0000478  -0.0001209   0.0000175  -0.0003760   0.0001858  -0.0002270
    2  -0.0001266  -0.0000275  -0.0000074  -0.0001325  -0.0002871   0.0002862
    3  -0.0001193   0.0000401  -0.0000010  -0.0001572  -0.0000892  -0.0001778
           37          38          39          40          41          42
    1   0.0002470   0.0000827  -0.0000028   0.0001355   0.0000249   0.0000160
    2  -0.0002839   0.0001464   0.0000104  -0.0000395   0.0000182  -0.0000163
    3  -0.0000851   0.0001129   0.0000117   0.0000101  -0.0000101   0.0000228
           43          44          45          46          47          48
    1  -0.0000382  -0.0000613   0.0000107  -0.0000033   0.0001177  -0.0000160
    2   0.0001128   0.0000531  -0.0000241   0.0000532  -0.0000103   0.0000297
    3   0.0000415  -0.0000460   0.0000403   0.0000924   0.0001318  -0.0000022
           49          50          51          52          53          54
    1  -0.0000093   0.0000366  -0.0000118  -0.0000082   0.0000039   0.0000049
    2   0.0000061   0.0000034  -0.0000513  -0.0000093   0.0000484   0.0000844
    3   0.0000139  -0.0000108  -0.0001279  -0.0000035   0.0001512   0.0000630
           55          56
    1  -0.0000450   0.0000303
    2  -0.0000029  -0.0000019
    3  -0.0001293   0.0000103
 Max gradient component =       1.283E-02
 RMS gradient           =       2.078E-03
 Gradient time:  CPU 32.69 s  wall 0.70 s
 Geometry Optimization Parameters
   NAtoms,    NIC,     NZ,  NCons,   NDum,   NFix, NCnnct, MaxDiis
       56     458       0       0       0       0       0       0


** GEOMETRY OPTIMIZATION IN DELOCALIZED INTERNAL COORDINATES **
   Searching for a Minimum

   Optimization Cycle:   1

                       Coordinates (Angstroms)
     ATOM                X               Y               Z
      1  O        -4.6044147723    0.7102372022    2.7889651640
      2  C        -4.0960217857    0.1876987475    1.7730548421
      3  C        -3.6702598405    0.9399654087    0.4626062280
      4  C        -3.0557833527    0.0794349331   -0.7205257817
      5  C        -2.8256412473   -1.4644899458   -0.4423546267
      6  O        -1.6546676842   -1.7366045640    0.3967121402
      7  C        -0.4323133559   -1.6280124323   -0.4346230931
      8  C         0.5293085023   -0.5453656807    0.1881887492
      9  O         1.2288832887    0.1109361669   -0.9491668236
     10  C         1.9367433648    1.2711118667   -0.4595824293
     11  C         3.2008311212    1.0903233049    0.4831017953
     12  C         3.9149139391   -0.2998239798    0.7959899826
     13  C         3.6998335266   -1.4945600749   -0.2212943634
     14  O         2.6467748324   -2.1163588982   -0.4797160771
     15  O        -3.8897886675   -1.2143426192    1.6249103562
     16  O         4.9416950326   -1.8031873432   -0.8621836960
     17  O         1.6351942265    2.4021413787   -0.9015523847
     18  C         4.7501095048   -2.9092876207   -1.8279639443
     19  C         4.4399952236    1.9891478037    0.0295565672
     20  C         5.1217074182    2.5350674475    1.3412805618
     21  C         5.7171276761    1.2006779517    1.9255634087
     22  C         5.4274132798    0.1820912815    0.7491239123
     23  O         5.4377649513    1.0205061457   -0.4748374326
     24  H         2.8514721448    1.4774940682    1.4605620626
     25  H         3.6147460145   -0.6592504473    1.7979400948
     26  H         4.1914029702    2.7471242725   -0.7388303517
     27  H         5.9182166302    3.2530217654    1.0872161833
     28  H         4.4062743626    3.0240497651    2.0214859061
     29  H         6.7999995255    1.2816434443    2.1086462065
     30  H         5.2250169129    0.8936141826    2.8624835767
     31  H         6.1559271554   -0.6445612642    0.6565644290
     32  O        -3.5267413811   -2.3830538278   -0.9098385503
     33  C        -4.3078142677   -1.9538572087    2.8346648546
     34  C        -4.9692319708    1.5288747206   -0.2522631451
     35  C        -4.5208525643    2.6335023673   -1.2881756814
     36  C        -3.9524785591    1.7448046464   -2.4558002814
     37  C        -4.1457353422    0.2984736302   -1.8532899723
     38  O        -5.4177481125    0.4043274215   -1.1005456119
     39  H        -2.9837834858    1.7552978991    0.7555569235
     40  H        -2.0839499029    0.5111984721   -1.0201098062
     41  H        -5.3792661308   -1.7803920954    3.0626987938
     42  H        -5.7679393017    1.8353627202    0.4514261179
     43  H        -5.3884146040    3.2285482111   -1.6149008629
     44  H        -3.7656703190    3.3137788253   -0.8632410221
     45  H        -4.5444970214    1.8619202473   -3.3775123725
     46  H        -2.8967292126    1.9636942453   -2.6822970139
     47  H        -4.2029166193   -0.5281123757   -2.5878189743
     48  H        -3.7026473902   -1.6599061256    3.7164929004
     49  H        -4.1405466607   -3.0227065191    2.6071610182
     50  H         5.7383044808   -3.0764688814   -2.2944905697
     51  H         4.0088232789   -2.6438883529   -2.6089690682
     52  H         4.4133604693   -3.8385471180   -1.3243708385
     53  H        -0.0931140728    0.1962342724    0.7393610685
     54  H         1.2368284511   -1.0159697648    0.9000346968
     55  H        -0.6417401171   -1.3325126028   -1.4846217637
     56  H         0.0841211079   -2.6121383474   -0.4559895075
   Point Group: c1    Number of degrees of freedom:   162


   Energy is  -1510.228650329


 Attempting to Generate Delocalized Internal Coordinates

162 Hessian modes will be used to form the next step
  Hessian Eigenvalues:
     0.002000    0.002000    0.002000    0.002000    0.002000    0.002687
     0.002820    0.003213    0.004024    0.004109    0.004478    0.004587
     0.004765    0.004951    0.005298    0.006807    0.006823    0.006910
     0.009750    0.011524    0.012358    0.021155    0.021752    0.024278
     0.026178    0.030240    0.030668    0.034358    0.035166    0.035829
     0.040575    0.041444    0.042082    0.042940    0.043646    0.046165
     0.046369    0.049584    0.051272    0.051534    0.052176    0.053471
     0.054411    0.055207    0.056095    0.056234    0.057004    0.058360
     0.059090    0.059163    0.060205    0.060610    0.060659    0.062813
     0.063705    0.064138    0.064684    0.069860    0.069896    0.072856
     0.073307    0.092144    0.092646    0.093637    0.093876    0.095634
     0.096698    0.097347    0.097511    0.102826    0.103184    0.105464
     0.108165    0.111095    0.113009    0.120514    0.124597    0.133776
     0.135980    0.158450    0.160000    0.160000    0.160000    0.160000
     0.160000    0.160000    0.160515    0.163501    0.165487    0.219498
     0.219852    0.219985    0.220804    0.224751    0.227536    0.238824
     0.238908    0.239172    0.239776    0.243044    0.244646    0.247143
     0.248348    0.248890    0.249637    0.249739    0.249893    0.250000
     0.250000    0.250000    0.250000    0.250000    0.250000    0.250000
     0.250000    0.250000    0.253400    0.253571    0.255304    0.260295
     0.291989    0.293225    0.307018    0.308094    0.321720    0.324307
     0.325250    0.326751    0.326882    0.326957    0.327047    0.327591
     0.328263    0.328425    0.328570    0.328908    0.330293    0.330556
     0.330789    0.330813    0.330955    0.331545    0.334604    0.334680
     0.334910    0.334942    0.334997    0.335006    0.335073    0.335475
     0.336856    0.343134    0.344733    0.347742    0.362190    0.389659
     0.408235    0.417382    0.827957    0.830769    0.832593    0.845314

 Minimum Search - Taking Simple RFO Step
 Searching for Lamda that Minimizes Along All modes
 Value Taken    Lamda =  -0.01355060
 Calculated Step too Large.  Step scaled by  0.343771
 Step Taken.  Stepsize is  0.300000

                             Maximum     Tolerance    Cnvgd?
         Gradient           0.005342      0.000300      NO
         Displacement       0.082532      0.001200      NO
         Energy change     *********      0.000001      NO


 New Cartesian Coordinates Obtained by Inverse Iteration

 Displacement from previous Coordinates is:  3.071410
 Adding empirical dispersion correction 
 ----------------------------------------------------------------
 Doing -D3(op) with
 s6 =   1.00000
 s8 =   0.78311
 a1 =   0.30000
 a2 =   4.25000
 n  =  10.00000
 -D3 energy without 3body term =     -0.0672838523 hartrees
 ----------------------------------------------------------------
             Standard Nuclear Orientation (Angstroms)
    I     Atom           X                Y                Z
 ----------------------------------------------------------------
    1      O      -4.5309467388     0.9408909985     2.7700148767
    2      C      -4.0777621549     0.3303233971     1.7773142509
    3      C      -3.6408084635     0.9774239117     0.4154104914
    4      C      -3.0768716296     0.0177619746    -0.7150383646
    5      C      -2.9026323298    -1.5123109746    -0.3374324203
    6      O      -1.7365710834    -1.7711151858     0.5127325521
    7      C      -0.5091870522    -1.6875145517    -0.3140453988
    8      C       0.4467568054    -0.5843181291     0.2810209806
    9      O       1.1604201016     0.0297425486    -0.8710839263
   10      C       1.9040037032     1.1778526897    -0.4064438330
   11      C       3.1678549282     0.9841714723     0.5340171251
   12      C       3.9636797232    -0.3856724130     0.7214216156
   13      C       3.8175046472    -1.4920972849    -0.4024959058
   14      O       2.8158277210    -2.1833889241    -0.6872545448
   15      O      -3.9359292618    -1.0861864181     1.7173989954
   16      O       5.0695141578    -1.6548728689    -1.0764888024
   17      O       1.5736720350     2.3205097840    -0.7946259471
   18      C       4.9458970526    -2.6922793507    -2.1260058856
   19      C       4.3550292980     1.9845517399     0.1581376766
   20      C       5.0082933501     2.4552706525     1.5126540584
   21      C       5.6803445118     1.1119835018     1.9816662692
   22      C       5.4458576470     0.1839019424     0.7211858055
   23      O       5.4048975580     1.1223607183    -0.4260574000
   24      H       2.7990687894     1.2758155611     1.5373043326
   25      H       3.6912476736    -0.8527106205     1.6862552942
   26      H       4.0615038474     2.7896084091    -0.5436241402
   27      H       5.7618263024     3.2365450428     1.3222832950
   28      H       4.2678967532     2.8427235351     2.2305338112
   29      H       6.7574014206     1.2385707514     2.1730270256
   30      H       5.2094140456     0.6979255443     2.8877164046
   31      H       6.2202164365    -0.5885106632     0.5589595073
   32      O      -3.6322573495    -2.4343644921    -0.7512778271
   33      C      -4.3563852518    -1.7267324249     2.9815568974
   34      C      -4.9233125580     1.5728822409    -0.3228007691
   35      C      -4.4429425775     2.5882115721    -1.4330839503
   36      C      -3.9265317435     1.6025028038    -2.5458912021
   37      C      -4.1715401045     0.2076560672    -1.8486269495
   38      O      -5.4284320328     0.4153523714    -1.0914926008
   39      H      -2.9167789275     1.7799431448     0.6468657980
   40      H      -2.0924520708     0.3901438594    -1.0508397582
   41      H      -5.4135671214    -1.4912789139     3.2204152797
   42      H      -5.6996438119     1.9575970693     0.3673843187
   43      H      -5.2892803824     3.1966132704    -1.7894011093
   44      H      -3.6549359589     3.2621878451    -1.0609535245
   45      H      -4.5249240619     1.6845003868    -3.4673056347
   46      H      -2.8656374965     1.7615906829    -2.7969431561
   47      H      -4.2720963154    -0.6614964372    -2.5273074395
   48      H      -3.7180221979    -1.4040279473     3.8292669884
   49      H      -4.2409792956    -2.8144202416     2.8209153382
   50      H       5.9365088371    -2.7473329119    -2.6135929230
   51      H       4.1751201440    -2.4220384484    -2.8761304011
   52      H       4.6865435224    -3.6811524998    -1.6954459413
   53      H      -0.1769269903     0.1768537967     0.8032085854
   54      H       1.1469019511    -1.0349576920     1.0127917168
   55      H      -0.7114593163    -1.4247375375    -1.3740254041
   56      H       0.0076929649    -2.6715456286    -0.3012616365
 ----------------------------------------------------------------
 Molecular Point Group                 C1    NOp =  1
 Largest Abelian Subgroup              C1    NOp =  1
 Nuclear Repulsion Energy =  3087.1108525643 hartrees
 There are      113 alpha and      113 beta electrons
 Applying Cartesian multipole field
    Component          Value
    ---------          -----
     (2,0,0)        1.00000E-12
     (0,2,0)        2.00000E-11
     (0,0,2)       -3.00000E-11
 Nucleus-field energy     =     0.0000000048 hartrees
 Requested basis set is STO-3G
 There are 86 shells and 176 basis functions
 A cutoff of  1.0D-12 yielded   2104 shell pairs
 There are      9850 function pairs
 Smallest overlap matrix eigenvalue = 2.13E-01
 Guess MOs from SCF MO coefficient file
 Reading MOs from coefficient file
 Reading MOs from coefficient file
 A restricted hybrid HF-DFT SCF calculation will be
 performed using Pulay DIIS extrapolation
 Exchange:     0.2000 Hartree-Fock + 0.0800 Slater + 0.7200 B88
 Correlation:  0.1900 VWN1RPA + 0.8100 LYP
 Using SG-1 standard quadrature grid
 Dispersion:   Grimme D3
 SCF converges when DIIS error is below 1.0E-08
 Geometry optimization detected.  Setting ReadMinima to 0
 Setting SaveMinima to 0
 using 48 threads for integral computing
 -------------------------------------------------------
 OpenMP Integral computing Module                
 Release: version 1.0, May 2013, Q-Chem Inc. Pittsburgh 
 -------------------------------------------------------
 -------------------------------------------------------
 OpenMP BLAS3 based DFT computing Module                
 Release: version 1.0, May 2013, Q-Chem Inc. Pittsburgh 
 -------------------------------------------------------
 ---------------------------------------
  Cycle       Energy         DIIS Error
 ---------------------------------------
    1   -1510.1359736886      4.39E-03
    2   -1510.2292992554      4.33E-04
    3   -1510.2282981315      7.11E-04
    4   -1510.2303714921      1.94E-04
    5   -1510.2305314444      5.25E-05
    6   -1510.2305415751      2.74E-05
    7   -1510.2305446961      9.98E-06
    8   -1510.2305451360      2.14E-06
    9   -1510.2305451609      7.64E-07
   10   -1510.2305451629      5.80E-07
   11   -1510.2305451644      1.76E-07
   12   -1510.2305451645      3.61E-08
   13   -1510.2305451644      1.68E-08
   14   -1510.2305451644      6.76E-09 Convergence criterion met
 ---------------------------------------
 SCF time:  CPU 97.45 s  wall 2.04 s
 SCF   energy in the final basis set = -1510.23054516
 Total energy in the final basis set = -1510.23054516
 
 --------------------------------------------------------------
 
                    Orbital Energies (a.u.)
 --------------------------------------------------------------
 
 Alpha MOs
 -- Occupied --
-18.947 -18.939 -18.915 -18.899 -18.890 -18.890 -18.889 -18.887
-18.878 -18.876 -10.111 -10.104 -10.104 -10.103 -10.070 -10.069
-10.066 -10.065 -10.061 -10.061 -10.060 -10.056 -10.046 -10.041
-10.041 -10.033 -10.023 -10.022 -10.019 -10.018  -1.018  -1.016
 -1.010  -0.994  -0.973  -0.969  -0.943  -0.940  -0.937  -0.927
 -0.765  -0.761  -0.725  -0.722  -0.708  -0.703  -0.698  -0.665
 -0.663  -0.605  -0.602  -0.584  -0.549  -0.544  -0.541  -0.537
 -0.518  -0.512  -0.489  -0.481  -0.470  -0.456  -0.445  -0.443
 -0.436  -0.433  -0.428  -0.417  -0.414  -0.412  -0.412  -0.402
 -0.392  -0.389  -0.380  -0.371  -0.366  -0.358  -0.351  -0.347
 -0.344  -0.340  -0.335  -0.333  -0.329  -0.325  -0.315  -0.314
 -0.310  -0.309  -0.306  -0.304  -0.298  -0.296  -0.294  -0.279
 -0.271  -0.258  -0.255  -0.245  -0.236  -0.234  -0.227  -0.183
 -0.182  -0.172  -0.160  -0.159  -0.154  -0.149  -0.147  -0.146
 -0.142
 -- Virtual --
  0.074   0.089   0.096   0.098   0.215   0.235   0.236   0.249
  0.252   0.270   0.274   0.282   0.295   0.308   0.317   0.325
  0.329   0.332   0.334   0.343   0.346   0.351   0.360   0.366
  0.372   0.380   0.383   0.394   0.396   0.406   0.406   0.410
  0.411   0.419   0.421   0.421   0.425   0.430   0.431   0.432
  0.433   0.437   0.437   0.444   0.445   0.445   0.457   0.465
  0.469   0.474   0.486   0.491   0.494   0.505   0.508   0.534
  0.545   0.553   0.555   0.603   0.629   0.636   0.637
 --------------------------------------------------------------
 
          Ground-State Mulliken Net Atomic Charges

     Atom                 Charge (a.u.)
  ----------------------------------------
      1 O                    -0.214735
      2 C                     0.212332
      3 C                    -0.079029
      4 C                    -0.086370
      5 C                     0.233287
      6 O                    -0.198210
      7 C                    -0.049081
      8 C                    -0.046338
      9 O                    -0.185809
     10 C                     0.214534
     11 C                    -0.086489
     12 C                    -0.079062
     13 C                     0.207836
     14 O                    -0.213966
     15 O                    -0.162027
     16 O                    -0.166412
     17 O                    -0.188303
     18 C                    -0.127142
     19 C                     0.023829
     20 C                    -0.142047
     21 C                    -0.146611
     22 C                     0.024702
     23 O                    -0.188230
     24 H                     0.080601
     25 H                     0.081175
     26 H                     0.089640
     27 H                     0.078750
     28 H                     0.073097
     29 H                     0.078632
     30 H                     0.071797
     31 H                     0.092171
     32 O                    -0.186922
     33 C                    -0.122922
     34 C                     0.025462
     35 C                    -0.143985
     36 C                    -0.144222
     37 C                     0.023905
     38 O                    -0.189423
     39 H                     0.084982
     40 H                     0.080635
     41 H                     0.093239
     42 H                     0.085722
     43 H                     0.078512
     44 H                     0.074635
     45 H                     0.078154
     46 H                     0.075165
     47 H                     0.088266
     48 H                     0.090596
     49 H                     0.098766
     50 H                     0.091905
     51 H                     0.092073
     52 H                     0.088328
     53 H                     0.076091
     54 H                     0.081698
     55 H                     0.085661
     56 H                     0.091157
  ----------------------------------------
  Sum of atomic charges =     0.000000

 -----------------------------------------------------------------
                    Cartesian Multipole Moments
 -----------------------------------------------------------------
    Charge (ESU x 10^10)
                 0.0000
    Dipole Moment (Debye)
         X       2.9162      Y       0.2710      Z       1.7075
       Tot       3.3901
    Quadrupole Moments (Debye-Ang)
        XX    -166.7251     XY     -10.0149     YY    -162.1736
        XZ       6.1561     YZ      -1.1443     ZZ    -154.6837
    Octopole Moments (Debye-Ang^2)
       XXX      80.5209    XXY     -20.2576    XYY      19.4841
       YYY     -25.1299    XXZ      31.0863    XYZ      51.3327
       YYZ      -0.2167    XZZ       8.4437    YZZ     -33.7580
       ZZZ     -16.5937
    Hexadecapole Moments (Debye-Ang^3)
      XXXX  -15704.1607   XXXY    -167.0205   XXYY   -2859.4624
      XYYY     -28.1404   YYYY   -2577.5036   XXXZ     -38.1601
      XXYZ     -56.7755   XYYZ     -66.1051   YYYZ     -35.4104
      XXZZ   -2815.2305   XYZZ      62.7248   YYZZ    -751.9140
      XZZZ     -51.6427   YZZZ     -79.7174   ZZZZ   -2054.4586
 -----------------------------------------------------------------
 Calculating analytic gradient of the SCF energy
 Gradient of SCF Energy
            1           2           3           4           5           6
    1  -0.0009763   0.0002829   0.0003805  -0.0006879  -0.0001351  -0.0000758
    2  -0.0000313  -0.0001214  -0.0000367   0.0006773  -0.0018633   0.0043696
    3  -0.0003402   0.0001447   0.0001709   0.0012158  -0.0002005   0.0006555
            7           8           9          10          11          12
    1  -0.0015182  -0.0009933   0.0034108  -0.0061695   0.0041872  -0.0021319
    2  -0.0012178  -0.0012169   0.0025849  -0.0020811   0.0017759   0.0000326
    3  -0.0002077   0.0036285  -0.0045122   0.0050124  -0.0073663   0.0034770
           13          14          15          16          17          18
    1   0.0021068   0.0037560   0.0007175  -0.0005465  -0.0018774   0.0001584
    2  -0.0023136  -0.0009990   0.0001238  -0.0007242   0.0003276  -0.0002111
    3   0.0018968  -0.0038685   0.0003277   0.0011073   0.0026445  -0.0000545
           19          20          21          22          23          24
    1  -0.0004669  -0.0002447   0.0003182  -0.0004716   0.0005747   0.0007823
    2  -0.0010090  -0.0000893  -0.0004287   0.0007642  -0.0004911   0.0011034
    3  -0.0002836  -0.0001259   0.0002539  -0.0001623  -0.0001122  -0.0000046
           25          26          27          28          29          30
    1   0.0005985   0.0003145   0.0000143   0.0001127  -0.0000084  -0.0000991
    2   0.0000863   0.0000402   0.0001290   0.0001292  -0.0000044   0.0001846
    3   0.0002530  -0.0000839   0.0000378  -0.0000180   0.0000085  -0.0000368
           31          32          33          34          35          36
    1  -0.0000085   0.0001687  -0.0000013  -0.0003400   0.0002538  -0.0002457
    2   0.0000033  -0.0001294   0.0000537   0.0000188  -0.0001789   0.0004010
    3  -0.0002361  -0.0012020   0.0000744  -0.0002634  -0.0000789  -0.0000333
           37          38          39          40          41          42
    1   0.0000908   0.0000312   0.0001245   0.0005089   0.0000240   0.0000097
    2  -0.0005266   0.0000236   0.0000047  -0.0003687   0.0000423  -0.0000715
    3  -0.0000578   0.0001254  -0.0001679   0.0001594  -0.0000522   0.0001423
           43          44          45          46          47          48
    1  -0.0000448  -0.0000651   0.0000075   0.0000209   0.0000864  -0.0000262
    2   0.0000842   0.0000052   0.0000184  -0.0000206   0.0000106  -0.0000010
    3   0.0000872  -0.0000103  -0.0000387   0.0000628   0.0000007   0.0000046
           49          50          51          52          53          54
    1   0.0000077   0.0000176  -0.0000370   0.0000152  -0.0003718  -0.0017250
    2   0.0000229   0.0000285   0.0000571   0.0000215   0.0003546   0.0001408
    3   0.0000049  -0.0000057   0.0000173   0.0000038  -0.0004605  -0.0014092
           55          56
    1  -0.0002750   0.0004607
    2   0.0003278   0.0001882
    3  -0.0001687   0.0000450
 Max gradient component =       7.366E-03
 RMS gradient           =       1.370E-03
 Gradient time:  CPU 32.25 s  wall 0.68 s
 Geometry Optimization Parameters
   NAtoms,    NIC,     NZ,  NCons,   NDum,   NFix, NCnnct, MaxDiis
       56     458       0       0       0       0       0       0

 Cartesian Hessian Update
 Hessian Updated using BFGS Update


** GEOMETRY OPTIMIZATION IN DELOCALIZED INTERNAL COORDINATES **
   Searching for a Minimum

   Optimization Cycle:   2

                       Coordinates (Angstroms)
     ATOM                X               Y               Z
      1  O        -4.5309467388    0.9408909985    2.7700148767
      2  C        -4.0777621549    0.3303233971    1.7773142509
      3  C        -3.6408084635    0.9774239117    0.4154104914
      4  C        -3.0768716296    0.0177619746   -0.7150383646
      5  C        -2.9026323298   -1.5123109746   -0.3374324203
      6  O        -1.7365710834   -1.7711151858    0.5127325521
      7  C        -0.5091870522   -1.6875145517   -0.3140453988
      8  C         0.4467568054   -0.5843181291    0.2810209806
      9  O         1.1604201016    0.0297425486   -0.8710839263
     10  C         1.9040037032    1.1778526897   -0.4064438330
     11  C         3.1678549282    0.9841714723    0.5340171251
     12  C         3.9636797232   -0.3856724130    0.7214216156
     13  C         3.8175046472   -1.4920972849   -0.4024959058
     14  O         2.8158277210   -2.1833889241   -0.6872545448
     15  O        -3.9359292618   -1.0861864181    1.7173989954
     16  O         5.0695141578   -1.6548728689   -1.0764888024
     17  O         1.5736720350    2.3205097840   -0.7946259471
     18  C         4.9458970526   -2.6922793507   -2.1260058856
     19  C         4.3550292980    1.9845517399    0.1581376766
     20  C         5.0082933501    2.4552706525    1.5126540584
     21  C         5.6803445118    1.1119835018    1.9816662692
     22  C         5.4458576470    0.1839019424    0.7211858055
     23  O         5.4048975580    1.1223607183   -0.4260574000
     24  H         2.7990687894    1.2758155611    1.5373043326
     25  H         3.6912476736   -0.8527106205    1.6862552942
     26  H         4.0615038474    2.7896084091   -0.5436241402
     27  H         5.7618263024    3.2365450428    1.3222832950
     28  H         4.2678967532    2.8427235351    2.2305338112
     29  H         6.7574014206    1.2385707514    2.1730270256
     30  H         5.2094140456    0.6979255443    2.8877164046
     31  H         6.2202164365   -0.5885106632    0.5589595073
     32  O        -3.6322573495   -2.4343644921   -0.7512778271
     33  C        -4.3563852518   -1.7267324249    2.9815568974
     34  C        -4.9233125580    1.5728822409   -0.3228007691
     35  C        -4.4429425775    2.5882115721   -1.4330839503
     36  C        -3.9265317435    1.6025028038   -2.5458912021
     37  C        -4.1715401045    0.2076560672   -1.8486269495
     38  O        -5.4284320328    0.4153523714   -1.0914926008
     39  H        -2.9167789275    1.7799431448    0.6468657980
     40  H        -2.0924520708    0.3901438594   -1.0508397582
     41  H        -5.4135671214   -1.4912789139    3.2204152797
     42  H        -5.6996438119    1.9575970693    0.3673843187
     43  H        -5.2892803824    3.1966132704   -1.7894011093
     44  H        -3.6549359589    3.2621878451   -1.0609535245
     45  H        -4.5249240619    1.6845003868   -3.4673056347
     46  H        -2.8656374965    1.7615906829   -2.7969431561
     47  H        -4.2720963154   -0.6614964372   -2.5273074395
     48  H        -3.7180221979   -1.4040279473    3.8292669884
     49  H        -4.2409792956   -2.8144202416    2.8209153382
     50  H         5.9365088371   -2.7473329119   -2.6135929230
     51  H         4.1751201440   -2.4220384484   -2.8761304011
     52  H         4.6865435224   -3.6811524998   -1.6954459413
     53  H        -0.1769269903    0.1768537967    0.8032085854
     54  H         1.1469019511   -1.0349576920    1.0127917168
     55  H        -0.7114593163   -1.4247375375   -1.3740254041
     56  H         0.0076929649   -2.6715456286   -0.3012616365
   Point Group: c1    Number of degrees of freedom:   162


   Energy is  -1510.230545164

 Hessian Updated using BFGS Update

149 Hessian modes will be used to form the next step
  Hessian Eigenvalues:
     0.001917    0.002646    0.002692    0.003050    0.003261    0.003859
     0.004169    0.004583    0.004719    0.004951    0.005298    0.005790
     0.006397    0.006823    0.007225    0.011521    0.012358    0.018956
     0.021748    0.022932    0.026125    0.028001    0.030666    0.031632
     0.033579    0.035156    0.035608    0.040574    0.041413    0.042019
     0.042977    0.043643    0.046277    0.049579    0.051007    0.051399
     0.051535    0.053313    0.054398    0.055188    0.055838    0.056231
     0.056711    0.057533    0.058374    0.059096    0.059174    0.060598
     0.060611    0.062632    0.063447    0.063705    0.064144    0.064689
     0.069850    0.069889    0.072855    0.073598    0.092372    0.092639
     0.093595    0.093863    0.095634    0.096697    0.097346    0.100179
     0.102826    0.103184    0.105519    0.108181    0.111089    0.115969
     0.120379    0.133367    0.135583    0.138916    0.158389    0.159992
     0.160000    0.163496    0.163857    0.182436    0.219450    0.219845
     0.219963    0.221138    0.227492    0.228473    0.238825    0.238913
     0.239315    0.239768    0.243136    0.244646    0.247260    0.248348
     0.248625    0.249238    0.249647    0.249741    0.249893    0.250000
     0.253396    0.253564    0.255294    0.260295    0.291973    0.293223
     0.306326    0.308074    0.321711    0.324307    0.325229    0.326457
     0.326751    0.326882    0.326957    0.327045    0.328246    0.328424
     0.328570    0.328906    0.330292    0.330554    0.330789    0.330813
     0.330954    0.331531    0.334524    0.334628    0.334764    0.334910
     0.334947    0.334997    0.335006    0.335071    0.335475    0.343131
     0.344728    0.347742    0.362133    0.388039    0.407809    0.417340
     0.453350    0.827958    0.830772    0.833509    0.845353

 Minimum Search - Taking Simple RFO Step
 Searching for Lamda that Minimizes Along All modes
 Value Taken    Lamda =  -0.00927503
 Calculated Step too Large.  Step scaled by  0.421091
 Step Taken.  Stepsize is  0.300000

                             Maximum     Tolerance    Cnvgd?
         Gradient           0.021790      0.000300      NO
         Displacement       0.081634      0.001200      NO
         Energy change     -0.001895      0.000001      NO


 New Cartesian Coordinates Obtained by Inverse Iteration

 Displacement from previous Coordinates is:  2.318834
 Adding empirical dispersion correction 
 ----------------------------------------------------------------
 Doing -D3(op) with
 s6 =   1.00000
 s8 =   0.78311
 a1 =   0.30000
 a2 =   4.25000
 n  =  10.00000
 -D3 energy without 3body term =     -0.0680206083 hartrees
 ----------------------------------------------------------------
             Standard Nuclear Orientation (Angstroms)
    I     Atom           X                Y                Z
 ----------------------------------------------------------------
    1      O      -4.2993493241     1.0687387908     2.7473807496
    2      C      -3.9318086520     0.3960526428     1.7594315614
    3      C      -3.5310990210     0.9643455795     0.3520319355
    4      C      -3.0350350087    -0.0640537268    -0.7486382148
    5      C      -2.8802229369    -1.5764933288    -0.2981560116
    6      O      -1.6976567019    -1.8144824229     0.5356177045
    7      C      -0.4795997684    -1.6791410253    -0.2979366380
    8      C       0.4307881940    -0.5345009414     0.2916114657
    9      O       1.1252669486     0.0929319355    -0.8631929341
   10      C       1.8944882730     1.2248492104    -0.3982358984
   11      C       3.1087130928     0.9912010567     0.5929629338
   12      C       3.8896821162    -0.3916306698     0.7164620113
   13      C       3.7096287859    -1.4269159296    -0.4663670832
   14      O       2.6985311275    -2.1079865562    -0.7435645292
   15      O      -3.8547647604    -1.0267844154     1.7553723983
   16      O       4.9393005715    -1.5547527425    -1.1879849103
   17      O       1.5967518973     2.3775704226    -0.7829936845
   18      C       4.7780770654    -2.5344943904    -2.2866479856
   19      C       4.3130714846     1.9956705240     0.2844184259
   20      C       4.9594698681     2.3834859229     1.6680816261
   21      C       5.6165130257     1.0094536709     2.0643604606
   22      C       5.3796074112     0.1553008189     0.7530019758
   23      O       5.3580115983     1.1562737807    -0.3392488688
   24      H       2.7127375089     1.2448079825     1.5963545464
   25      H       3.6078021581    -0.9072271709     1.6534648407
   26      H       4.0352086942     2.8400353509    -0.3763287730
   27      H       5.7216685257     3.1667992175     1.5272402958
   28      H       4.2169161613     2.7368248458     2.4012256064
   29      H       6.6936683033     1.1142604725     2.2679860178
   30      H       5.1366950230     0.5497942996     2.9433026266
   31      H       6.1451219023    -0.6169167009     0.5527119170
   32      O      -3.6341477305    -2.5046644232    -0.6498400379
   33      C      -4.2344396633    -1.5947581718     3.0662964019
   34      C      -4.8225176333     1.5613737531    -0.3682354687
   35      C      -4.3556957456     2.5054980077    -1.5452123532
   36      C      -3.9091117042     1.4506191008    -2.6247162463
   37      C      -4.1665346561     0.1001558414    -1.8496844614
   38      O      -5.3879695162     0.3824911358    -1.0590924371
   39      H      -2.7754307726     1.7539370842     0.5171858213
   40      H      -2.0554314256     0.2669475419    -1.1371240159
   41      H      -5.2662238079    -1.3020793059     3.3490281341
   42      H      -5.5616065808     2.0028383946     0.3287977940
   43      H      -5.1973513253     3.1202172155    -1.9015651234
   44      H      -3.5356110530     3.1731674204    -1.2362856638
   45      H      -4.5392990790     1.5046600635    -3.5268069488
   46      H      -2.8544499991     1.5652566351    -2.9220171748
   47      H      -4.3165268308    -0.7980637575    -2.4797446449
   48      H      -3.5382488644    -1.2667900090     3.8650643318
   49      H      -4.1747901610    -2.6922730687     2.9474171051
   50      H       5.7520169145    -2.5652385569    -2.8086810055
   51      H       3.9841660291    -2.2232298290    -2.9955193369
   52      H       4.5294064672    -3.5444684029    -1.9011161451
   53      H      -0.2156791328     0.2067241914     0.8144217548
   54      H       1.1493684948    -0.9592997824     1.0223766011
   55      H      -0.6967546355    -1.4257403373    -1.3570378130
   56      H       0.0767604981    -2.6413905184    -0.2871501409
 ----------------------------------------------------------------
 Molecular Point Group                 C1    NOp =  1
 Largest Abelian Subgroup              C1    NOp =  1
 Nuclear Repulsion Energy =  3104.8271355784 hartrees
 There are      113 alpha and      113 beta electrons
 Applying Cartesian multipole field
    Component          Value
    ---------          -----
     (2,0,0)        1.00000E-12
     (0,2,0)        2.00000E-11
     (0,0,2)       -3.00000E-11
 Requested basis set is STO-3G
 There are 86 shells and 176 basis functions
 A cutoff of  1.0D-12 yielded   2125 shell pairs
 There are      9928 function pairs
 Smallest overlap matrix eigenvalue = 2.13E-01
 Guess MOs from SCF MO coefficient file
 Reading MOs from coefficient file
 Reading MOs from coefficient file
 A restricted hybrid HF-DFT SCF calculation will be
 performed using Pulay DIIS extrapolation
 Exchange:     0.2000 Hartree-Fock + 0.0800 Slater + 0.7200 B88
 Correlation:  0.1900 VWN1RPA + 0.8100 LYP
 Using SG-1 standard quadrature grid
 Dispersion:   Grimme D3
 SCF converges when DIIS error is below 1.0E-08
 Geometry optimization detected.  Setting ReadMinima to 0
 Setting SaveMinima to 0
 using 48 threads for integral computing
 -------------------------------------------------------
 OpenMP Integral computing Module                
 Release: version 1.0, May 2013, Q-Chem Inc. Pittsburgh 
 -------------------------------------------------------
 -------------------------------------------------------
 OpenMP BLAS3 based DFT computing Module                
 Release: version 1.0, May 2013, Q-Chem Inc. Pittsburgh 
 -------------------------------------------------------
 ---------------------------------------
  Cycle       Energy         DIIS Error
 ---------------------------------------
    1   -1510.1881415122      3.22E-03
    2   -1510.2334045423      2.19E-04
    3   -1510.2336097759      2.29E-04
    4   -1510.2337657218      1.32E-04
    5   -1510.2338323756      4.43E-05
    6   -1510.2338412294      1.10E-05
    7   -1510.2338417590      4.40E-06
    8   -1510.2338418364      1.86E-06
    9   -1510.2338418527      3.77E-07
   10   -1510.2338418535      2.15E-07
   11   -1510.2338418536      1.07E-07
   12   -1510.2338418536      2.80E-08
   13   -1510.2338418536      9.09E-09 Convergence criterion met
 ---------------------------------------
 SCF time:  CPU 90.96 s  wall 1.90 s
 SCF   energy in the final basis set = -1510.23384185
 Total energy in the final basis set = -1510.23384185
 
 --------------------------------------------------------------
 
                    Orbital Energies (a.u.)
 --------------------------------------------------------------
 
 Alpha MOs
 -- Occupied --
-18.947 -18.939 -18.916 -18.899 -18.892 -18.890 -18.888 -18.886
-18.878 -18.876 -10.111 -10.104 -10.103 -10.103 -10.071 -10.069
-10.067 -10.065 -10.062 -10.061 -10.060 -10.056 -10.046 -10.041
-10.040 -10.032 -10.024 -10.022 -10.019 -10.018  -1.018  -1.017
 -1.010  -0.994  -0.974  -0.969  -0.945  -0.940  -0.937  -0.927
 -0.766  -0.761  -0.726  -0.721  -0.709  -0.703  -0.698  -0.665
 -0.663  -0.605  -0.602  -0.585  -0.550  -0.544  -0.541  -0.537
 -0.518  -0.512  -0.489  -0.481  -0.471  -0.457  -0.446  -0.444
 -0.436  -0.433  -0.428  -0.418  -0.415  -0.413  -0.412  -0.403
 -0.392  -0.389  -0.381  -0.371  -0.367  -0.358  -0.351  -0.346
 -0.345  -0.339  -0.335  -0.333  -0.329  -0.326  -0.316  -0.314
 -0.310  -0.310  -0.306  -0.305  -0.299  -0.296  -0.294  -0.279
 -0.271  -0.258  -0.256  -0.246  -0.236  -0.234  -0.227  -0.183
 -0.183  -0.172  -0.161  -0.159  -0.154  -0.149  -0.147  -0.146
 -0.142
 -- Virtual --
  0.074   0.089   0.095   0.098   0.216   0.235   0.236   0.249
  0.252   0.272   0.274   0.282   0.295   0.307   0.317   0.325
  0.329   0.332   0.333   0.342   0.346   0.351   0.359   0.366
  0.372   0.379   0.382   0.395   0.397   0.405   0.406   0.410
  0.411   0.419   0.421   0.421   0.425   0.430   0.430   0.432
  0.433   0.437   0.437   0.444   0.444   0.446   0.457   0.465
  0.469   0.475   0.485   0.491   0.495   0.504   0.510   0.534
  0.546   0.553   0.555   0.603   0.630   0.635   0.638
 --------------------------------------------------------------
 
          Ground-State Mulliken Net Atomic Charges

     Atom                 Charge (a.u.)
  ----------------------------------------
      1 O                    -0.214791
      2 C                     0.212037
      3 C                    -0.079292
      4 C                    -0.086957
      5 C                     0.232460
      6 O                    -0.196772
      7 C                    -0.048930
      8 C                    -0.045807
      9 O                    -0.185924
     10 C                     0.214175
     11 C                    -0.086821
     12 C                    -0.079437
     13 C                     0.207765
     14 O                    -0.214509
     15 O                    -0.161948
     16 O                    -0.165631
     17 O                    -0.187995
     18 C                    -0.127208
     19 C                     0.023683
     20 C                    -0.142281
     21 C                    -0.146410
     22 C                     0.025157
     23 O                    -0.188284
     24 H                     0.081024
     25 H                     0.081268
     26 H                     0.089953
     27 H                     0.078848
     28 H                     0.073035
     29 H                     0.078734
     30 H                     0.071897
     31 H                     0.091236
     32 O                    -0.187585
     33 C                    -0.122950
     34 C                     0.025467
     35 C                    -0.143990
     36 C                    -0.144164
     37 C                     0.023895
     38 O                    -0.189417
     39 H                     0.084808
     40 H                     0.080785
     41 H                     0.093155
     42 H                     0.085544
     43 H                     0.078532
     44 H                     0.074892
     45 H                     0.078060
     46 H                     0.074989
     47 H                     0.088393
     48 H                     0.090489
     49 H                     0.098797
     50 H                     0.092143
     51 H                     0.091958
     52 H                     0.088412
     53 H                     0.075999
     54 H                     0.081085
     55 H                     0.085540
     56 H                     0.092888
  ----------------------------------------
  Sum of atomic charges =     0.000000

 -----------------------------------------------------------------
                    Cartesian Multipole Moments
 -----------------------------------------------------------------
    Charge (ESU x 10^10)
                 0.0000
    Dipole Moment (Debye)
         X       2.8973      Y       0.1592      Z       1.5604
       Tot       3.2946
    Quadrupole Moments (Debye-Ang)
        XX    -167.0805     XY     -10.4903     YY    -163.6686
        XZ       6.1275     YZ      -0.7661     ZZ    -153.5377
    Octopole Moments (Debye-Ang^2)
       XXX      72.9222    XXY     -18.4992    XYY      20.0225
       YYY     -25.3846    XXZ      30.0134    XYZ      49.7810
       YYZ      -2.3549    XZZ       5.9266    YZZ     -35.9630
       ZZZ     -17.7050
    Hexadecapole Moments (Debye-Ang^3)
      XXXX  -15172.0250   XXXY    -223.9501   XXYY   -2787.1206
      XYYY     -74.3663   YYYY   -2491.5891   XXXZ     -92.5219
      XXYZ     -55.1419   XYYZ     -67.6771   YYYZ     -58.3485
      XXZZ   -2708.8639   XYZZ      47.4686   YYZZ    -758.4518
      XZZZ    -116.2612   YZZZ    -103.4322   ZZZZ   -2163.0820
 -----------------------------------------------------------------
 Calculating analytic gradient of the SCF energy
 Gradient of SCF Energy
            1           2           3           4           5           6
    1  -0.0007814  -0.0006085   0.0003057  -0.0003314  -0.0014001   0.0008101
    2  -0.0000303  -0.0001165  -0.0003245   0.0007619  -0.0027187   0.0058264
    3  -0.0000749  -0.0004246  -0.0000845   0.0014492   0.0003257   0.0018476
            7           8           9          10          11          12
    1  -0.0007621  -0.0034940   0.0042019  -0.0017941   0.0007883  -0.0014728
    2  -0.0024597   0.0015866  -0.0006734  -0.0020664   0.0003778  -0.0000967
    3  -0.0009047   0.0027301  -0.0023706  -0.0004968  -0.0043568   0.0023966
           13          14          15          16          17          18
    1   0.0003303   0.0023058   0.0015997   0.0002646  -0.0026356   0.0000630
    2   0.0001449  -0.0003310   0.0001124  -0.0018016   0.0014177  -0.0001911
    3   0.0000754  -0.0027235   0.0004347   0.0006327   0.0047036  -0.0000706
           19          20          21          22          23          24
    1  -0.0002089  -0.0003960   0.0002114  -0.0000185   0.0007139   0.0010140
    2  -0.0016972   0.0002438  -0.0002339   0.0013376  -0.0004607   0.0017014
    3  -0.0009896   0.0002395  -0.0000831   0.0006792   0.0002168   0.0007701
           25          26          27          28          29          30
    1   0.0004904   0.0005749   0.0000800   0.0000037   0.0000228  -0.0000072
    2   0.0000018  -0.0000546   0.0000740   0.0001553  -0.0000406   0.0001298
    3   0.0002556  -0.0003177  -0.0000312  -0.0000494   0.0000661  -0.0002004
           31          32          33          34          35          36
    1  -0.0001667   0.0001434  -0.0000626  -0.0003933  -0.0000092  -0.0000671
    2   0.0002936  -0.0000547  -0.0000274   0.0002544   0.0000170   0.0001222
    3  -0.0001145  -0.0021065   0.0001646  -0.0002720   0.0000302  -0.0000478
           37          38          39          40          41          42
    1  -0.0000389   0.0000363   0.0002689   0.0010371   0.0000560   0.0000635
    2  -0.0005536   0.0000470  -0.0000219  -0.0007588   0.0000542  -0.0000389
    3  -0.0003495   0.0003056  -0.0003408   0.0003819  -0.0000731   0.0002096
           43          44          45          46          47          48
    1  -0.0000087  -0.0000511   0.0000578   0.0000303   0.0000351  -0.0000409
    2   0.0000094  -0.0001221   0.0000324  -0.0000311   0.0000989  -0.0000241
    3   0.0000610   0.0002427  -0.0001569   0.0000456  -0.0001237  -0.0000221
           49          50          51          52          53          54
    1   0.0000054   0.0000103  -0.0000092   0.0000131   0.0000465  -0.0005164
    2  -0.0000168   0.0000359   0.0001079   0.0000334  -0.0000533  -0.0005464
    3  -0.0000054   0.0000109   0.0001627  -0.0000176   0.0001744  -0.0013786
           55          56
    1  -0.0003647   0.0000555
    2   0.0008394  -0.0002714
    3  -0.0001593  -0.0002661
 Max gradient component =       5.826E-03
 RMS gradient           =       1.131E-03
 Gradient time:  CPU 30.43 s  wall 0.65 s
 Geometry Optimization Parameters
   NAtoms,    NIC,     NZ,  NCons,   NDum,   NFix, NCnnct, MaxDiis
       56     458       0       0       0       0       0       0

 Cartesian Hessian Update
 Hessian Updated using BFGS Update


** GEOMETRY OPTIMIZATION IN DELOCALIZED INTERNAL COORDINATES **
   Searching for a Minimum

   Optimization Cycle:   3

                       Coordinates (Angstroms)
     ATOM                X               Y               Z
      1  O        -4.2993493241    1.0687387908    2.7473807496
      2  C        -3.9318086520    0.3960526428    1.7594315614
      3  C        -3.5310990210    0.9643455795    0.3520319355
      4  C        -3.0350350087   -0.0640537268   -0.7486382148
      5  C        -2.8802229369   -1.5764933288   -0.2981560116
      6  O        -1.6976567019   -1.8144824229    0.5356177045
      7  C        -0.4795997684   -1.6791410253   -0.2979366380
      8  C         0.4307881940   -0.5345009414    0.2916114657
      9  O         1.1252669486    0.0929319355   -0.8631929341
     10  C         1.8944882730    1.2248492104   -0.3982358984
     11  C         3.1087130928    0.9912010567    0.5929629338
     12  C         3.8896821162   -0.3916306698    0.7164620113
     13  C         3.7096287859   -1.4269159296   -0.4663670832
     14  O         2.6985311275   -2.1079865562   -0.7435645292
     15  O        -3.8547647604   -1.0267844154    1.7553723983
     16  O         4.9393005715   -1.5547527425   -1.1879849103
     17  O         1.5967518973    2.3775704226   -0.7829936845
     18  C         4.7780770654   -2.5344943904   -2.2866479856
     19  C         4.3130714846    1.9956705240    0.2844184259
     20  C         4.9594698681    2.3834859229    1.6680816261
     21  C         5.6165130257    1.0094536709    2.0643604606
     22  C         5.3796074112    0.1553008189    0.7530019758
     23  O         5.3580115983    1.1562737807   -0.3392488688
     24  H         2.7127375089    1.2448079825    1.5963545464
     25  H         3.6078021581   -0.9072271709    1.6534648407
     26  H         4.0352086942    2.8400353509   -0.3763287730
     27  H         5.7216685257    3.1667992175    1.5272402958
     28  H         4.2169161613    2.7368248458    2.4012256064
     29  H         6.6936683033    1.1142604725    2.2679860178
     30  H         5.1366950230    0.5497942996    2.9433026266
     31  H         6.1451219023   -0.6169167009    0.5527119170
     32  O        -3.6341477305   -2.5046644232   -0.6498400379
     33  C        -4.2344396633   -1.5947581718    3.0662964019
     34  C        -4.8225176333    1.5613737531   -0.3682354687
     35  C        -4.3556957456    2.5054980077   -1.5452123532
     36  C        -3.9091117042    1.4506191008   -2.6247162463
     37  C        -4.1665346561    0.1001558414   -1.8496844614
     38  O        -5.3879695162    0.3824911358   -1.0590924371
     39  H        -2.7754307726    1.7539370842    0.5171858213
     40  H        -2.0554314256    0.2669475419   -1.1371240159
     41  H        -5.2662238079   -1.3020793059    3.3490281341
     42  H        -5.5616065808    2.0028383946    0.3287977940
     43  H        -5.1973513253    3.1202172155   -1.9015651234
     44  H        -3.5356110530    3.1731674204   -1.2362856638
     45  H        -4.5392990790    1.5046600635   -3.5268069488
     46  H        -2.8544499991    1.5652566351   -2.9220171748
     47  H        -4.3165268308   -0.7980637575   -2.4797446449
     48  H        -3.5382488644   -1.2667900090    3.8650643318
     49  H        -4.1747901610   -2.6922730687    2.9474171051
     50  H         5.7520169145   -2.5652385569   -2.8086810055
     51  H         3.9841660291   -2.2232298290   -2.9955193369
     52  H         4.5294064672   -3.5444684029   -1.9011161451
     53  H        -0.2156791328    0.2067241914    0.8144217548
     54  H         1.1493684948   -0.9592997824    1.0223766011
     55  H        -0.6967546355   -1.4257403373   -1.3570378130
     56  H         0.0767604981   -2.6413905184   -0.2871501409
   Point Group: c1    Number of degrees of freedom:   162


   Energy is  -1510.233841854

 Hessian Updated using BFGS Update

152 Hessian modes will be used to form the next step
  Hessian Eigenvalues:
     0.000931    0.002017    0.002183    0.002692    0.003067    0.003259
     0.004003    0.004158    0.004521    0.004617    0.004951    0.005298
     0.006087    0.006804    0.006977    0.009984    0.011536    0.012359
     0.021300    0.021755    0.023593    0.026202    0.030200    0.030740
     0.032497    0.034427    0.035151    0.039003    0.040598    0.041494
     0.042210    0.043193    0.043643    0.046402    0.049579    0.051244
     0.051533    0.053197    0.054385    0.054917    0.055795    0.056162
     0.056324    0.057204    0.057908    0.058583    0.059150    0.059800
     0.060607    0.060647    0.062792    0.063703    0.063990    0.064584
     0.064739    0.069869    0.069973    0.072861    0.073822    0.092439
     0.092693    0.093748    0.094069    0.095674    0.096707    0.097345
     0.100021    0.102829    0.103184    0.105510    0.108182    0.111096
     0.115652    0.120324    0.133475    0.135594    0.138827    0.158596
     0.159996    0.160000    0.160042    0.163502    0.165349    0.182079
     0.219473    0.219765    0.220129    0.221105    0.227575    0.228561
     0.238821    0.238864    0.239342    0.239751    0.243203    0.244652
     0.247402    0.247472    0.248416    0.249107    0.249657    0.249741
     0.249901    0.250000    0.253385    0.253525    0.255276    0.257509
     0.260300    0.291978    0.293219    0.306127    0.308075    0.321700
     0.324268    0.325203    0.326425    0.326751    0.326883    0.326957
     0.327053    0.328337    0.328425    0.328570    0.328906    0.330296
     0.330534    0.330789    0.330814    0.330952    0.331482    0.334605
     0.334683    0.334910    0.334942    0.334996    0.335004    0.335071
     0.335474    0.336434    0.343124    0.344708    0.347738    0.362074
     0.386348    0.406606    0.417335    0.468672    0.828368    0.830783
     0.833135    0.845346

 Minimum Search - Taking Simple RFO Step
 Searching for Lamda that Minimizes Along All modes
 Value Taken    Lamda =  -0.01011718
 Calculated Step too Large.  Step scaled by  0.333237
 Step Taken.  Stepsize is  0.300000

                             Maximum     Tolerance    Cnvgd?
         Gradient           0.011712      0.000300      NO
         Displacement       0.078499      0.001200      NO
         Energy change     -0.003297      0.000001      NO


 New Cartesian Coordinates Obtained by Inverse Iteration

 Displacement from previous Coordinates is:  1.798913
 Adding empirical dispersion correction 
 ----------------------------------------------------------------
 Doing -D3(op) with
 s6 =   1.00000
 s8 =   0.78311
 a1 =   0.30000
 a2 =   4.25000
 n  =  10.00000
 -D3 energy without 3body term =     -0.0686464097 hartrees
 ----------------------------------------------------------------
             Standard Nuclear Orientation (Angstroms)
    I     Atom           X                Y                Z
 ----------------------------------------------------------------
    1      O      -4.0728639183     1.1552615610     2.7279755448
    2      C      -3.7896143966     0.4375290224     1.7440147331
    3      C      -3.4175189806     0.9460869071     0.3061888305
    4      C      -2.9961350250    -0.1332766458    -0.7765924628
    5      C      -2.8673669606    -1.6341153033    -0.2782618327
    6      O      -1.6788673610    -1.8757025062     0.5462925832
    7      C      -0.4581569926    -1.7065672886    -0.2771020488
    8      C       0.4077426095    -0.5259292300     0.3095612647
    9      O       1.0960981697     0.1050899522    -0.8444954225
   10      C       1.8716801908     1.2350319097    -0.3842389263
   11      C       3.0532658667     0.9878632139     0.6406906773
   12      C       3.8364916641    -0.3952056698     0.7227720376
   13      C       3.6343596962    -1.3863388500    -0.4907831365
   14      O       2.6231858659    -2.0755542974    -0.7483040171
   15      O      -3.8162170225    -0.9869674068     1.7692780297
   16      O       4.8330859826    -1.4528940606    -1.2702885925
   17      O       1.6264375160     2.3802473413    -0.8239505218
   18      C       4.6450027813    -2.3888776644    -2.4024123907
   19      C       4.2584390909     2.0029663274     0.3691364954
   20      C       4.9045718655     2.3430518138     1.7651517228
   21      C       5.5641132222     0.9565852810     2.1121350750
   22      C       5.3265392684     0.1480274816     0.7718583756
   23      O       5.3031688550     1.1866353656    -0.2837532043
   24      H       2.6402960961     1.2169725109     1.6425971807
   25      H       3.5595089440    -0.9431961513     1.6426369058
   26      H       3.9790921805     2.8673213149    -0.2645820983
   27      H       5.6657767852     3.1316184640     1.6515205637
   28      H       4.1619629757     2.6692586133     2.5107193619
   29      H       6.6413609046     1.0555690596     2.3180522672
   30      H       5.0859925895     0.4657745678     2.9751471492
   31      H       6.0918011687    -0.6170212942     0.5438680157
   32      O      -3.6604805136    -2.5512272637    -0.5663415507
   33      C      -4.1786290293    -1.5006991177     3.1071424336
   34      C      -4.7093752597     1.5688526793    -0.3900821802
   35      C      -4.2507398222     2.4539586844    -1.6155453804
   36      C      -3.8836095862     1.3465469350    -2.6721420407
   37      C      -4.1610743137     0.0341245090    -1.8413964690
   38      O      -5.3421497680     0.3892012973    -1.0194159209
   39      H      -2.6261864145     1.7091485695     0.4204909102
   40      H      -2.0231008761     0.1559790288    -1.2107905866
   41      H      -5.1736729619    -1.1290260068     3.4265848800
   42      H      -5.4070032412     2.0614328886     0.3152909458
   43      H      -5.0817305618     3.0874091315    -1.9639252845
   44      H      -3.3957116502     3.1003650646    -1.3607056554
   45      H      -4.5448703075     1.3935396134    -3.5520445515
   46      H      -2.8373888285     1.4109975034    -3.0113998544
   47      H      -4.3659382520    -0.8788215939    -2.4338238749
   48      H      -3.4266463893    -1.2091067049     3.8686238604
   49      H      -4.2028430590    -2.6017034815     3.0100171264
   50      H       5.5952463165    -2.3741422407    -2.9670393676
   51      H       3.8137724935    -2.0675539434    -3.0623462099
   52      H       4.4363360704    -3.4199510371    -2.0504174291
   53      H      -0.2639743696     0.2029039235     0.8176196718
   54      H       1.1310317933    -0.9211536637     1.0532674548
   55      H      -0.6708422061    -1.4712791269    -1.3408534578
   56      H       0.1284287548    -2.6501332612    -0.2511171347
 ----------------------------------------------------------------
 Molecular Point Group                 C1    NOp =  1
 Largest Abelian Subgroup              C1    NOp =  1
 Nuclear Repulsion Energy =  3120.6442163162 hartrees
 There are      113 alpha and      113 beta electrons
 Applying Cartesian multipole field
    Component          Value
    ---------          -----
     (2,0,0)        1.00000E-12
     (0,2,0)        2.00000E-11
     (0,0,2)       -3.00000E-11
 Nucleus-field energy     =    -0.0000000031 hartrees
 Requested basis set is STO-3G
 There are 86 shells and 176 basis functions
 A cutoff of  1.0D-12 yielded   2145 shell pairs
 There are     10023 function pairs
 Smallest overlap matrix eigenvalue = 2.13E-01
 Guess MOs from SCF MO coefficient file
 Reading MOs from coefficient file
 Reading MOs from coefficient file
 A restricted hybrid HF-DFT SCF calculation will be
 performed using Pulay DIIS extrapolation
 Exchange:     0.2000 Hartree-Fock + 0.0800 Slater + 0.7200 B88
 Correlation:  0.1900 VWN1RPA + 0.8100 LYP
[...]
      7  C        -0.7009870644   -2.7398300956    0.0940676307
      8  C         0.4514369560   -1.7640259078    0.5416717255
      9  O         0.4886199080   -0.6600763052   -0.4420307296
     10  C         1.1073794771    0.5543321999    0.0207734275
     11  C         2.2542192599    0.4586308729    1.0969738275
     12  C         3.4843617976   -0.4354918380    0.6362977189
     13  C         3.2630162883   -1.0894516278   -0.7686716163
     14  O         3.2150889152   -2.3129152921   -1.0280276052
     15  O        -3.2065628431    0.3193447694    1.8799171326
     16  O         3.0788290603   -0.0493630712   -1.7315208800
     17  O         0.7265240408    1.6165666543   -0.5256051579
     18  C         2.7038222740   -0.6288513461   -3.0415079661
     19  C         2.9511072317    1.8711550710    1.2664767588
     20  C         3.8151146754    1.8462887892    2.5866600122
     21  C         5.0329566680    0.9569390024    2.1339815033
     22  C         4.6463642139    0.6506152928    0.6321073466
     23  O         3.9652682681    1.8843419659    0.1861839199
     24  H         1.8263791898    0.1012914424    2.0502061486
     25  H         3.6894307499   -1.2465422635    1.3565266579
     26  H         2.2553281930    2.7248852667    1.1531811725
     27  H         4.1370695346    2.8650641378    2.8547748747
     28  H         3.2641413001    1.4140180518    3.4371716936
     29  H         5.9813191523    1.5153161630    2.1799006316
     30  H         5.1347201319    0.0364146126    2.7305806152
     31  H         5.4957956523    0.4101207551   -0.0361260572
     32  O        -4.1727288898   -1.9740094237    0.1784179151
     33  C        -3.0581857903   -0.0125568068    3.3157224982
     34  C        -3.2858911416    1.7090532522   -0.6839681551
     35  C        -2.9495522743    2.2323135768   -2.1353509260
     36  C        -3.1944725619    0.9283148257   -2.9828580193
     37  C        -3.7117857233   -0.0715812548   -1.8730559840
     38  O        -4.4294756535    0.7982932509   -0.9125858974
     39  H        -1.1171341434    1.1520947894   -0.6137800291
     40  H        -1.6310415695   -0.9227722251   -1.6433473587
     41  H        -2.5398167249    0.7953799221    3.8713148590
     42  H        -3.5528662395    2.4895705797    0.0543041758
     43  H        -3.6446325395    3.0365938749   -2.4254801009
     44  H        -1.9165886542    2.6069734414   -2.2156180409
     45  H        -3.9660656655    1.0827859414   -3.7533735686
     46  H        -2.2762070813    0.5629449243   -3.4698405926
     47  H        -4.3795854207   -0.8788440966   -2.2308101955
     48  H        -2.4943647015   -0.9582553297    3.4515137936
     49  H        -4.0848462708   -0.1355129037    3.7061567605
     50  H         2.6252037654    0.2241145943   -3.7400723614
     51  H         1.7256695705   -1.1486754441   -2.9779334410
     52  H         3.4666027913   -1.3455112831   -3.4080891532
     53  H         0.2313486858   -1.3815640649    1.5607278616
     54  H         1.4125312431   -2.3240729376    0.5449026480
     55  H        -0.7585326228   -2.7501071149   -1.0141128550
     56  H        -0.4296787531   -3.7633448257    0.4310853347
   Point Group: c1    Number of degrees of freedom:   162


   Energy is  -1510.272526432

 Hessian Updated using BFGS Update

162 Hessian modes will be used to form the next step
  Hessian Eigenvalues:
     0.001982    0.002802    0.003451    0.004351    0.004762    0.004991
     0.005502    0.006214    0.007626    0.010172    0.012158    0.013730
     0.014781    0.016835    0.021778    0.022059    0.023858    0.026806
     0.028137    0.030926    0.031456    0.033446    0.034050    0.035645
     0.036200    0.037493    0.040370    0.041488    0.042192    0.042981
     0.043288    0.044851    0.047516    0.050156    0.051419    0.052068
     0.054774    0.055842    0.056131    0.056311    0.056973    0.058038
     0.058225    0.059101    0.059905    0.060986    0.061430    0.062591
     0.062930    0.064118    0.064701    0.064820    0.065444    0.067142
     0.069824    0.070645    0.073310    0.073562    0.079722    0.087953
     0.092671    0.093614    0.094562    0.096885    0.097492    0.102008
     0.102751    0.103089    0.104379    0.107917    0.109932    0.111544
     0.117372    0.121840    0.130142    0.138138    0.142710    0.145073
     0.159861    0.159953    0.160075    0.160207    0.160618    0.161037
     0.163322    0.166763    0.175080    0.191798    0.212544    0.219389
     0.225108    0.228715    0.234250    0.237227    0.238932    0.240073
     0.241428    0.242854    0.243148    0.246065    0.247781    0.249175
     0.249737    0.250745    0.251913    0.253010    0.253509    0.253704
     0.257226    0.259194    0.261346    0.267961    0.276194    0.290305
     0.293504    0.295741    0.305352    0.308502    0.313014    0.324295
     0.325067    0.326764    0.326866    0.326991    0.327021    0.328208
     0.328494    0.328538    0.329189    0.329577    0.330255    0.330722
     0.330753    0.331020    0.331517    0.334532    0.334597    0.334731
     0.334901    0.335020    0.335068    0.335309    0.335498    0.337084
     0.339921    0.341629    0.345557    0.349300    0.354020    0.368739
     0.400329    0.409610    0.417936    0.437257    0.517373    0.587142
     0.772024    0.830461    0.836918    0.843987    0.884720    2.728548

 Minimum Search - Taking Simple RFO Step
 Searching for Lamda that Minimizes Along All modes
 Value Taken    Lamda =   0.00000000
 Step Taken.  Stepsize is  0.010486

                             Maximum     Tolerance    Cnvgd?
         Gradient           0.000123      0.000300     YES
         Displacement       0.004634      0.001200      NO
         Energy change     -0.000001      0.000001     YES

 Final energy is   -1510.27252643204     


 ******************************
 **  OPTIMIZATION CONVERGED  **
 ******************************

                       Coordinates (Angstroms)
     ATOM                X               Y               Z
      1  O        -0.8504188545    0.5261538265    1.9306803243
      2  C        -1.9285822199    0.5437882451    1.2880043329
      3  C        -2.0894094813    0.7559389368   -0.2499204954
      4  C        -2.4764067259   -0.5813728196   -1.0228205979
      5  C        -2.9697643978   -1.7242647720   -0.0477112573
      6  O        -2.0019833358   -2.4617392527    0.7384182343
      7  C        -0.7009870644   -2.7398300956    0.0940676307
      8  C         0.4514369560   -1.7640259078    0.5416717255
      9  O         0.4886199080   -0.6600763052   -0.4420307296
     10  C         1.1073794771    0.5543321999    0.0207734275
     11  C         2.2542192599    0.4586308729    1.0969738275
     12  C         3.4843617976   -0.4354918380    0.6362977189
     13  C         3.2630162883   -1.0894516278   -0.7686716163
     14  O         3.2150889152   -2.3129152921   -1.0280276052
     15  O        -3.2065628431    0.3193447694    1.8799171326
     16  O         3.0788290603   -0.0493630712   -1.7315208800
     17  O         0.7265240408    1.6165666543   -0.5256051579
     18  C         2.7038222740   -0.6288513461   -3.0415079661
     19  C         2.9511072317    1.8711550710    1.2664767588
     20  C         3.8151146754    1.8462887892    2.5866600122
     21  C         5.0329566680    0.9569390024    2.1339815033
     22  C         4.6463642139    0.6506152928    0.6321073466
     23  O         3.9652682681    1.8843419659    0.1861839199
     24  H         1.8263791898    0.1012914424    2.0502061486
     25  H         3.6894307499   -1.2465422635    1.3565266579
     26  H         2.2553281930    2.7248852667    1.1531811725
     27  H         4.1370695346    2.8650641378    2.8547748747
     28  H         3.2641413001    1.4140180518    3.4371716936
     29  H         5.9813191523    1.5153161630    2.1799006316
     30  H         5.1347201319    0.0364146126    2.7305806152
     31  H         5.4957956523    0.4101207551   -0.0361260572
     32  O        -4.1727288898   -1.9740094237    0.1784179151
     33  C        -3.0581857903   -0.0125568068    3.3157224982
     34  C        -3.2858911416    1.7090532522   -0.6839681551
     35  C        -2.9495522743    2.2323135768   -2.1353509260
     36  C        -3.1944725619    0.9283148257   -2.9828580193
     37  C        -3.7117857233   -0.0715812548   -1.8730559840
     38  O        -4.4294756535    0.7982932509   -0.9125858974
     39  H        -1.1171341434    1.1520947894   -0.6137800291
     40  H        -1.6310415695   -0.9227722251   -1.6433473587
     41  H        -2.5398167249    0.7953799221    3.8713148590
     42  H        -3.5528662395    2.4895705797    0.0543041758
     43  H        -3.6446325395    3.0365938749   -2.4254801009
     44  H        -1.9165886542    2.6069734414   -2.2156180409
     45  H        -3.9660656655    1.0827859414   -3.7533735686
     46  H        -2.2762070813    0.5629449243   -3.4698405926
     47  H        -4.3795854207   -0.8788440966   -2.2308101955
     48  H        -2.4943647015   -0.9582553297    3.4515137936
     49  H        -4.0848462708   -0.1355129037    3.7061567605
     50  H         2.6252037654    0.2241145943   -3.7400723614
     51  H         1.7256695705   -1.1486754441   -2.9779334410
     52  H         3.4666027913   -1.3455112831   -3.4080891532
     53  H         0.2313486858   -1.3815640649    1.5607278616
     54  H         1.4125312431   -2.3240729376    0.5449026480
     55  H        -0.7585326228   -2.7501071149   -1.0141128550
     56  H        -0.4296787531   -3.7633448257    0.4310853347

Z-matrix Print:
$molecule
0 1
O 
C  1 1.439388
O  2 1.253763 1 116.366345
C  1 1.479107 2 115.256622 3 -153.478308 0
H  4 1.110491 1 110.991808 2 39.314406 0
H  4 1.112369 1 110.853780 2 -83.241607 0
C  4 1.575000 1 106.965868 2 158.370018 0
H  7 1.109721 4 109.115835 1 33.743691 0
H  7 1.111203 4 107.807785 1 150.654187 0
O  7 1.478213 4 113.799866 1 -93.528509 0
C  10 1.448609 7 116.564434 4 100.360571 0
O  11 1.249252 10 116.315649 7 149.463981 0
C  2 1.575629 1 118.767657 3 -176.531003 0
H  13 1.104260 2 109.102611 1 -67.309806 0
C  11 1.581279 10 119.614483 7 -36.083901 0
H  15 1.102837 11 111.246942 10 47.880631 0
C  15 1.583966 11 108.680408 10 173.285083 0
H  17 1.107076 15 114.156876 11 -41.533953 0
O  17 1.481305 15 102.640305 11 77.716453 0
C  19 1.479708 17 95.001360 15 58.584012 0
H  20 1.107036 19 110.524882 17 -178.704869 0
C  20 1.579062 19 103.095025 17 57.290610 0
H  22 1.101738 20 112.293737 19 -158.193383 0
H  22 1.101898 20 110.458011 19 80.021583 0
C  22 1.574378 20 100.788563 19 -37.839065 0
H  25 1.101323 22 111.680894 20 121.074088 0
H  25 1.101753 22 112.516734 20 -116.311102 0
C  13 1.584174 2 109.823018 1 170.192891 0
H  28 1.107158 13 113.587367 2 34.579281 0
O  28 1.481799 13 103.356320 2 -85.068861 0
C  30 1.478114 28 95.048571 13 -56.878780 0
H  31 1.107207 30 110.654300 28 179.982487 0
C  28 1.577977 13 108.441324 2 165.410768 0
H  33 1.101564 28 110.431518 13 -167.778229 0
H  33 1.101726 28 112.223486 13 -46.284902 0
C  33 1.574484 28 101.062403 13 74.113746 0
H  36 1.101492 33 111.569613 28 117.949391 0
H  36 1.101659 33 112.813246 28 -119.278578 0
C  13 1.589002 2 113.555555 1 57.858075 0
H  39 1.103896 13 111.597390 2 -124.143457 0
C  39 1.565438 13 112.693364 2 -2.744978 0
O  41 1.251569 39 126.853056 13 -118.222100 0
O  41 1.429261 39 108.592454 13 60.020722 0
C  43 1.480710 41 110.110895 39 -173.159316 0
H  44 1.105316 43 105.970369 41 -177.452446 0
H  44 1.108971 43 111.787020 41 -57.862044 0
H  44 1.109523 43 110.850937 41 63.735909 0
C  20 1.590092 19 104.760193 17 -54.326200 0
H  48 1.111149 20 110.813251 19 146.595197 0
C  48 1.560797 20 115.339389 19 -92.569024 0
O  50 1.255301 48 126.503956 20 -137.997374 0
O  50 1.426173 48 109.755685 20 44.053854 0
C  52 1.481118 50 110.354921 48 174.567754 0
H  53 1.105255 52 105.921440 50 178.057480 0
H  53 1.109122 52 111.665585 50 58.600791 0
H  53 1.109360 52 111.137326 50 -63.081148 0
$end

 
 --------------------------------------------------------------
 
                    Orbital Energies (a.u.)
 --------------------------------------------------------------
 
 Alpha MOs
 -- Occupied --
-18.943 -18.938 -18.931 -18.920 -18.891 -18.885 -18.881 -18.879
-18.877 -18.871 -10.110 -10.106 -10.099 -10.095 -10.081 -10.076
-10.068 -10.066 -10.063 -10.061 -10.052 -10.051 -10.044 -10.042
-10.030 -10.024 -10.022 -10.019 -10.013 -10.010  -1.022  -1.015
 -1.009  -0.999  -0.974  -0.961  -0.945  -0.943  -0.936  -0.931
 -0.768  -0.754  -0.727  -0.717  -0.713  -0.708  -0.697  -0.665
 -0.659  -0.606  -0.602  -0.591  -0.555  -0.543  -0.541  -0.531
 -0.517  -0.508  -0.493  -0.478  -0.472  -0.468  -0.448  -0.442
 -0.436  -0.433  -0.423  -0.419  -0.415  -0.412  -0.410  -0.403
 -0.393  -0.388  -0.384  -0.372  -0.366  -0.359  -0.353  -0.351
 -0.345  -0.342  -0.334  -0.330  -0.324  -0.322  -0.315  -0.311
 -0.309  -0.308  -0.300  -0.299  -0.294  -0.292  -0.286  -0.277
 -0.270  -0.261  -0.254  -0.246  -0.237  -0.234  -0.225  -0.184
 -0.183  -0.176  -0.168  -0.162  -0.156  -0.152  -0.147  -0.143
 -0.134
 -- Virtual --
  0.084   0.093   0.096   0.101   0.226   0.232   0.242   0.251
  0.253   0.259   0.282   0.289   0.295   0.300   0.320   0.328
  0.331   0.338   0.342   0.347   0.353   0.357   0.359   0.361
  0.373   0.384   0.385   0.389   0.399   0.403   0.409   0.412
  0.419   0.421   0.424   0.426   0.427   0.428   0.431   0.433
  0.436   0.438   0.440   0.443   0.456   0.457   0.461   0.466
  0.475   0.478   0.484   0.492   0.501   0.508   0.525   0.536
  0.549   0.554   0.561   0.616   0.629   0.638   0.645
 --------------------------------------------------------------
 
          Ground-State Mulliken Net Atomic Charges

     Atom                 Charge (a.u.)
  ----------------------------------------
      1 O                    -0.232214
      2 C                     0.206405
      3 C                    -0.093480
      4 C                    -0.083926
      5 C                     0.207396
      6 O                    -0.183128
      7 C                    -0.046858
      8 C                    -0.057730
      9 O                    -0.187321
     10 C                     0.229066
     11 C                    -0.082573
     12 C                    -0.083346
     13 C                     0.205470
     14 O                    -0.218205
     15 O                    -0.160182
     16 O                    -0.162846
     17 O                    -0.202245
     18 C                    -0.127180
     19 C                     0.026729
     20 C                    -0.144137
     21 C                    -0.143844
     22 C                     0.026942
     23 O                    -0.184375
     24 H                     0.089739
     25 H                     0.082628
     26 H                     0.093490
     27 H                     0.079251
     28 H                     0.074312
     29 H                     0.078833
     30 H                     0.073217
     31 H                     0.083778
     32 O                    -0.188744
     33 C                    -0.127277
     34 C                     0.025573
     35 C                    -0.142981
     36 C                    -0.144799
     37 C                     0.026139
     38 O                    -0.185309
     39 H                     0.107788
     40 H                     0.084287
     41 H                     0.087616
     42 H                     0.082134
     43 H                     0.075522
     44 H                     0.078663
     45 H                     0.076216
     46 H                     0.072224
     47 H                     0.085288
     48 H                     0.090020
     49 H                     0.095428
     50 H                     0.094832
     51 H                     0.089308
     52 H                     0.090116
     53 H                     0.096786
     54 H                     0.088164
     55 H                     0.088162
     56 H                     0.091180
  ----------------------------------------
  Sum of atomic charges =     0.000000

 -----------------------------------------------------------------
                    Cartesian Multipole Moments
 -----------------------------------------------------------------
    Charge (ESU x 10^10)
                -0.0000
    Dipole Moment (Debye)
         X       3.3798      Y      -0.5757      Z       0.7511
       Tot       3.5098
    Quadrupole Moments (Debye-Ang)
        XX    -173.9112     XY      -7.1027     YY    -164.6571
        XZ       6.0115     YZ       3.6814     ZZ    -145.5221
    Octopole Moments (Debye-Ang^2)
       XXX     112.6561    XXY      13.7992    XYY     -20.5789
       YYY     -15.0977    XXZ       9.1013    XYZ      -2.5692
       YYZ      -0.6297    XZZ     -14.7660    YZZ     -10.1548
       ZZZ     -20.6877
    Hexadecapole Moments (Debye-Ang^3)
      XXXX   -9272.6098   XXXY    -293.7934   XXYY   -1953.5921
      XYYY    -220.1276   YYYY   -2071.9100   XXXZ    -379.9555
      XXYZ      22.2204   XYYZ     -85.8218   YYYZ     -69.8194
      XXZZ   -1779.6758   XYZZ     -68.0044   YYZZ    -797.9093
      XZZZ    -536.7664   YZZZ     -76.1759   ZZZZ   -2627.4407
 -----------------------------------------------------------------
Archival summary:
1\1\vega02.cac.cornell.edu\OPT\ProcedureUnspecified\STO-3G\102026\jj585\SunJan1404:48:442018SunJan1404:48:442018\0\\#,OPT,ProcedureUnspecified,STO-3G,\\0,1\O\C,1,1.43939\O,2,1.25376,1,116.366\C,1,1.47911,2,115.257,3,-153.478,0\H,4,1.11049,1,110.992,2,39.3144,0\H,4,1.11237,1,110.854,2,-83.2416,0\C,4,1.575,1,106.966,2,158.37,0\H,7,1.10972,4,109.116,1,33.7437,0\H,7,1.1112,4,107.808,1,150.654,0\O,7,1.47821,4,113.8,1,-93.5285,0\C,10,1.44861,7,116.564,4,100.361,0\O,11,1.24925,10,116.316,7,149.464,0\C,2,1.57563,1,118.768,3,-176.531,0\H,13,1.10426,2,109.103,1,-67.3098,0\C,11,1.58128,10,119.614,7,-36.0839,0\H,15,1.10284,11,111.247,10,47.8806,0\C,15,1.58397,11,108.68,10,173.285,0\H,17,1.10708,15,114.157,11,-41.534,0\O,17,1.4813,15,102.64,11,77.7165,0\C,19,1.47971,17,95.0014,15,58.584,0\H,20,1.10704,19,110.525,17,-178.705,0\C,20,1.57906,19,103.095,17,57.2906,0\H,22,1.10174,20,112.294,19,-158.193,0\H,22,1.1019,20,110.458,19,80.0216,0\C,22,1.57438,20,100.789,19,-37.8391,0\H,25,1.10132,22,111.681,20,121.074,0\H,25,1.10175,22,112.517,20,-116.311,0\C,13,1.58417,2,109.823,1,170.193,0\H,28,1.10716,13,113.587,2,34.5793,0\O,28,1.4818,13,103.356,2,-85.0689,0\C,30,1.47811,28,95.0486,13,-56.8788,0\H,31,1.10721,30,110.654,28,179.982,0\C,28,1.57798,13,108.441,2,165.411,0\H,33,1.10156,28,110.432,13,-167.778,0\H,33,1.10173,28,112.223,13,-46.2849,0\C,33,1.57448,28,101.062,13,74.1137,0\H,36,1.10149,33,111.57,28,117.949,0\H,36,1.10166,33,112.813,28,-119.279,0\C,13,1.589,2,113.556,1,57.8581,0\H,39,1.1039,13,111.597,2,-124.143,0\C,39,1.56544,13,112.693,2,-2.74498,0\O,41,1.25157,39,126.853,13,-118.222,0\O,41,1.42926,39,108.592,13,60.0207,0\C,43,1.48071,41,110.111,39,-173.159,0\H,44,1.10532,43,105.97,41,-177.452,0\H,44,1.10897,43,111.787,41,-57.862,0\H,44,1.10952,43,110.851,41,63.7359,0\C,20,1.59009,19,104.76,17,-54.3262,0\H,48,1.11115,20,110.813,19,146.595,0\C,48,1.5608,20,115.339,19,-92.569,0\O,50,1.2553,48,126.504,20,-137.997,0\O,50,1.42617,48,109.756,20,44.0539,0\C,52,1.48112,50,110.355,48,174.568,0\H,53,1.10526,52,105.921,50,178.057,0\H,53,1.10912,52,111.666,50,58.6008,0\H,53,1.10936,52,111.137,50,-63.0811,0\\\@

 Total job time:  130.61s(wall), 6220.52s(cpu) 
 Sun Jan 14 04:48:44 2018

        *************************************************************
        *                                                           *
        *  Thank you very much for using Q-Chem.  Have a nice day.  *
        *                                                           *
        *************************************************************


0 sent ACK to 0 
now end server 0 ... 
