mFile = /opt/software/qchem/qchem-5.0.1//bin/mpi/machines
Process 0 of 1 is on vega02.cac.cornell.edu - thread support 0
initial socket setup ...start
initial socket setup ...done 
now start server 0 ... 
vega02.cac.cornell.edu 10.84.3
Q-Chem Developer Version! Running on 10.84.3.*
                  Welcome to Q-Chem
     A Quantum Leap Into The Future Of Chemistry


 Q-Chem 5.0, Q-Chem, Inc., Pleasanton, CA (2017)

 Yihan Shao,  Zhengting Gan,  E. Epifanovsky,  A. T. B. Gilbert,  M. Wormit,  
 J. Kussmann,  A. W. Lange,  A. Behn,  Jia Deng,  Xintian Feng,  D. Ghosh,  
 M. Goldey,  P. R. Horn,  L. D. Jacobson,  I. Kaliman,  T. Kus,  A. Landau,  
 Jie Liu,  E. I. Proynov,  R. M. Richard,  R. P. Steele,  E. J. Sundstrom,  
 H. L. Woodcock III,  P. M. Zimmerman,  D. Zuev,  B. Albrecht,  E. Alguire,  
 S. A. Baeppler,  Z. Benda,  Y. A. Bernard,  E. J. Berquist,  K. B. Bravaya,  
 D. Casanova,  Chun-Min Chang,  Yunqing Chen,  A. Chien,  K. D. Closser,  
 M. P. Coons,  S. Dasgupta,  M. Diedenhofen,  Hainam Do,  R. G. Edgar,  
 Po-Tung Fang,  S. Fatehi,  Qingguo Feng,  Qinghui Ge,  A. Ghysels,  
 J. Gomes,  J. Gonthier,  A. Gunina,  M. W. D. Hanson-Heine,  
 P. H. P. Harbach,  A. W. Hauser,  J. E. Herr,  E. G. Hohenstein,  
 Z. C. Holden,  Kerwin Hui,  T.-C. Jagau,  Hyunjun Ji,  B. Kaduk,  
 K. Khistyaev,  Jaehoon Kim,  P. Klunzinger,  K. Koh,  D. Kosenkov,  
 T. Kowalczyk,  C. M. Krauter,  A. Kunitsa,  Ka Un Lao,  A. Laurent,  
 K. V. Lawler,  Joonho Lee,  D. Lefrancois,  S. Lehtola,  D. S. Levine,  
 Yi-Pei Li,  You-Sheng Lin,  Fenglai Liu,  E. Livshits,  A. Luenser,  
 P. Manohar,  E. Mansoor,  S. F. Manzer,  Shan-Ping Mao,  Yuezhi Mao,  
 N. Mardirossian,  A. V. Marenich,  L. A. Martinez-Martinez,  S. A. Maurer,  
 N. J. Mayhall,  S. C. McKenzie,  J.-M. Mewes,  A. F. Morrison,  K. Nanda,  
 T. S. Nguyen-Beck,  R. Olivares-Amaya,  J. A. Parkhill,  T. M. Perrine,  
 F. Plasser,  S. Prager,  A. Prociuk,  D. R. Rehn,  F. Rob,  M. Schneider,  
 N. Sergueev,  S. M. Sharada,  S. Sharma,  D. W. Small,  T. Stauch,  
 T. Stein,  Yu-Chuan Su,  A. J. W. Thom,  T. Tsuchimochi,  L. Vogt,  
 O. Vydrov,  M. A. Watson,  J. Wenzel,  M. de Wergifosse,  T. A. Wesolowski,  
 A. White,  J. Witte,  A. Yamada,  Jun Yang,  K. Yao,  S. Yeganeh,  
 S. R. Yost,  Zhi-Qiang You,  A. Zech,  Igor Ying Zhang,  Xing Zhang,  
 Yan Zhao,  Ying Zhu,  B. R. Brooks,  G. K. L. Chan,  C. J. Cramer,  
 M. S. Gordon,  W. J. Hehre,  A. Klamt,  M. W. Schmidt,  C. D. Sherrill,  
 D. G. Truhlar,  A. Aspuru-Guzik,  R. Baer,  A. T. Bell,  N. A. Besley,  
 Jeng-Da Chai,  A. Dreuw,  B. D. Dunietz,  T. R. Furlani,  Chao-Ping Hsu,  
 Yousung Jung,  Jing Kong,  D. S. Lambrecht,  WanZhen Liang,  C. Ochsenfeld,  
 V. A. Rassolov,  L. V. Slipchenko,  J. E. Subotnik,  T. Van Voorhis,  
 J. M. Herbert,  A. I. Krylov,  P. M. W. Gill,  M. Head-Gordon

 Contributors to earlier versions of Q-Chem not listed above: 
 R. D. Adamson,  B. Austin,  J. Baker,  G. J. O. Beran,  K. Brandhorst,  
 S. T. Brown,  E. F. C. Byrd,  A. K. Chakraborty,  C.-L. Cheng,  
 Siu Hung Chien,  D. M. Chipman,  D. L. Crittenden,  H. Dachsel,  
 R. A. DiStasio Jr.,  R. J. Doerksen,  A. D. Dutoi,  L. Fusti-Molnar,  
 W. A. Goddard III,  A. Golubeva-Zadorozhnaya,  S. R. Gwaltney,  G. Hawkins,  
 A. Heyden,  S. Hirata,  G. Kedziora,  F. J. Keil,  C. Kelley,  Jihan Kim,  
 R. A. King,  R. Z. Khaliullin,  P. P. Korambath,  W. Kurlancheek,  
 A. M. Lee,  M. S. Lee,  S. V. Levchenko,  Ching Yeh Lin,  D. Liotard,  
 R. C. Lochan,  I. Lotan,  P. E. Maslen,  N. Nair,  D. P. O'Neill,  
 D. Neuhauser,  E. Neuscamman,  C. M. Oana,  R. Olson,  B. Peters,  
 R. Peverati,  P. A. Pieniazek,  Y. M. Rhee,  J. Ritchie,  M. A. Rohrdanz,  
 E. Rosta,  N. J. Russ,  H. F. Schaefer III,  N. E. Schultz,  N. Shenvi,  
 A. C. Simmonett,  A. Sodt,  D. Stuck,  K. S. Thanthiriwatte,  V. Vanovschi,  
 Tao Wang,  A. Warshel,  C. F. Williams,  Q. Wu,  X. Xu,  W. Zhang

 Please cite Q-Chem as follows:
 Y. Shao et al., Mol. Phys. 113, 184-215 (2015)
 DOI: 10.1080/00268976.2014.952696

 Q-Chem 5.0.1 for Intel X86 EM64T Linux

 Parts of Q-Chem use Armadillo 5.200.1 (Boston Tea Smuggler).
 http://arma.sourceforge.net/

 Q-Chem begins on Sun Jan 14 05:02:29 2018  

Host: vega02.cac.cornell.edu
0

     Scratch files written to /scratch/jj585/SOT1001/0321r.save//
 Parallel job on  1  processors

Checking the input file for inconsistencies... 	...done.

--------------------------------------------------------------
User input:
--------------------------------------------------------------
$molecule
0  1
O 3.7004854954 -3.0847527547 0.1411562308
C 3.8982349773 -1.8907055791 0.4530539389
C 4.6843469084 -0.8214021648 -0.3879494778
C 3.7611057917 0.1520545772 -1.2370515316
C 2.240363353 0.0101713631 -0.8591094195
O 1.5906417933 1.2571566042 -1.0985032797
C 0.1352664434 1.231529986 -0.8002581494
C -0.2116038101 0.8498515088 0.6975643797
O -1.6115602996 0.395531305 0.8788816415
C -1.940805551 -0.7536298829 0.0960105818
C -3.4761352299 -1.0523093439 0.2357520131
C -4.4239689075 0.1267284168 0.6903243927
C -3.874574548 1.5648156032 0.3685743201
O -3.1794189402 1.9316400663 -0.6022190047
O 3.4705967761 -1.2950398644 1.6863925937
O -4.3505804945 2.4511904641 1.3910736219
O -1.1325288745 -1.4178241049 -0.5881063646
C -3.8830214794 3.8293968213 1.1187495803
C -4.1830439562 -1.5465167605 -1.1001838377
C -5.3453249459 -2.5221783468 -0.6713993605
C -6.3389045378 -1.5059838235 0.0070433837
C -5.6394593307 -0.1231717527 -0.3112040091
O -4.9249069411 -0.3608803568 -1.5885382953
H -3.5476292326 -1.8606628449 0.9892163962
H -4.7108047148 0.0668506573 1.753975378
H -3.4876852402 -1.9281324334 -1.8731427552
H -5.7969138905 -2.992303242 -1.5599785057
H -5.003879107 -3.3143062748 0.0141561919
H -7.3401078322 -1.5471716596 -0.4501821284
H -6.4405178187 -1.6731563371 1.0916432828
H -6.3305067775 0.7367479744 -0.4091135089
O 1.683289091 -1.0219474163 -0.4230076097
C 2.6195191242 -2.2506111003 2.4288342819
C 5.4997598723 0.2285326526 0.4846589817
C 6.6323459968 0.839264724 -0.4307638233
C 5.7805992744 1.7514233566 -1.3889952425
C 4.3309456773 1.5616870257 -0.7908471782
O 4.5630640639 1.3625619437 0.6593835371
H 5.3589871552 -1.3782909112 -1.0620700673
H 3.8722421701 -0.0234043196 -2.3232766629
H 3.1502907595 -3.2026952516 2.6339968993
H 5.8352982994 -0.1509908347 1.4687780766
H 7.3336869394 1.4354958911 0.1748222181
H 7.2007713808 0.0646889596 -0.9700342395
H 6.0893978733 2.8068174 -1.3260438014
H 5.8376759589 1.4299984121 -2.4413924795
H 3.6272928412 2.398659029 -0.9614620362
H 1.6922509498 -2.4784871838 1.8632754355
H 2.3617481085 -1.7555902183 3.3831879307
H -4.2838535307 4.4565182547 1.9361789785
H -4.2578460213 4.2052972606 0.1446770933
H -2.7754361592 3.890186148 1.1143819622
H 0.4897457194 0.0481391432 1.0147356089
H -0.1014233446 1.726735356 1.3647908156
H -0.3658408364 0.4963830969 -1.4652681082
H -0.2321086083 2.2481163173 -1.0412140246
$end

$rem
JOBTYPE                   OPT
METHOD                    B3LYP
DFT_D                     d3_op
BASIS                     STO-3G
GEOM_OPT_MAX_CYCLES       100
GEOM_OPT_TOL_GRADIENT     300
GEOM_OPT_TOL_DISPLACEMENT 1200
GEOM_OPT_TOL_ENERGY       100
SYMMETRY                  False
THRESH                    12
SCF_CONVERGENCE           8
MAX_SUB_FILE_NUM          128
MEM_STATIC                400
MEM_TOTAL                 4000
$end
--------------------------------------------------------------
 Adding empirical dispersion correction 
 ----------------------------------------------------------------
 Doing -D3(op) with
 s6 =   1.00000
 s8 =   0.78311
 a1 =   0.30000
 a2 =   4.25000
 n  =  10.00000
 -D3 energy without 3body term =     -0.0687146732 hartrees
 ----------------------------------------------------------------
             Standard Nuclear Orientation (Angstroms)
    I     Atom           X                Y                Z
 ----------------------------------------------------------------
    1      O       3.7352818707    -3.0705906217     0.0669919857
    2      C       3.9203786641    -1.8860152214     0.4200557101
    3      C       4.7016619334    -0.7820810127    -0.3796906389
    4      C       3.7746073328     0.2111904607    -1.2012428487
    5      C       2.2530335992     0.0431940012    -0.8376232478
    6      O       1.5934458679     1.2917255251    -1.0389507809
    7      C       0.1366469109     1.2431774872    -0.7506728296
    8      C      -0.2154846870     0.8082312240     0.7313173348
    9      O      -1.6123006103     0.3356769985     0.8886664682
   10      C      -1.9265439708    -0.7893491036     0.0656061135
   11      C      -3.4598931101    -1.1061568004     0.1858043299
   12      C      -4.4210094741     0.0484638522     0.6739244518
   13      C      -3.8828022346     1.5013796064     0.4040711478
   14      O      -3.1853463574     1.9068241751    -0.5495593815
   15      O       3.4801699469    -1.3360213191     1.6700714320
   16      O      -4.3727801143     2.3485759384     1.4528451606
   17      O      -1.1083028074    -1.4229471037    -0.6354759925
   18      C      -3.9161492147     3.7392580360     1.2298740772
   19      C      -4.1544861821    -1.5613532529    -1.1703011856
   20      C      -5.3103598059    -2.5611579761    -0.7816941357
   21      C      -6.3170500351    -1.5772240028    -0.0755886264
   22      C      -5.6283201701    -0.1783381598    -0.3428783481
   23      O      -4.9042012084    -0.3665683874    -1.6230714926
   24      H      -3.5284540113    -1.9400198659     0.9112194816
   25      H      -4.7134928639    -0.0497280207     1.7331814403
   26      H      -3.4511988732    -1.9105536262    -1.9513682853
   27      H      -5.7524767099    -3.0050847266    -1.6883277843
   28      H      -4.9657556206    -3.3728599796    -0.1210685657
   29      H      -7.3151537781    -1.6118657836    -0.5400759876
   30      H      -6.4234715392    -1.7817095757     1.0021353472
   31      H      -6.3265492063     0.6782330795    -0.4160678689
   32      O       1.7028004920    -1.0079172204    -0.4398866210
   33      C       2.6334691782    -2.3235497922     2.3747376933
   34      C       5.5024203503     0.2450657752     0.5327031248
   35      C       6.6347477908     0.8962821452    -0.3547064263
   36      C       5.7803757694     1.8326001188    -1.2869458827
   37      C       4.3290354169     1.6099960548    -0.7044210802
   38      O       4.5544821414     1.3642252492     0.7396943435
   39      H       5.3852436339    -1.3099592854    -1.0679955827
   40      H       3.8936659857     0.0733914056    -2.2920492534
   41      H       3.1716410890    -3.2772605845     2.5510362434
   42      H       5.8356359556    -0.1643856255     1.5055501926
   43      H       7.3271107319     1.4779790197     0.2748707968
   44      H       7.2133066896     0.1453677727    -0.9162087144
   45      H       6.0792244979     2.8879714394    -1.1866619921
   46      H       5.8465032949     1.5473056165    -2.3491821486
   47      H       3.6188339581     2.4459694696    -0.8511221899
   48      H       1.7116203098    -2.5404643785     1.7961589937
   49      H       2.3656578847    -1.8632422340     3.3435908917
   50      H      -4.3274113872     4.3349280630     2.0654451939
   51      H      -4.2886744450     4.1444022376     0.2667048729
   52      H      -2.8091536578     3.8099720178     1.2343495463
   53      H       0.4912388324     0.0025417196     1.0256602608
   54      H      -0.1171510147     1.6630971355     1.4283043472
   55      H      -0.3538883006     0.5264239471    -1.4430796960
   56      H      -0.2385135938     2.2640042518    -0.9595729105
 ----------------------------------------------------------------
 Molecular Point Group                 C1    NOp =  1
 Largest Abelian Subgroup              C1    NOp =  1
 Nuclear Repulsion Energy =  3134.8444265664 hartrees
 There are      113 alpha and      113 beta electrons
 Requested basis set is STO-3G
 There are 86 shells and 176 basis functions

 Total QAlloc Memory Limit   4000 MB
 Mega-Array Size       392 MB
 MEM_STATIC part       400 MB
 A cutoff of  1.0D-12 yielded   2114 shell pairs
 There are      9947 function pairs
 
 -------------------------------------------------------
 OpenMP Integral Computing Module                       
 Release: version 1.0, May 2013, Q-Chem Inc. Pittsburgh 
 -------------------------------------------------------
 Integral Job Info:
 Integral job number is                      11
 Integral operator is                         1
 short-range coefficients                     0
 long-range coefficients              100000000
 Omega coefficients                           0
 if combine SR and LR in K                    0
 Integral screening is                        0
 Integral computing path is                   2
 max size of driver memory is            800000
 size of driver memory is                 45569
 size of scratch memory is              1046100
 max col of scratch BK array                289
 max len of scratch array in speh3           22
 max len of scratch index in speh4            8
 max int batch size is                      520
 min int batch size is                       52
 fixed nKL is                                52
 max L of basis functions is                  1
 order of int derivative is                   0
 number of shells is                         86
 number of basis is                         176
 number of cartesian basis is               176
 number of contracted shell pairs          2114
 number of primitive shell pairs          10940
 maxK2 (contraction) of shell pair            9
 max number of K2 of shell pair               1
 max number of CS2 of shell pair            335
 max number of PS2 of shell pair           1278
 mem total for path MDJ                   49782
 -------------------------------------------------------
 Smallest overlap matrix eigenvalue = 2.13E-01

 Scale SEOQF with 1.000000e-02/1.000000e-01/1.000000e-01

 Standard Electronic Orientation quadrupole field applied
 Nucleus-field energy     =     0.0000000327 hartrees
 Guess from superposition of atomic densities
 Warning:  Energy on first SCF cycle will be non-variational
 A restricted hybrid HF-DFT SCF calculation will be
 performed using Pulay DIIS extrapolation
 Exchange:     0.2000 Hartree-Fock + 0.0800 Slater + 0.7200 B88
 Correlation:  0.1900 VWN1RPA + 0.8100 LYP
 Using SG-1 standard quadrature grid
 Dispersion:   Grimme D3
 SCF converges when DIIS error is below 1.0E-08
 using 48 threads for integral computing
 -------------------------------------------------------
 OpenMP Integral computing Module                
 Release: version 1.0, May 2013, Q-Chem Inc. Pittsburgh 
 -------------------------------------------------------
 -------------------------------------------------------
 OpenMP BLAS3 based DFT computing Module                
 Release: version 1.0, May 2013, Q-Chem Inc. Pittsburgh 
 -------------------------------------------------------
 ---------------------------------------
  Cycle       Energy         DIIS Error
 ---------------------------------------
    1   -1507.6238027560      7.46E-02
    2   -1509.7279578157      1.04E-02
    3   -1507.2821929573      2.76E-02
    4   -1510.1794184982      4.59E-03
    5   -1510.2647195153      1.54E-03
    6   -1510.2744204112      4.44E-04
    7   -1510.2751881717      1.70E-04
    8   -1510.2753095247      3.69E-05
    9   -1510.2753153559      9.18E-06
   10   -1510.2753156910      3.67E-06
   11   -1510.2753157403      1.66E-06
   12   -1510.2753157525      2.90E-07
   13   -1510.2753157528      1.02E-07
   14   -1510.2753157529      4.47E-08
   15   -1510.2753157529      1.83E-08
   16   -1510.2753157528      5.55E-09 Convergence criterion met
 ---------------------------------------
 SCF time:  CPU 116.43 s  wall 2.48 s
 SCF   energy in the final basis set = -1510.27531575
 Total energy in the final basis set = -1510.27531575
 
 --------------------------------------------------------------
 
                    Orbital Energies (a.u.)
 --------------------------------------------------------------
 
 Alpha MOs
 -- Occupied --
-18.939 -18.936 -18.930 -18.918 -18.887 -18.883 -18.882 -18.876
-18.867 -18.858 -10.104 -10.102 -10.096 -10.087 -10.071 -10.070
-10.063 -10.060 -10.059 -10.056 -10.055 -10.052 -10.037 -10.037
-10.036 -10.030 -10.021 -10.019 -10.018 -10.017  -1.017  -1.012
 -1.004  -0.996  -0.970  -0.966  -0.942  -0.938  -0.930  -0.922
 -0.763  -0.759  -0.726  -0.721  -0.711  -0.704  -0.693  -0.662
 -0.650  -0.620  -0.596  -0.585  -0.544  -0.542  -0.537  -0.534
 -0.512  -0.509  -0.483  -0.473  -0.463  -0.459  -0.451  -0.445
 -0.432  -0.430  -0.424  -0.411  -0.408  -0.404  -0.401  -0.392
 -0.388  -0.376  -0.374  -0.363  -0.362  -0.359  -0.352  -0.347
 -0.339  -0.337  -0.331  -0.330  -0.327  -0.324  -0.322  -0.312
 -0.310  -0.306  -0.303  -0.297  -0.295  -0.288  -0.278  -0.272
 -0.271  -0.261  -0.251  -0.243  -0.236  -0.233  -0.230  -0.194
 -0.176  -0.165  -0.163  -0.157  -0.150  -0.147  -0.142  -0.141
 -0.137
 -- Virtual --
  0.095   0.098   0.109   0.117   0.204   0.243   0.247   0.256
  0.263   0.276   0.280   0.289   0.306   0.317   0.330   0.332
  0.336   0.339   0.343   0.350   0.351   0.355   0.366   0.374
  0.374   0.381   0.386   0.398   0.400   0.403   0.404   0.415
  0.418   0.419   0.422   0.424   0.432   0.433   0.433   0.437
  0.439   0.442   0.443   0.444   0.450   0.451   0.457   0.463
  0.466   0.472   0.482   0.489   0.492   0.509   0.512   0.537
  0.540   0.552   0.558   0.639   0.642   0.657   0.659
 --------------------------------------------------------------
 
          Ground-State Mulliken Net Atomic Charges

     Atom                 Charge (a.u.)
  ----------------------------------------
      1 O                    -0.215598
      2 C                     0.212498
      3 C                    -0.082028
      4 C                    -0.076756
      5 C                     0.216794
      6 O                    -0.171064
      7 C                    -0.052130
      8 C                    -0.053031
      9 O                    -0.172139
     10 C                     0.213022
     11 C                    -0.080025
     12 C                    -0.077129
     13 C                     0.216862
     14 O                    -0.217807
     15 O                    -0.173960
     16 O                    -0.172132
     17 O                    -0.206958
     18 C                    -0.128509
     19 C                     0.025022
     20 C                    -0.141616
     21 C                    -0.145289
     22 C                     0.024555
     23 O                    -0.188690
     24 H                     0.083707
     25 H                     0.087521
     26 H                     0.090392
     27 H                     0.078404
     28 H                     0.074066
     29 H                     0.078221
     30 H                     0.073736
     31 H                     0.081746
     32 O                    -0.202936
     33 C                    -0.129285
     34 C                     0.025335
     35 C                    -0.143374
     36 C                    -0.144978
     37 C                     0.022693
     38 O                    -0.190691
     39 H                     0.082508
     40 H                     0.086547
     41 H                     0.086981
     42 H                     0.085782
     43 H                     0.076923
     44 H                     0.073303
     45 H                     0.077313
     46 H                     0.073159
     47 H                     0.090725
     48 H                     0.092601
     49 H                     0.085714
     50 H                     0.089269
     51 H                     0.087985
     52 H                     0.086744
     53 H                     0.101037
     54 H                     0.089506
     55 H                     0.100166
     56 H                     0.095290
  ----------------------------------------
  Sum of atomic charges =     0.000000

 -----------------------------------------------------------------
                    Cartesian Multipole Moments
 -----------------------------------------------------------------
    Charge (ESU x 10^10)
                 0.0000
    Dipole Moment (Debye)
         X      -0.8091      Y       1.4153      Z       1.2535
       Tot       2.0564
    Quadrupole Moments (Debye-Ang)
        XX    -141.2675     XY       6.5841     YY    -159.3586
        XZ      -9.8421     YZ      -3.4682     ZZ    -159.0679
    Octopole Moments (Debye-Ang^2)
       XXX      11.6919    XXY      -4.4535    XYY     -54.9434
       YYY      52.2795    XXZ      -2.6362    XYZ     -20.0163
       YYZ      20.1361    XZZ      24.0592    YZZ     -13.0921
       ZZZ       9.1590
    Hexadecapole Moments (Debye-Ang^3)
      XXXX  -15270.0477   XXXY      -5.7259   XXYY   -3112.6993
      XYYY    -116.0227   YYYY   -2752.4158   XXXZ    -113.6969
      XXYZ     -34.5389   XYYZ      13.4642   YYYZ      15.9713
      XXZZ   -2923.8418   XYZZ     -52.6711   YYZZ    -623.2576
      XZZZ      27.2101   YZZZ      -1.0272   ZZZZ   -1105.6630
 -----------------------------------------------------------------
 Calculating analytic gradient of the SCF energy
 Gradient of SCF Energy
            1           2           3           4           5           6
    1  -0.0019020   0.0028566  -0.0009247  -0.0004616   0.0005179  -0.0003510
    2   0.0005515  -0.0011446   0.0024004  -0.0021382   0.0008624  -0.0055592
    3  -0.0010049   0.0009061   0.0021620  -0.0030044   0.0023303  -0.0025371
            7           8           9          10          11          12
    1   0.0014368  -0.0032344   0.0015388   0.0009521  -0.0026229   0.0038068
    2   0.0051489   0.0056904  -0.0036881  -0.0037726   0.0035411  -0.0022462
    3   0.0016276   0.0002123  -0.0031241   0.0066222  -0.0118217   0.0097229
           13          14          15          16          17          18
    1  -0.0049935   0.0030466  -0.0000776   0.0000221   0.0000322  -0.0000459
    2   0.0013057  -0.0008496  -0.0001068   0.0000534   0.0000462  -0.0001357
    3  -0.0036158   0.0018875   0.0000052  -0.0001053  -0.0001003   0.0000462
           19          20          21          22          23          24
    1   0.0001442  -0.0000996   0.0000061   0.0001711  -0.0000285   0.0000016
    2   0.0000478   0.0001109   0.0000488   0.0001081  -0.0000492  -0.0000197
    3  -0.0001342   0.0000317  -0.0000020   0.0000613   0.0000815   0.0000252
           25          26          27          28          29          30
    1  -0.0000176  -0.0000591  -0.0000256   0.0000772  -0.0000070  -0.0000658
    2   0.0000039  -0.0000332  -0.0000520   0.0000115   0.0000264  -0.0000703
    3  -0.0000239  -0.0000188   0.0000015   0.0000855  -0.0000361   0.0000230
           31          32          33          34          35          36
    1  -0.0000011   0.0000071  -0.0000114  -0.0002722   0.0001540  -0.0000747
    2   0.0000067  -0.0000302  -0.0000059  -0.0002433   0.0001394  -0.0001276
    3   0.0000101   0.0000200  -0.0000044  -0.0001016   0.0001374   0.0000752
           37          38          39          40          41          42
    1   0.0002829   0.0000677   0.0000432  -0.0000389  -0.0000002  -0.0000179
    2   0.0000370  -0.0000461  -0.0000125  -0.0001241   0.0000039   0.0000187
    3  -0.0002493  -0.0000158  -0.0001140  -0.0000285  -0.0000450   0.0000421
           43          44          45          46          47          48
    1  -0.0000104   0.0000730   0.0000151  -0.0000064  -0.0000171   0.0000297
    2  -0.0000094   0.0000558  -0.0000095   0.0000030   0.0000242   0.0000104
    3  -0.0000208  -0.0000158  -0.0000049  -0.0000165   0.0000678   0.0000024
           49          50          51          52          53          54
    1   0.0000180   0.0000304   0.0000041   0.0000222   0.0000310  -0.0000133
    2   0.0000130   0.0000231   0.0000506   0.0000383   0.0000313   0.0000316
    3  -0.0000010   0.0000084  -0.0000038   0.0000063  -0.0000305  -0.0000164
           55          56
    1  -0.0000314   0.0000228
    2  -0.0000129   0.0000428
    3   0.0000116  -0.0000166
 Max gradient component =       1.182E-02
 RMS gradient           =       1.842E-03
 Gradient time:  CPU 31.18 s  wall 0.67 s
 Geometry Optimization Parameters
   NAtoms,    NIC,     NZ,  NCons,   NDum,   NFix, NCnnct, MaxDiis
       56     458       0       0       0       0       0       0


** GEOMETRY OPTIMIZATION IN DELOCALIZED INTERNAL COORDINATES **
   Searching for a Minimum

   Optimization Cycle:   1

                       Coordinates (Angstroms)
     ATOM                X               Y               Z
      1  O         3.7352818707   -3.0705906217    0.0669919857
      2  C         3.9203786641   -1.8860152214    0.4200557101
      3  C         4.7016619334   -0.7820810127   -0.3796906389
      4  C         3.7746073328    0.2111904607   -1.2012428487
      5  C         2.2530335992    0.0431940012   -0.8376232478
      6  O         1.5934458679    1.2917255251   -1.0389507809
      7  C         0.1366469109    1.2431774872   -0.7506728296
      8  C        -0.2154846870    0.8082312240    0.7313173348
      9  O        -1.6123006103    0.3356769985    0.8886664682
     10  C        -1.9265439708   -0.7893491036    0.0656061135
     11  C        -3.4598931101   -1.1061568004    0.1858043299
     12  C        -4.4210094741    0.0484638522    0.6739244518
     13  C        -3.8828022346    1.5013796064    0.4040711478
     14  O        -3.1853463574    1.9068241751   -0.5495593815
     15  O         3.4801699469   -1.3360213191    1.6700714320
     16  O        -4.3727801143    2.3485759384    1.4528451606
     17  O        -1.1083028074   -1.4229471037   -0.6354759925
     18  C        -3.9161492147    3.7392580360    1.2298740772
     19  C        -4.1544861821   -1.5613532529   -1.1703011856
     20  C        -5.3103598059   -2.5611579761   -0.7816941357
     21  C        -6.3170500351   -1.5772240028   -0.0755886264
     22  C        -5.6283201701   -0.1783381598   -0.3428783481
     23  O        -4.9042012084   -0.3665683874   -1.6230714926
     24  H        -3.5284540113   -1.9400198659    0.9112194816
     25  H        -4.7134928639   -0.0497280207    1.7331814403
     26  H        -3.4511988732   -1.9105536262   -1.9513682853
     27  H        -5.7524767099   -3.0050847266   -1.6883277843
     28  H        -4.9657556206   -3.3728599796   -0.1210685657
     29  H        -7.3151537781   -1.6118657836   -0.5400759876
     30  H        -6.4234715392   -1.7817095757    1.0021353472
     31  H        -6.3265492063    0.6782330795   -0.4160678689
     32  O         1.7028004920   -1.0079172204   -0.4398866210
     33  C         2.6334691782   -2.3235497922    2.3747376933
     34  C         5.5024203503    0.2450657752    0.5327031248
     35  C         6.6347477908    0.8962821452   -0.3547064263
     36  C         5.7803757694    1.8326001188   -1.2869458827
     37  C         4.3290354169    1.6099960548   -0.7044210802
     38  O         4.5544821414    1.3642252492    0.7396943435
     39  H         5.3852436339   -1.3099592854   -1.0679955827
     40  H         3.8936659857    0.0733914056   -2.2920492534
     41  H         3.1716410890   -3.2772605845    2.5510362434
     42  H         5.8356359556   -0.1643856255    1.5055501926
     43  H         7.3271107319    1.4779790197    0.2748707968
     44  H         7.2133066896    0.1453677727   -0.9162087144
     45  H         6.0792244979    2.8879714394   -1.1866619921
     46  H         5.8465032949    1.5473056165   -2.3491821486
     47  H         3.6188339581    2.4459694696   -0.8511221899
     48  H         1.7116203098   -2.5404643785    1.7961589937
     49  H         2.3656578847   -1.8632422340    3.3435908917
     50  H        -4.3274113872    4.3349280630    2.0654451939
     51  H        -4.2886744450    4.1444022376    0.2667048729
     52  H        -2.8091536578    3.8099720178    1.2343495463
     53  H         0.4912388324    0.0025417196    1.0256602608
     54  H        -0.1171510147    1.6630971355    1.4283043472
     55  H        -0.3538883006    0.5264239471   -1.4430796960
     56  H        -0.2385135938    2.2640042518   -0.9595729105
   Point Group: c1    Number of degrees of freedom:   162


   Energy is  -1510.275315753


 Attempting to Generate Delocalized Internal Coordinates

162 Hessian modes will be used to form the next step
  Hessian Eigenvalues:
     0.002000    0.002000    0.002000    0.002000    0.002000    0.002711
     0.002801    0.004111    0.004214    0.004290    0.004450    0.004502
     0.004672    0.004981    0.005140    0.006784    0.006816    0.011034
     0.011084    0.011818    0.012162    0.021488    0.021651    0.025389
     0.025990    0.030665    0.030779    0.034817    0.035589    0.038044
     0.040364    0.041725    0.042231    0.044229    0.044752    0.045855
     0.046508    0.047139    0.047666    0.050747    0.051130    0.053024
     0.054570    0.054582    0.055284    0.055416    0.056304    0.056312
     0.056442    0.058860    0.060212    0.060542    0.060689    0.063135
     0.063655    0.064311    0.064496    0.070043    0.070072    0.072993
     0.073462    0.091247    0.091849    0.092783    0.092869    0.096157
     0.096618    0.097044    0.097127    0.102488    0.102699    0.110181
     0.111381    0.114899    0.115771    0.122107    0.122733    0.138871
     0.139481    0.157367    0.157923    0.160000    0.160000    0.160000
     0.160000    0.160000    0.160000    0.164187    0.164194    0.217734
     0.220120    0.221207    0.221273    0.226808    0.230393    0.238345
     0.238769    0.239495    0.239611    0.243717    0.246986    0.249415
     0.249878    0.249910    0.249999    0.249999    0.250000    0.250000
     0.250000    0.250000    0.250000    0.250000    0.250000    0.250000
     0.253153    0.253271    0.257527    0.258062    0.259246    0.259916
     0.291702    0.291958    0.306500    0.306832    0.324512    0.325197
     0.326234    0.326711    0.326784    0.326873    0.328631    0.328643
     0.328702    0.328807    0.328807    0.329359    0.329532    0.330376
     0.330737    0.330807    0.332000    0.333226    0.334507    0.334560
     0.334765    0.334768    0.334801    0.334876    0.335231    0.335239
     0.339094    0.342333    0.344991    0.346366    0.402992    0.403516
     0.411424    0.415210    0.827534    0.832396    0.832910    0.835717

 Minimum Search - Taking Simple RFO Step
 Searching for Lamda that Minimizes Along All modes
 Value Taken    Lamda =  -0.01139270
 Calculated Step too Large.  Step scaled by  0.362604
 Step Taken.  Stepsize is  0.300000

                             Maximum     Tolerance    Cnvgd?
         Gradient           0.007142      0.000300      NO
         Displacement       0.137629      0.001200      NO
         Energy change     *********      0.000001      NO


 New Cartesian Coordinates Obtained by Inverse Iteration

 Displacement from previous Coordinates is:  3.825502
 Adding empirical dispersion correction 
 ----------------------------------------------------------------
 Doing -D3(op) with
 s6 =   1.00000
 s8 =   0.78311
 a1 =   0.30000
 a2 =   4.25000
 n  =  10.00000
 -D3 energy without 3body term =     -0.0684576863 hartrees
 ----------------------------------------------------------------
             Standard Nuclear Orientation (Angstroms)
    I     Atom           X                Y                Z
 ----------------------------------------------------------------
    1      O       3.8073257378    -3.0831612309    -0.3088608581
    2      C       3.9488539299    -1.9387021758     0.1731123421
    3      C       4.7291516764    -0.7396974561    -0.4767788469
    4      C       3.8024122369     0.3389979857    -1.1830312139
    5      C       2.2776234402     0.1128658987    -0.8673757105
    6      O       1.6040546346     1.3679579787    -0.9411846139
    7      C       0.1489235199     1.2754500116    -0.6552215590
    8      C      -0.1929138363     0.7745076201     0.8082412039
    9      O      -1.6036749404     0.3459727953     0.9673062752
   10      C      -1.9505788882    -0.7771533159     0.1548184990
   11      C      -3.4836075242    -1.0765607633     0.3167098167
   12      C      -4.4418682893     0.1305939112     0.6640814446
   13      C      -3.8944399850     1.5411558596     0.2351653447
   14      O      -3.2344543696     1.8414682334    -0.7819291176
   15      O       3.4791567222    -1.5435075824     1.4700502256
   16      O      -4.3699210961     2.5000345764     1.1903102049
   17      O      -1.1425683962    -1.4724446417    -0.4979736843
   18      C      -3.9264448305     3.8582388084     0.8018258499
   19      C      -4.1787414038    -1.6745835958    -0.9835363063
   20      C      -5.3394381820    -2.6210969428    -0.4900707730
   21      C      -6.3438266787    -1.5610832068     0.0996815470
   22      C      -5.6496175004    -0.2033056292    -0.3211879152
   23      O      -4.9231155630    -0.5357112787    -1.5698152291
   24      H      -3.5543791475    -1.8286663391     1.1263645919
   25      H      -4.7337898390     0.1540459424     1.7277884818
   26      H      -3.4751388730    -2.1107153075    -1.7193084057
   27      H      -5.7811596049    -3.1610239371    -1.3432076379
   28      H      -4.9997227233    -3.3559065751     0.2573209453
   29      H      -7.3413206290    -1.6439519554    -0.3599636449
   30      H      -6.4526011615    -1.6433173690     1.1932931270
   31      H      -6.3440755742     0.6425204938    -0.4912033633
   32      O       1.7359271442    -0.9823870470    -0.5976411532
   33      C       2.6469627486    -2.6229883063     2.0453403503
   34      C       5.5059409664     0.1765620506     0.5656977449
   35      C       6.6422382916     0.9418321395    -0.2196038593
   36      C       5.7898881699     1.9778380749    -1.0417262563
   37      C       4.3337266367     1.6718453552    -0.5113290201
   38      O       4.5430568113     1.2530301840     0.8947735324
   39      H       5.4287251898    -1.1738095249    -1.2127996352
   40      H       3.9383047707     0.3362639440    -2.2805303343
   41      H       3.2054515373    -3.5782419828     2.1219874784
   42      H       5.8312138295    -0.3456165779     1.4858118918
   43      H       7.3204111329     1.4481136486     0.4860047261
   44      H       7.2356510670     0.2705027063    -0.8607510767
   45      H       6.0759475650     3.0156397825    -0.8086813639
   46      H       5.8726658793     1.8255957111    -2.1298766015
   47      H       3.6160434523     2.5125351583    -0.5651544556
   48      H       1.7385076382    -2.7938232749     1.4311917377
   49      H       2.3549852725    -2.2811114653     3.0553610112
   50      H      -4.3258771294     4.5433985095     1.5719866030
   51      H      -4.3194876175     4.1493978759    -0.1938243513
   52      H      -2.8200373162     3.9336026337     0.7768847914
   53      H       0.4980132111    -0.0576603995     1.0639056536
   54      H      -0.0682442371     1.5992949831     1.5365433357
   55      H      -0.3404001046     0.5944206747    -1.3835948945
   56      H      -0.2338526264     2.3035944972    -0.8063163907
 ----------------------------------------------------------------
 Molecular Point Group                 C1    NOp =  1
 Largest Abelian Subgroup              C1    NOp =  1
 Nuclear Repulsion Energy =  3126.8189894449 hartrees
 There are      113 alpha and      113 beta electrons
 Applying Cartesian multipole field
    Component          Value
    ---------          -----
     (2,0,0)        1.00000E-12
     (0,2,0)        2.00000E-11
     (0,0,2)       -3.00000E-11
 Nucleus-field energy     =     0.0000000406 hartrees
 Requested basis set is STO-3G
 There are 86 shells and 176 basis functions
 A cutoff of  1.0D-12 yielded   2114 shell pairs
 There are      9935 function pairs
 Smallest overlap matrix eigenvalue = 2.13E-01
 Guess MOs from SCF MO coefficient file
 Reading MOs from coefficient file
 Reading MOs from coefficient file
 A restricted hybrid HF-DFT SCF calculation will be
 performed using Pulay DIIS extrapolation
 Exchange:     0.2000 Hartree-Fock + 0.0800 Slater + 0.7200 B88
 Correlation:  0.1900 VWN1RPA + 0.8100 LYP
 Using SG-1 standard quadrature grid
 Dispersion:   Grimme D3
 SCF converges when DIIS error is below 1.0E-08
 Geometry optimization detected.  Setting ReadMinima to 0
 Setting SaveMinima to 0
 using 48 threads for integral computing
 -------------------------------------------------------
 OpenMP Integral computing Module                
 Release: version 1.0, May 2013, Q-Chem Inc. Pittsburgh 
 -------------------------------------------------------
 -------------------------------------------------------
 OpenMP BLAS3 based DFT computing Module                
 Release: version 1.0, May 2013, Q-Chem Inc. Pittsburgh 
 -------------------------------------------------------
 ---------------------------------------
  Cycle       Energy         DIIS Error
 ---------------------------------------
    1   -1510.1101958913      5.87E-03
    2   -1510.2759638989      5.60E-04
    3   -1510.2753064120      7.81E-04
    4   -1510.2776371998      2.95E-04
    5   -1510.2780053546      7.93E-05
    6   -1510.2780320223      2.83E-05
    7   -1510.2780351619      1.40E-05
    8   -1510.2780359613      3.78E-06
    9   -1510.2780360269      5.61E-07
   10   -1510.2780360285      2.85E-07
   11   -1510.2780360288      1.45E-07
   12   -1510.2780360289      5.67E-08
   13   -1510.2780360290      1.65E-08
   14   -1510.2780360291      2.39E-09 Convergence criterion met
 ---------------------------------------
 SCF time:  CPU 99.94 s  wall 2.09 s
 SCF   energy in the final basis set = -1510.27803603
 Total energy in the final basis set = -1510.27803603
 
 --------------------------------------------------------------
 
                    Orbital Energies (a.u.)
 --------------------------------------------------------------
 
 Alpha MOs
 -- Occupied --
-18.940 -18.936 -18.931 -18.918 -18.887 -18.883 -18.883 -18.876
-18.869 -18.858 -10.104 -10.102 -10.096 -10.087 -10.073 -10.072
-10.064 -10.061 -10.058 -10.056 -10.056 -10.051 -10.038 -10.037
-10.036 -10.030 -10.021 -10.019 -10.018 -10.017  -1.017  -1.012
 -1.006  -0.995  -0.970  -0.967  -0.943  -0.938  -0.931  -0.921
 -0.763  -0.759  -0.727  -0.721  -0.711  -0.704  -0.694  -0.662
 -0.650  -0.621  -0.596  -0.585  -0.544  -0.542  -0.537  -0.534
 -0.512  -0.509  -0.483  -0.474  -0.463  -0.459  -0.451  -0.445
 -0.432  -0.431  -0.424  -0.411  -0.409  -0.403  -0.400  -0.393
 -0.389  -0.376  -0.374  -0.363  -0.361  -0.360  -0.352  -0.346
 -0.340  -0.337  -0.331  -0.330  -0.327  -0.325  -0.322  -0.312
 -0.311  -0.305  -0.303  -0.298  -0.294  -0.288  -0.278  -0.272
 -0.271  -0.262  -0.252  -0.243  -0.238  -0.233  -0.231  -0.194
 -0.176  -0.167  -0.162  -0.157  -0.152  -0.148  -0.142  -0.141
 -0.136
 -- Virtual --
  0.094   0.097   0.109   0.117   0.203   0.242   0.247   0.257
  0.263   0.276   0.280   0.289   0.306   0.317   0.330   0.332
  0.335   0.338   0.343   0.350   0.351   0.356   0.364   0.374
  0.374   0.381   0.386   0.399   0.400   0.403   0.403   0.415
  0.418   0.419   0.421   0.423   0.432   0.432   0.434   0.437
  0.437   0.441   0.443   0.444   0.447   0.450   0.456   0.460
  0.466   0.472   0.480   0.489   0.492   0.509   0.512   0.537
  0.540   0.552   0.557   0.639   0.641   0.657   0.658
 --------------------------------------------------------------
 
          Ground-State Mulliken Net Atomic Charges

     Atom                 Charge (a.u.)
  ----------------------------------------
      1 O                    -0.216099
      2 C                     0.212719
      3 C                    -0.082072
      4 C                    -0.076846
      5 C                     0.216059
      6 O                    -0.171076
      7 C                    -0.051120
      8 C                    -0.052137
      9 O                    -0.173314
     10 C                     0.212487
     11 C                    -0.079716
     12 C                    -0.076941
     13 C                     0.214977
     14 O                    -0.217400
     15 O                    -0.174165
     16 O                    -0.171516
     17 O                    -0.205521
     18 C                    -0.128577
     19 C                     0.024732
     20 C                    -0.141750
     21 C                    -0.145316
     22 C                     0.024682
     23 O                    -0.188417
     24 H                     0.084081
     25 H                     0.087507
     26 H                     0.090821
     27 H                     0.078430
     28 H                     0.073703
     29 H                     0.078297
     30 H                     0.073726
     31 H                     0.081792
     32 O                    -0.201836
     33 C                    -0.129465
     34 C                     0.025446
     35 C                    -0.143370
     36 C                    -0.144964
     37 C                     0.022676
     38 O                    -0.190697
     39 H                     0.082608
     40 H                     0.086351
     41 H                     0.086768
     42 H                     0.085778
     43 H                     0.076939
     44 H                     0.073377
     45 H                     0.077302
     46 H                     0.073201
     47 H                     0.090285
     48 H                     0.093697
     49 H                     0.085321
     50 H                     0.089508
     51 H                     0.088339
     52 H                     0.086410
     53 H                     0.100061
     54 H                     0.090268
     55 H                     0.099655
     56 H                     0.094312
  ----------------------------------------
  Sum of atomic charges =     0.000000

 -----------------------------------------------------------------
                    Cartesian Multipole Moments
 -----------------------------------------------------------------
    Charge (ESU x 10^10)
                 0.0000
    Dipole Moment (Debye)
         X      -0.8050      Y       1.7396      Z       1.4832
       Tot       2.4236
    Quadrupole Moments (Debye-Ang)
        XX    -141.2253     XY       6.7154     YY    -157.9199
        XZ      -9.7050     YZ      -5.5089     ZZ    -160.8245
    Octopole Moments (Debye-Ang^2)
       XXX      10.1846    XXY       3.7773    XYY     -52.8484
       YYY      53.5809    XXZ       2.7946    XYZ     -18.6090
       YYZ      23.0687    XZZ      21.5150    YZZ     -11.4585
       ZZZ      10.5700
    Hexadecapole Moments (Debye-Ang^3)
      XXXX  -15380.2884   XXXY       8.4903   XXYY   -3158.8204
      XYYY    -125.4762   YYYY   -2919.7077   XXXZ    -102.7798
      XXYZ     -58.8813   XYYZ      50.6088   YYYZ      23.8760
      XXZZ   -2928.8125   XYZZ     -41.4558   YYZZ    -640.0908
      XZZZ      22.5484   YZZZ      25.7083   ZZZZ    -927.9464
 -----------------------------------------------------------------
 Calculating analytic gradient of the SCF energy
 Gradient of SCF Energy
            1           2           3           4           5           6
    1  -0.0010714   0.0012198  -0.0000863  -0.0004510   0.0000943   0.0004811
    2   0.0002489  -0.0005149   0.0007475  -0.0011466   0.0019683  -0.0049450
    3  -0.0001790  -0.0005383   0.0019453  -0.0019667   0.0011444  -0.0030536
            7           8           9          10          11          12
    1   0.0010313  -0.0025584   0.0035103  -0.0008306  -0.0007440   0.0024201
    2   0.0041589   0.0044518  -0.0076052   0.0030961   0.0007142  -0.0006828
    3   0.0018350   0.0003917  -0.0002470   0.0020017  -0.0067736   0.0066969
           13          14          15          16          17          18
    1  -0.0017807  -0.0006327   0.0003139  -0.0008887  -0.0003594  -0.0000333
    2   0.0006868   0.0012299  -0.0001579   0.0001653  -0.0028303  -0.0000008
    3  -0.0030293   0.0001451  -0.0000783  -0.0004475   0.0019380  -0.0000174
           19          20          21          22          23          24
    1  -0.0001624   0.0000740   0.0000227  -0.0008278  -0.0001880  -0.0003854
    2   0.0007882   0.0000272  -0.0000224  -0.0003012   0.0003128  -0.0008409
    3   0.0004009   0.0000104   0.0000882   0.0002783  -0.0000927  -0.0005878
           25          26          27          28          29          30
    1   0.0003063  -0.0000444   0.0000765  -0.0000657   0.0000324  -0.0000158
    2  -0.0001200   0.0000214  -0.0001154  -0.0000399   0.0000172   0.0000554
    3  -0.0000102   0.0000301  -0.0000109  -0.0001332  -0.0000205  -0.0000363
           31          32          33          34          35          36
    1  -0.0000317   0.0013079  -0.0000263  -0.0004374  -0.0000994  -0.0001506
    2  -0.0000000  -0.0008988  -0.0000277  -0.0001851   0.0004409  -0.0005996
    3  -0.0001069   0.0000347   0.0002523  -0.0001799   0.0000225   0.0001319
           37          38          39          40          41          42
    1   0.0003491  -0.0001168   0.0004401  -0.0001521  -0.0000462   0.0000627
    2   0.0002144   0.0000502   0.0003445  -0.0002762  -0.0000487   0.0000320
    3  -0.0006871   0.0001763   0.0000203   0.0000365  -0.0001238   0.0000985
           43          44          45          46          47          48
    1   0.0000640   0.0002128  -0.0000479   0.0001527   0.0000028   0.0001207
    2  -0.0000637   0.0000754  -0.0000938   0.0000274   0.0000125   0.0000521
    3   0.0000918  -0.0000778   0.0000115   0.0000476   0.0001050  -0.0000582
           49          50          51          52          53          54
    1   0.0000476  -0.0000156   0.0000022   0.0000180   0.0001883  -0.0012770
    2  -0.0000313  -0.0000150   0.0000337  -0.0000939   0.0005849   0.0003214
    3  -0.0000393  -0.0000269   0.0000369  -0.0000113   0.0002374  -0.0004908
           55          56
    1  -0.0000435   0.0010189
    2   0.0004862   0.0002915
    3   0.0001584   0.0006569
 Max gradient component =       7.605E-03
 RMS gradient           =       1.387E-03
 Gradient time:  CPU 30.23 s  wall 0.64 s
 Geometry Optimization Parameters
   NAtoms,    NIC,     NZ,  NCons,   NDum,   NFix, NCnnct, MaxDiis
       56     458       0       0       0       0       0       0

 Cartesian Hessian Update
 Hessian Updated using BFGS Update


** GEOMETRY OPTIMIZATION IN DELOCALIZED INTERNAL COORDINATES **
   Searching for a Minimum

   Optimization Cycle:   2

                       Coordinates (Angstroms)
     ATOM                X               Y               Z
      1  O         3.8073257378   -3.0831612309   -0.3088608581
      2  C         3.9488539299   -1.9387021758    0.1731123421
      3  C         4.7291516764   -0.7396974561   -0.4767788469
      4  C         3.8024122369    0.3389979857   -1.1830312139
      5  C         2.2776234402    0.1128658987   -0.8673757105
      6  O         1.6040546346    1.3679579787   -0.9411846139
      7  C         0.1489235199    1.2754500116   -0.6552215590
      8  C        -0.1929138363    0.7745076201    0.8082412039
      9  O        -1.6036749404    0.3459727953    0.9673062752
     10  C        -1.9505788882   -0.7771533159    0.1548184990
     11  C        -3.4836075242   -1.0765607633    0.3167098167
     12  C        -4.4418682893    0.1305939112    0.6640814446
     13  C        -3.8944399850    1.5411558596    0.2351653447
     14  O        -3.2344543696    1.8414682334   -0.7819291176
     15  O         3.4791567222   -1.5435075824    1.4700502256
     16  O        -4.3699210961    2.5000345764    1.1903102049
     17  O        -1.1425683962   -1.4724446417   -0.4979736843
     18  C        -3.9264448305    3.8582388084    0.8018258499
     19  C        -4.1787414038   -1.6745835958   -0.9835363063
     20  C        -5.3394381820   -2.6210969428   -0.4900707730
     21  C        -6.3438266787   -1.5610832068    0.0996815470
     22  C        -5.6496175004   -0.2033056292   -0.3211879152
     23  O        -4.9231155630   -0.5357112787   -1.5698152291
     24  H        -3.5543791475   -1.8286663391    1.1263645919
     25  H        -4.7337898390    0.1540459424    1.7277884818
     26  H        -3.4751388730   -2.1107153075   -1.7193084057
     27  H        -5.7811596049   -3.1610239371   -1.3432076379
     28  H        -4.9997227233   -3.3559065751    0.2573209453
     29  H        -7.3413206290   -1.6439519554   -0.3599636449
     30  H        -6.4526011615   -1.6433173690    1.1932931270
     31  H        -6.3440755742    0.6425204938   -0.4912033633
     32  O         1.7359271442   -0.9823870470   -0.5976411532
     33  C         2.6469627486   -2.6229883063    2.0453403503
     34  C         5.5059409664    0.1765620506    0.5656977449
     35  C         6.6422382916    0.9418321395   -0.2196038593
     36  C         5.7898881699    1.9778380749   -1.0417262563
     37  C         4.3337266367    1.6718453552   -0.5113290201
     38  O         4.5430568113    1.2530301840    0.8947735324
     39  H         5.4287251898   -1.1738095249   -1.2127996352
     40  H         3.9383047707    0.3362639440   -2.2805303343
     41  H         3.2054515373   -3.5782419828    2.1219874784
     42  H         5.8312138295   -0.3456165779    1.4858118918
     43  H         7.3204111329    1.4481136486    0.4860047261
     44  H         7.2356510670    0.2705027063   -0.8607510767
     45  H         6.0759475650    3.0156397825   -0.8086813639
     46  H         5.8726658793    1.8255957111   -2.1298766015
     47  H         3.6160434523    2.5125351583   -0.5651544556
     48  H         1.7385076382   -2.7938232749    1.4311917377
     49  H         2.3549852725   -2.2811114653    3.0553610112
     50  H        -4.3258771294    4.5433985095    1.5719866030
     51  H        -4.3194876175    4.1493978759   -0.1938243513
     52  H        -2.8200373162    3.9336026337    0.7768847914
     53  H         0.4980132111   -0.0576603995    1.0639056536
     54  H        -0.0682442371    1.5992949831    1.5365433357
     55  H        -0.3404001046    0.5944206747   -1.3835948945
     56  H        -0.2338526264    2.3035944972   -0.8063163907
   Point Group: c1    Number of degrees of freedom:   162


   Energy is  -1510.278036029

 Hessian Updated using BFGS Update

149 Hessian modes will be used to form the next step
  Hessian Eigenvalues:
     0.001843    0.002301    0.002709    0.002835    0.003808    0.004184
     0.004223    0.004477    0.004502    0.004981    0.005140    0.006536
     0.006815    0.011034    0.011084    0.011526    0.011867    0.018818
     0.021650    0.021943    0.024109    0.025987    0.030385    0.030775
     0.033178    0.035541    0.035642    0.040362    0.041154    0.041731
     0.042360    0.045226    0.046431    0.046528    0.047651    0.050589
     0.050851    0.052001    0.053029    0.054576    0.054763    0.055389
     0.055418    0.056296    0.056350    0.056508    0.058857    0.060145
     0.060675    0.062688    0.063287    0.063655    0.064315    0.064507
     0.070044    0.070075    0.072994    0.073581    0.091671    0.092071
     0.092785    0.092893    0.096166    0.096618    0.097127    0.099374
     0.102488    0.102700    0.110187    0.114704    0.115120    0.115844
     0.122105    0.127142    0.138660    0.139459    0.157367    0.159578
     0.159998    0.160042    0.164129    0.169235    0.217534    0.220030
     0.221214    0.225638    0.226908    0.232354    0.238367    0.238782
     0.239503    0.239607    0.243738    0.246986    0.249420    0.249877
     0.249909    0.249974    0.249999    0.249999    0.253153    0.253270
     0.257516    0.257943    0.259242    0.259678    0.291541    0.291949
     0.306074    0.306532    0.324335    0.324953    0.326229    0.326707
     0.326784    0.326872    0.328285    0.328633    0.328644    0.328744
     0.328807    0.329347    0.329530    0.330243    0.330600    0.330784
     0.330861    0.332002    0.333236    0.334512    0.334560    0.334765
     0.334772    0.334819    0.334891    0.335236    0.335243    0.341037
     0.344990    0.346364    0.381016    0.403058    0.403529    0.412207
     0.415942    0.827554    0.832433    0.832913    0.835726

 Minimum Search - Taking Simple RFO Step
 Searching for Lamda that Minimizes Along All modes
 Value Taken    Lamda =  -0.00836749
 Calculated Step too Large.  Step scaled by  0.390310
 Step Taken.  Stepsize is  0.300000

                             Maximum     Tolerance    Cnvgd?
         Gradient           0.013093      0.000300      NO
         Displacement       0.096619      0.001200      NO
         Energy change     -0.002720      0.000001      NO


 New Cartesian Coordinates Obtained by Inverse Iteration

 Displacement from previous Coordinates is:  3.330195
 Adding empirical dispersion correction 
 ----------------------------------------------------------------
 Doing -D3(op) with
 s6 =   1.00000
 s8 =   0.78311
 a1 =   0.30000
 a2 =   4.25000
 n  =  10.00000
 -D3 energy without 3body term =     -0.0691374127 hartrees
 ----------------------------------------------------------------
             Standard Nuclear Orientation (Angstroms)
    I     Atom           X                Y                Z
 ----------------------------------------------------------------
    1      O       3.8523871221    -3.0372053008    -0.5891991600
    2      C       3.9417691537    -1.9281506794    -0.0198723427
    3      C       4.7070846485    -0.6632577594    -0.5527072963
    4      C       3.7677446125     0.4591665239    -1.1674259631
    5      C       2.2444729181     0.1701671584    -0.9007453292
    6      O       1.5373106094     1.4084259280    -0.8859824442
    7      C       0.0917039432     1.2409324559    -0.5931861281
    8      C      -0.2054086815     0.7251355097     0.8739434685
    9      O      -1.6186294393     0.3247483754     1.0688667480
   10      C      -1.9696532095    -0.8461041842     0.3280646332
   11      C      -3.5105226991    -1.0993115287     0.4786290154
   12      C      -4.4332414170     0.1703163658     0.6441849896
   13      C      -3.7765764624     1.5008308282     0.1265025125
   14      O      -3.0429763144     1.6649949785    -0.8711105932
   15      O       3.4321999936    -1.6487004782     1.2921444428
   16      O      -4.2240708141     2.5673286014     0.9751622219
   17      O      -1.1645092290    -1.5854989422    -0.2779499742
   18      C      -3.6644747539     3.8542237982     0.5026436925
   19      C      -4.1712540535    -1.8028520544    -0.7881435739
   20      C      -5.4011081459    -2.6400711690    -0.2652243047
   21      C      -6.3835953097    -1.4802983660     0.1478516254
   22      C      -5.6010649056    -0.2070120055    -0.3709761253
   23      O      -4.8271694485    -0.7028991964    -1.5329704593
   24      H      -3.6349294397    -1.7633296853     1.3558681511
   25      H      -4.7777727403     0.3128245403     1.6826382014
   26      H      -3.4531281410    -2.3434435504    -1.4352622055
   27      H      -5.8225156304    -3.2497852042    -1.0807365997
   28      H      -5.1380414998    -3.3031560498     0.5744639151
   29      H      -7.3575205327    -1.5691461560    -0.3588209342
   30      H      -6.5555123848    -1.4393395300     1.2356729496
   31      H      -6.2414278249     0.6467967112    -0.6667913593
   32      O       1.7249921046    -0.9555431983    -0.7318309984
   33      C       2.6212771556    -2.7932037591     1.7627071389
   34      C       5.4539651989     0.1696022394     0.5785086023
   35      C       6.5804950309     1.0271750217    -0.1205660903
   36      C       5.7141348459     2.1197154979    -0.8502099557
   37      C       4.2600820247     1.7345556827    -0.3674229351
   38      O       4.4650498295     1.1906258168     0.9955290866
   39      H       5.4238717165    -1.0175287102    -1.3142919901
   40      H       3.9187275305     0.5610632017    -2.2582214869
   41      H       3.2077808534    -3.7344596378     1.7815858394
   42      H       5.7817059074    -0.4288929727     1.4499027260
   43      H       7.2424058596     1.4783594754     0.6359712663
   44      H       7.1922771814     0.4301485510    -0.8155737989
   45      H       5.9760959989     3.1365772056    -0.5175502544
   46      H       5.8093301105     2.0722896632    -1.9469475882
   47      H       3.5241643095     2.5609183937    -0.3520504295
   48      H       1.7328261847    -2.9438557095     1.1148153476
   49      H       2.2954044144    -2.5381239718     2.7879240026
   50      H      -4.0485420125     4.6276066244     1.1929687267
   51      H      -3.9879137020     4.0869455284    -0.5326281918
   52      H      -2.5555871801     3.8508557972     0.5303435494
   53      H       0.4896261213    -0.1076588238     1.1168685367
   54      H      -0.0616724971     1.5526021940     1.5958657987
   55      H      -0.3868289720     0.5567168332    -1.3260718280
   56      H      -0.3273727942     2.2582292850    -0.7200763641
 ----------------------------------------------------------------
 Molecular Point Group                 C1    NOp =  1
 Largest Abelian Subgroup              C1    NOp =  1
 Nuclear Repulsion Energy =  3140.2740753771 hartrees
 There are      113 alpha and      113 beta electrons
 Applying Cartesian multipole field
    Component          Value
    ---------          -----
     (2,0,0)        1.00000E-12
     (0,2,0)        2.00000E-11
     (0,0,2)       -3.00000E-11
 Nucleus-field energy     =     0.0000000441 hartrees
 Requested basis set is STO-3G
 There are 86 shells and 176 basis functions
 A cutoff of  1.0D-12 yielded   2125 shell pairs
 There are      9988 function pairs
 Smallest overlap matrix eigenvalue = 2.13E-01
 Guess MOs from SCF MO coefficient file
 Reading MOs from coefficient file
 Reading MOs from coefficient file
 A restricted hybrid HF-DFT SCF calculation will be
 performed using Pulay DIIS extrapolation
 Exchange:     0.2000 Hartree-Fock + 0.0800 Slater + 0.7200 B88
 Correlation:  0.1900 VWN1RPA + 0.8100 LYP
 Using SG-1 standard quadrature grid
 Dispersion:   Grimme D3
 SCF converges when DIIS error is below 1.0E-08
 Geometry optimization detected.  Setting ReadMinima to 0
 Setting SaveMinima to 0
 using 48 threads for integral computing
 -------------------------------------------------------
 OpenMP Integral computing Module                
 Release: version 1.0, May 2013, Q-Chem Inc. Pittsburgh 
 -------------------------------------------------------
 -------------------------------------------------------
 OpenMP BLAS3 based DFT computing Module                
 Release: version 1.0, May 2013, Q-Chem Inc. Pittsburgh 
 -------------------------------------------------------
 ---------------------------------------
  Cycle       Energy         DIIS Error
 ---------------------------------------
    1   -1510.1372982792      5.50E-03
    2   -1510.2791680837      4.94E-04
    3   -1510.2789731092      6.38E-04
    4   -1510.2804687712      2.79E-04
    5   -1510.2807954830      6.92E-05
    6   -1510.2808144934      2.98E-05
    7   -1510.2808180098      1.36E-05
    8   -1510.2808187914      2.83E-06
    9   -1510.2808188282      5.68E-07
   10   -1510.2808188290      4.63E-07
   11   -1510.2808188299      1.34E-07
   12   -1510.2808188299      2.68E-08
   13   -1510.2808188300      1.19E-08
   14   -1510.2808188301      2.29E-09 Convergence criterion met
 ---------------------------------------
 SCF time:  CPU 100.98 s  wall 2.11 s
 SCF   energy in the final basis set = -1510.28081883
 Total energy in the final basis set = -1510.28081883
 
 --------------------------------------------------------------
 
                    Orbital Energies (a.u.)
 --------------------------------------------------------------
 
 Alpha MOs
 -- Occupied --
-18.940 -18.937 -18.932 -18.917 -18.887 -18.883 -18.882 -18.877
-18.869 -18.857 -10.103 -10.102 -10.097 -10.086 -10.073 -10.072
-10.064 -10.061 -10.057 -10.056 -10.055 -10.050 -10.038 -10.037
-10.036 -10.029 -10.021 -10.019 -10.018 -10.017  -1.018  -1.013
 -1.006  -0.994  -0.970  -0.967  -0.943  -0.939  -0.932  -0.920
 -0.763  -0.759  -0.727  -0.721  -0.711  -0.704  -0.694  -0.663
 -0.649  -0.620  -0.596  -0.584  -0.544  -0.542  -0.538  -0.534
 -0.512  -0.508  -0.484  -0.474  -0.463  -0.459  -0.452  -0.445
 -0.432  -0.430  -0.423  -0.412  -0.409  -0.403  -0.399  -0.394
 -0.390  -0.377  -0.373  -0.362  -0.362  -0.360  -0.353  -0.344
 -0.340  -0.337  -0.331  -0.330  -0.327  -0.326  -0.321  -0.312
 -0.311  -0.305  -0.303  -0.298  -0.294  -0.289  -0.278  -0.273
 -0.271  -0.261  -0.253  -0.244  -0.239  -0.234  -0.231  -0.194
 -0.177  -0.166  -0.161  -0.158  -0.153  -0.149  -0.142  -0.142
 -0.136
 -- Virtual --
  0.094   0.097   0.109   0.118   0.205   0.242   0.247   0.257
  0.264   0.278   0.281   0.289   0.306   0.317   0.330   0.332
  0.335   0.339   0.343   0.351   0.352   0.357   0.364   0.374
  0.374   0.381   0.385   0.399   0.401   0.403   0.403   0.415
  0.418   0.418   0.420   0.423   0.432   0.432   0.435   0.437
  0.437   0.440   0.443   0.445   0.447   0.452   0.456   0.459
  0.465   0.472   0.481   0.488   0.492   0.509   0.512   0.537
  0.540   0.551   0.557   0.639   0.642   0.657   0.658
 --------------------------------------------------------------
 
          Ground-State Mulliken Net Atomic Charges

     Atom                 Charge (a.u.)
  ----------------------------------------
      1 O                    -0.216621
      2 C                     0.212890
      3 C                    -0.082154
      4 C                    -0.077081
      5 C                     0.215438
      6 O                    -0.171293
      7 C                    -0.050150
      8 C                    -0.051300
      9 O                    -0.173373
     10 C                     0.212863
     11 C                    -0.080070
     12 C                    -0.077293
     13 C                     0.215526
     14 O                    -0.219000
     15 O                    -0.174439
     16 O                    -0.170964
     17 O                    -0.204443
     18 C                    -0.128495
     19 C                     0.024657
     20 C                    -0.142034
     21 C                    -0.145092
     22 C                     0.024810
     23 O                    -0.188486
     24 H                     0.084144
     25 H                     0.087421
     26 H                     0.091194
     27 H                     0.078529
     28 H                     0.073492
     29 H                     0.078276
     30 H                     0.073686
     31 H                     0.081965
     32 O                    -0.201576
     33 C                    -0.129692
     34 C                     0.025585
     35 C                    -0.143479
     36 C                    -0.144813
     37 C                     0.022705
     38 O                    -0.190670
     39 H                     0.082598
     40 H                     0.086087
     41 H                     0.086355
     42 H                     0.085612
     43 H                     0.076925
     44 H                     0.073478
     45 H                     0.077197
     46 H                     0.073181
     47 H                     0.089831
     48 H                     0.095226
     49 H                     0.084840
     50 H                     0.089822
     51 H                     0.088438
     52 H                     0.085736
     53 H                     0.099614
     54 H                     0.089788
     55 H                     0.100787
     56 H                     0.093821
  ----------------------------------------
  Sum of atomic charges =     0.000000

 -----------------------------------------------------------------
                    Cartesian Multipole Moments
 -----------------------------------------------------------------
    Charge (ESU x 10^10)
                 0.0000
    Dipole Moment (Debye)
         X      -0.9701      Y       2.0422      Z       1.5803
       Tot       2.7584
    Quadrupole Moments (Debye-Ang)
        XX    -140.8165     XY       6.9864     YY    -157.1019
        XZ      -8.8111     YZ      -7.0760     ZZ    -161.7834
    Octopole Moments (Debye-Ang^2)
       XXX       3.4088    XXY       9.5563    XYY     -48.2821
       YYY      53.8065    XXZ       4.0473    XYZ     -15.3844
       YYZ      22.5570    XZZ      16.3159    YZZ      -7.0142
       ZZZ      10.2768
    Hexadecapole Moments (Debye-Ang^3)
      XXXX  -15066.0704   XXXY     -42.2542   XXYY   -3132.6707
      XYYY    -203.2679   YYYY   -2985.3248   XXXZ     -59.7851
      XXYZ     -83.8363   XYYZ      80.1518   YYYZ      23.8595
      XXZZ   -2856.7588   XYZZ     -62.2639   YYZZ    -646.7919
      XZZZ      29.3596   YZZZ      38.2135   ZZZZ    -833.7072
 -----------------------------------------------------------------
 Calculating analytic gradient of the SCF energy
 Gradient of SCF Energy
            1           2           3           4           5           6
    1  -0.0002804  -0.0001217   0.0003469   0.0003380  -0.0011194   0.0006498
    2   0.0001192  -0.0001913  -0.0009307   0.0000151   0.0021429  -0.0026592
    3  -0.0000257  -0.0008057   0.0010362  -0.0010480   0.0009399  -0.0031961
            7           8           9          10          11          12
    1   0.0011672  -0.0018721   0.0009654  -0.0005652   0.0006515   0.0018022
    2   0.0007575   0.0009325  -0.0044128   0.0035834   0.0016298  -0.0007319
    3   0.0016093  -0.0010081  -0.0005111   0.0035847  -0.0031806   0.0036643
           13          14          15          16          17          18
    1  -0.0014209   0.0007346   0.0003735  -0.0006841  -0.0007408  -0.0000165
    2   0.0001243   0.0001088   0.0000024   0.0002568  -0.0028574  -0.0000681
    3  -0.0032286   0.0011690  -0.0001402   0.0000163   0.0005883   0.0000002
           19          20          21          22          23          24
    1   0.0000588   0.0001679  -0.0001784  -0.0013837  -0.0006479  -0.0004155
    2   0.0013400  -0.0000860   0.0001041  -0.0001288   0.0001131  -0.0016098
    3   0.0005716  -0.0000304  -0.0001597  -0.0003044   0.0002281  -0.0006763
           25          26          27          28          29          30
    1   0.0008370  -0.0001277   0.0000025   0.0001203  -0.0000159   0.0000952
    2  -0.0002203   0.0002325  -0.0001184  -0.0001884   0.0000950  -0.0000412
    3   0.0001788  -0.0001582  -0.0000832  -0.0001188   0.0000335   0.0000393
           31          32          33          34          35          36
    1  -0.0001577   0.0015803   0.0000987   0.0001001  -0.0002592  -0.0001005
    2  -0.0000705  -0.0010818  -0.0000069   0.0004919   0.0001042  -0.0001479
    3  -0.0002063   0.0002284   0.0002100   0.0000051  -0.0004312   0.0001810
           37          38          39          40          41          42
    1  -0.0002037  -0.0002539   0.0004970  -0.0001415  -0.0000883  -0.0001278
    2   0.0003832   0.0000689   0.0007476  -0.0004709  -0.0000632  -0.0000474
    3  -0.0004795   0.0001749   0.0004088   0.0000855  -0.0000968   0.0000047
           43          44          45          46          47          48
    1   0.0000426  -0.0000334  -0.0000597   0.0002048   0.0001203   0.0001446
    2  -0.0000791  -0.0001978  -0.0000101  -0.0000349  -0.0000716  -0.0000456
    3   0.0001252  -0.0000121  -0.0000527  -0.0000324   0.0000323  -0.0000818
           49          50          51          52          53          54
    1   0.0000022  -0.0000422  -0.0000033  -0.0000174   0.0009867  -0.0027540
    2  -0.0000593   0.0000015   0.0000478  -0.0000242   0.0009797   0.0005838
    3   0.0000027  -0.0000110   0.0000221  -0.0000324   0.0006675  -0.0007996
           55          56
    1  -0.0007087   0.0024530
    2   0.0008350   0.0008548
    3  -0.0001202   0.0012235
 Max gradient component =       4.413E-03
 RMS gradient           =       1.022E-03
 Gradient time:  CPU 31.51 s  wall 0.66 s
 Geometry Optimization Parameters
   NAtoms,    NIC,     NZ,  NCons,   NDum,   NFix, NCnnct, MaxDiis
       56     458       0       0       0       0       0       0

 Cartesian Hessian Update
 Hessian Updated using BFGS Update


** GEOMETRY OPTIMIZATION IN DELOCALIZED INTERNAL COORDINATES **
   Searching for a Minimum

   Optimization Cycle:   3

                       Coordinates (Angstroms)
     ATOM                X               Y               Z
      1  O         3.8523871221   -3.0372053008   -0.5891991600
      2  C         3.9417691537   -1.9281506794   -0.0198723427
      3  C         4.7070846485   -0.6632577594   -0.5527072963
      4  C         3.7677446125    0.4591665239   -1.1674259631
      5  C         2.2444729181    0.1701671584   -0.9007453292
      6  O         1.5373106094    1.4084259280   -0.8859824442
      7  C         0.0917039432    1.2409324559   -0.5931861281
      8  C        -0.2054086815    0.7251355097    0.8739434685
      9  O        -1.6186294393    0.3247483754    1.0688667480
     10  C        -1.9696532095   -0.8461041842    0.3280646332
     11  C        -3.5105226991   -1.0993115287    0.4786290154
     12  C        -4.4332414170    0.1703163658    0.6441849896
     13  C        -3.7765764624    1.5008308282    0.1265025125
     14  O        -3.0429763144    1.6649949785   -0.8711105932
     15  O         3.4321999936   -1.6487004782    1.2921444428
     16  O        -4.2240708141    2.5673286014    0.9751622219
     17  O        -1.1645092290   -1.5854989422   -0.2779499742
     18  C        -3.6644747539    3.8542237982    0.5026436925
     19  C        -4.1712540535   -1.8028520544   -0.7881435739
     20  C        -5.4011081459   -2.6400711690   -0.2652243047
     21  C        -6.3835953097   -1.4802983660    0.1478516254
     22  C        -5.6010649056   -0.2070120055   -0.3709761253
     23  O        -4.8271694485   -0.7028991964   -1.5329704593
     24  H        -3.6349294397   -1.7633296853    1.3558681511
     25  H        -4.7777727403    0.3128245403    1.6826382014
     26  H        -3.4531281410   -2.3434435504   -1.4352622055
     27  H        -5.8225156304   -3.2497852042   -1.0807365997
     28  H        -5.1380414998   -3.3031560498    0.5744639151
     29  H        -7.3575205327   -1.5691461560   -0.3588209342
     30  H        -6.5555123848   -1.4393395300    1.2356729496
     31  H        -6.2414278249    0.6467967112   -0.6667913593
     32  O         1.7249921046   -0.9555431983   -0.7318309984
     33  C         2.6212771556   -2.7932037591    1.7627071389
     34  C         5.4539651989    0.1696022394    0.5785086023
     35  C         6.5804950309    1.0271750217   -0.1205660903
     36  C         5.7141348459    2.1197154979   -0.8502099557
     37  C         4.2600820247    1.7345556827   -0.3674229351
     38  O         4.4650498295    1.1906258168    0.9955290866
     39  H         5.4238717165   -1.0175287102   -1.3142919901
     40  H         3.9187275305    0.5610632017   -2.2582214869
     41  H         3.2077808534   -3.7344596378    1.7815858394
     42  H         5.7817059074   -0.4288929727    1.4499027260
     43  H         7.2424058596    1.4783594754    0.6359712663
     44  H         7.1922771814    0.4301485510   -0.8155737989
     45  H         5.9760959989    3.1365772056   -0.5175502544
     46  H         5.8093301105    2.0722896632   -1.9469475882
     47  H         3.5241643095    2.5609183937   -0.3520504295
     48  H         1.7328261847   -2.9438557095    1.1148153476
     49  H         2.2954044144   -2.5381239718    2.7879240026
     50  H        -4.0485420125    4.6276066244    1.1929687267
     51  H        -3.9879137020    4.0869455284   -0.5326281918
     52  H        -2.5555871801    3.8508557972    0.5303435494
     53  H         0.4896261213   -0.1076588238    1.1168685367
     54  H        -0.0616724971    1.5526021940    1.5958657987
     55  H        -0.3868289720    0.5567168332   -1.3260718280
     56  H        -0.3273727942    2.2582292850   -0.7200763641
   Point Group: c1    Number of degrees of freedom:   162


   Energy is  -1510.280818830

 Hessian Updated using BFGS Update

152 Hessian modes will be used to form the next step
  Hessian Eigenvalues:
     0.001859    0.002020    0.002501    0.002710    0.002887    0.003929
     0.004189    0.004438    0.004489    0.004981    0.005111    0.005231
     0.006307    0.006942    0.011013    0.011079    0.011561    0.011887
     0.015816    0.021647    0.022311    0.025966    0.028270    0.030736
     0.031625    0.035352    0.035633    0.039817    0.040418    0.041705
     0.042307    0.045179    0.045361    0.046427    0.047650    0.050439
     0.050826    0.051737    0.052176    0.053412    0.054738    0.054927
     0.055411    0.055706    0.056331    0.056391    0.056709    0.058861
     0.060300    0.060690    0.062848    0.063540    0.064108    0.064320
     0.064527    0.070072    0.070330    0.073029    0.073587    0.092054
     0.092507    0.092788    0.093473    0.096234    0.096618    0.097150
     0.101384    0.102490    0.102704    0.110552    0.114917    0.115674
     0.116074    0.122177    0.130323    0.138935    0.139694    0.157414
     0.159971    0.159997    0.160006    0.161586    0.164232    0.173096
     0.217816    0.220081    0.221397    0.226806    0.228524    0.233803
     0.238606    0.238820    0.239509    0.239772    0.244450    0.246987
     0.249420    0.249875    0.249893    0.249968    0.249999    0.250000
     0.253146    0.253262    0.256472    0.257520    0.258781    0.259243
     0.279131    0.290741    0.292105    0.296134    0.306654    0.311217
     0.324668    0.325456    0.326233    0.326713    0.326785    0.326873
     0.328632    0.328645    0.328718    0.328814    0.329081    0.329381
     0.329595    0.330399    0.330741    0.330811    0.332211    0.333229
     0.334514    0.334577    0.334770    0.334773    0.334854    0.334883
     0.335237    0.335244    0.340383    0.344979    0.345154    0.346383
     0.403007    0.403670    0.412626    0.415933    0.827548    0.832722
     0.832914    0.835836

 Minimum Search - Taking Simple RFO Step
 Searching for Lamda that Minimizes Along All modes
 Value Taken    Lamda =  -0.00685379
 Calculated Step too Large.  Step scaled by  0.402529
 Step Taken.  Stepsize is  0.300000

                             Maximum     Tolerance    Cnvgd?
         Gradient           0.009731      0.000300      NO
         Displacement       0.105557      0.001200      NO
         Energy change     -0.002783      0.000001      NO


 New Cartesian Coordinates Obtained by Inverse Iteration

 Displacement from previous Coordinates is:  3.073666
 Adding empirical dispersion correction 
 ----------------------------------------------------------------
 Doing -D3(op) with
 s6 =   1.00000
 s8 =   0.78311
 a1 =   0.30000
 a2 =   4.25000
 n  =  10.00000
 -D3 energy without 3body term =     -0.0701463276 hartrees
 ----------------------------------------------------------------
             Standard Nuclear Orientation (Angstroms)
    I     Atom           X                Y                Z
 ----------------------------------------------------------------
    1      O       3.6859031629    -2.9516805759    -0.8603047423
    2      C       3.8106700788    -1.8963166993    -0.2023984117
    3      C       4.6150178949    -0.6163120143    -0.6327724478
    4      C       3.7092177919     0.5818684784    -1.1436251787
    5      C       2.1795293688     0.2999908114    -0.9140728395
    6      O       1.4862525693     1.5405928865    -0.7975692582
    7      C       0.0514467217     1.3265230425    -0.4950444539
    8      C      -0.1844080338     0.7637849665     0.9638739670
    9      O      -1.5917988617     0.3637542917     1.1824085214
   10      C      -1.9175989354    -0.8293398040     0.4629423882
   11      C      -3.4553982523    -1.0962455783     0.6107309183
   12      C      -4.3803017261     0.1813503230     0.6184937367
   13      C      -3.6757776840     1.4531128196     0.0249311743
   14      O      -2.9256246232     1.5242881560    -0.9716058625
   15      O       3.2923292900    -1.7003875899     1.1215900992
   16      O      -4.1120600716     2.5906970241     0.7816153391
   17      O      -1.0902416684    -1.5683868182    -0.1119212245
   18      C      -3.5086890018     3.8243162761     0.2276134444
   19      C      -4.0711696332    -1.9173782116    -0.6086607446
   20      C      -5.3287701538    -2.6946957334    -0.0594893146
   21      C      -6.3183762559    -1.4962171085     0.1961817666
   22      C      -5.5034280191    -0.2818395096    -0.4075328808
   23      O      -4.6852792003    -0.8905520833    -1.4822279801
   24      H      -3.6009969171    -1.6747084813     1.5429089216
   25      H      -4.7675015130     0.4194310707     1.6240425966
   26      H      -3.3303860399    -2.5187408208    -1.1713063864
   27      H      -5.7210323474    -3.3785213299    -0.8292860096
   28      H      -5.1075421973    -3.2736475945     0.8514011724
   29      H      -7.2703619572    -1.6297289428    -0.3414552109
   30      H      -6.5367237527    -1.3496954904     1.2664151477
   31      H      -6.1224305481     0.5438622225    -0.8092687648
   32      O       1.6335744062    -0.8240788690    -0.8541009669
   33      C       2.4299680487    -2.8440069481     1.4920901066
   34      C       5.3850821989     0.0923624875     0.5659777049
   35      C       6.5314570292     0.9844052819    -0.0537633586
   36      C       5.6907121166     2.1605157862    -0.6763473572
   37      C       4.2282329131     1.7655676717    -0.2279189215
   38      O       4.4212376686     1.0936174719     1.0781728745
   39      H       5.3195874741    -0.9280068701    -1.4239966606
   40      H       3.8688335562     0.7808289373    -2.2198632371
   41      H       2.9787478664    -3.8067673549     1.4448136356
   42      H       5.6987012805    -0.5907119262     1.3783438163
   43      H       7.2037769546     1.3487476504     0.7393784784
   44      H       7.1292017291     0.4409582913    -0.8026689424
   45      H       5.9768433526     3.1357396200    -0.2515013793
   46      H       5.7829879237     2.2129587867    -1.7730663191
   47      H       3.5113134820     2.6036808317    -0.1354375650
   48      H       1.5448319477    -2.9079501509     0.8254134820
   49      H       2.1002939915    -2.6555295824     2.5304375950
   50      H      -3.8867468026     4.6566693416     0.8492536742
   51      H      -3.8037154347     3.9862038514    -0.8294196211
   52      H      -2.4011091502     3.7957713321     0.2813542877
   53      H       0.5169839170    -0.0760929368     1.1597947428
   54      H      -0.0122735862     1.5703338391     1.7037961766
   55      H      -0.4262168546     0.6524336889    -1.2381500113
   56      H      -0.4009103692     2.3342219488    -0.5801192334
 ----------------------------------------------------------------
 Molecular Point Group                 C1    NOp =  1
 Largest Abelian Subgroup              C1    NOp =  1
 Nuclear Repulsion Energy =  3165.0702809784 hartrees
 There are      113 alpha and      113 beta electrons
 Applying Cartesian multipole field
    Component          Value
    ---------          -----
     (2,0,0)        1.00000E-12
     (0,2,0)        2.00000E-11
     (0,0,2)       -3.00000E-11
 Nucleus-field energy     =     0.0000000453 hartrees
 Requested basis set is STO-3G
 There are 86 shells and 176 basis functions
 A cutoff of  1.0D-12 yielded   2151 shell pairs
 There are     10146 function pairs
 Smallest overlap matrix eigenvalue = 2.13E-01
 Guess MOs from SCF MO coefficient file
 Reading MOs from coefficient file
 Reading MOs from coefficient file
 A restricted hybrid HF-DFT SCF calculation will be
 performed using Pulay DIIS extrapolation
[...]
      7  C         0.2500192839    1.8033080119    0.8902760169
      8  C         0.0210810971    0.5604537418    1.8306872929
      9  O        -1.4344770085    0.3103398924    1.9637752008
     10  C        -1.8536161958   -0.7580754633    1.1032765857
     11  C        -3.4173484040   -0.8888391481    1.2271837821
     12  C        -4.2391207314    0.1961678296    0.4186185865
     13  C        -3.3226125771    1.1166519879   -0.4513920992
     14  O        -2.1076282106    0.9408327557   -0.7040155294
     15  O         2.6645074458   -1.5634882691    0.0629413489
     16  O        -4.0957523448    2.1987479047   -0.9649167073
     17  O        -1.0917365809   -1.5375267235    0.4904137053
     18  C        -3.2509394052    3.0596331426   -1.8274602847
     19  C        -3.9361845909   -2.2288259493    0.5546238194
     20  C        -5.3763464507   -2.5388278767    1.1188068945
     21  C        -6.2290898675   -1.4392622062    0.3828033950
     22  C        -5.1280155469   -0.7424294891   -0.5116540966
     23  O        -4.1965142788   -1.8395690972   -0.8516411493
     24  H        -3.6770987552   -0.8440251269    2.3001661161
     25  H        -4.8640133953    0.8271943931    1.0756008371
     26  H        -3.2086189336   -3.0624350230    0.5932927205
     27  H        -5.6928999011   -3.5539122369    0.8301390302
     28  H        -5.4233686022   -2.4516404749    2.2160868944
     29  H        -7.0107156489   -1.8877640813   -0.2505999748
     30  H        -6.7033304226   -0.7302384778    1.0802907511
     31  H        -5.5054121711   -0.2478157825   -1.4278704322
     32  O         1.2294653543    0.5024860544   -1.2366293661
     33  C         1.6697372747   -2.6649202022    0.0170793312
     34  C         5.2777635620   -0.3146853247    0.0476280307
     35  C         6.5091254493    0.6330729749   -0.2343773402
     36  C         5.8801069144    2.0427524582    0.0722928206
     37  C         4.4149101077    1.6379269368    0.5040922602
     38  O         4.5962428559    0.3368581540    1.1885745223
     39  H         4.7662544327   -0.1102613455   -2.1264439964
     40  H         3.7654858478    1.9748930361   -1.6122321346
     41  H         1.7246545086   -3.1693434103   -0.9676213122
     42  H         5.5345292461   -1.3623546392    0.2970136095
     43  H         7.3373661875    0.4017838607    0.4543195099
     44  H         6.8753750638    0.5442801295   -1.2696683880
     45  H         6.4017428767    2.5475175148    0.9009810786
     46  H         5.8834538034    2.7087111669   -0.8053469518
     47  H         3.8912719767    2.3550514821    1.1640911199
     48  H         0.6497049900   -2.2459380567    0.1738481869
     49  H         1.9143801533   -3.3784857178    0.8270737510
     50  H        -3.9219440142    3.8433586616   -2.2242049218
     51  H        -2.8077087582    2.4848219970   -2.6658496075
     52  H        -2.4300875918    3.5309828873   -1.2492766155
     53  H         0.5237703261   -0.3285386693    1.3955118768
     54  H         0.4177197919    0.7536418231    2.8477216637
     55  H        -0.3599253074    1.6514142581   -0.0300151965
     56  H        -0.0596700926    2.7367432508    1.4007296549
   Point Group: c1    Number of degrees of freedom:   162


   Energy is  -1510.293534493

 Hessian Updated using BFGS Update

162 Hessian modes will be used to form the next step
  Hessian Eigenvalues:
     0.000434    0.001575    0.001736    0.002714    0.003496    0.004779
     0.005385    0.005851    0.006444    0.007858    0.011247    0.011513
     0.012415    0.016575    0.021866    0.021980    0.025002    0.025947
     0.027504    0.028056    0.030484    0.031470    0.032264    0.033836
     0.036032    0.038156    0.039716    0.041104    0.042202    0.043045
     0.043856    0.046020    0.047533    0.047847    0.049085    0.050720
     0.051425    0.052109    0.053833    0.054577    0.055005    0.055580
     0.056275    0.056662    0.057274    0.057627    0.060232    0.061351
     0.063091    0.063945    0.064167    0.064460    0.064891    0.065492
     0.069499    0.070741    0.072701    0.073065    0.073981    0.075072
     0.088429    0.092289    0.092831    0.094212    0.096162    0.096775
     0.101856    0.102122    0.104625    0.104807    0.107047    0.114476
     0.116022    0.119774    0.127778    0.137667    0.139652    0.140514
     0.153641    0.158411    0.160110    0.160611    0.161580    0.161944
     0.164788    0.168944    0.172032    0.181475    0.197927    0.214613
     0.221044    0.227905    0.233413    0.236605    0.238273    0.238862
     0.239641    0.240077    0.243556    0.244843    0.247786    0.249307
     0.250029    0.251181    0.252568    0.253453    0.255147    0.256716
     0.257724    0.258376    0.263469    0.269611    0.271102    0.275136
     0.278597    0.291986    0.294181    0.298159    0.304434    0.309011
     0.317109    0.321778    0.325828    0.326254    0.326688    0.326932
     0.327348    0.328399    0.328659    0.328714    0.329334    0.329649
     0.329849    0.329997    0.330482    0.330826    0.332208    0.332638
     0.333315    0.334459    0.334608    0.334732    0.334824    0.334874
     0.334993    0.335235    0.335301    0.341882    0.350069    0.356382
     0.370871    0.389435    0.397242    0.410261    0.414213    0.457951
     0.582613    0.828449    0.832164    0.835601    0.837206    2.412807

 Minimum Search - Taking Simple RFO Step
 Searching for Lamda that Minimizes Along All modes
 Value Taken    Lamda =  -0.00000369
 Step Taken.  Stepsize is  0.076175

                             Maximum     Tolerance    Cnvgd?
         Gradient           0.000180      0.000300     YES
         Displacement       0.029274      0.001200      NO
         Energy change      0.000000      0.000001     YES

 Final energy is   -1510.29353449256     


 ******************************
 **  OPTIMIZATION CONVERGED  **
 ******************************

                       Coordinates (Angstroms)
     ATOM                X               Y               Z
      1  O         2.9836008396   -2.0396051980   -2.2452278516
      2  C         3.2284833648   -1.3462080143   -1.2324776259
      3  C         4.2456378210   -0.1558145252   -1.1539631579
      4  C         3.5973303392    1.2485470190   -0.7952103397
      5  C         2.0474567531    1.1523474623   -0.5493970621
      6  O         1.6888632645    1.9613599049    0.5766322310
      7  C         0.2500192839    1.8033080119    0.8902760169
      8  C         0.0210810971    0.5604537418    1.8306872929
      9  O        -1.4344770085    0.3103398924    1.9637752008
     10  C        -1.8536161958   -0.7580754633    1.1032765857
     11  C        -3.4173484040   -0.8888391481    1.2271837821
     12  C        -4.2391207314    0.1961678296    0.4186185865
     13  C        -3.3226125771    1.1166519879   -0.4513920992
     14  O        -2.1076282106    0.9408327557   -0.7040155294
     15  O         2.6645074458   -1.5634882691    0.0629413489
     16  O        -4.0957523448    2.1987479047   -0.9649167073
     17  O        -1.0917365809   -1.5375267235    0.4904137053
     18  C        -3.2509394052    3.0596331426   -1.8274602847
     19  C        -3.9361845909   -2.2288259493    0.5546238194
     20  C        -5.3763464507   -2.5388278767    1.1188068945
     21  C        -6.2290898675   -1.4392622062    0.3828033950
     22  C        -5.1280155469   -0.7424294891   -0.5116540966
     23  O        -4.1965142788   -1.8395690972   -0.8516411493
     24  H        -3.6770987552   -0.8440251269    2.3001661161
     25  H        -4.8640133953    0.8271943931    1.0756008371
     26  H        -3.2086189336   -3.0624350230    0.5932927205
     27  H        -5.6928999011   -3.5539122369    0.8301390302
     28  H        -5.4233686022   -2.4516404749    2.2160868944
     29  H        -7.0107156489   -1.8877640813   -0.2505999748
     30  H        -6.7033304226   -0.7302384778    1.0802907511
     31  H        -5.5054121711   -0.2478157825   -1.4278704322
     32  O         1.2294653543    0.5024860544   -1.2366293661
     33  C         1.6697372747   -2.6649202022    0.0170793312
     34  C         5.2777635620   -0.3146853247    0.0476280307
     35  C         6.5091254493    0.6330729749   -0.2343773402
     36  C         5.8801069144    2.0427524582    0.0722928206
     37  C         4.4149101077    1.6379269368    0.5040922602
     38  O         4.5962428559    0.3368581540    1.1885745223
     39  H         4.7662544327   -0.1102613455   -2.1264439964
     40  H         3.7654858478    1.9748930361   -1.6122321346
     41  H         1.7246545086   -3.1693434103   -0.9676213122
     42  H         5.5345292461   -1.3623546392    0.2970136095
     43  H         7.3373661875    0.4017838607    0.4543195099
     44  H         6.8753750638    0.5442801295   -1.2696683880
     45  H         6.4017428767    2.5475175148    0.9009810786
     46  H         5.8834538034    2.7087111669   -0.8053469518
     47  H         3.8912719767    2.3550514821    1.1640911199
     48  H         0.6497049900   -2.2459380567    0.1738481869
     49  H         1.9143801533   -3.3784857178    0.8270737510
     50  H        -3.9219440142    3.8433586616   -2.2242049218
     51  H        -2.8077087582    2.4848219970   -2.6658496075
     52  H        -2.4300875918    3.5309828873   -1.2492766155
     53  H         0.5237703261   -0.3285386693    1.3955118768
     54  H         0.4177197919    0.7536418231    2.8477216637
     55  H        -0.3599253074    1.6514142581   -0.0300151965
     56  H        -0.0596700926    2.7367432508    1.4007296549

Z-matrix Print:
$molecule
0 1
O 
C  1 1.250487
O  2 1.432143 1 124.186143
C  3 1.481089 2 110.454748 1 5.926093 0
H  4 1.108049 3 106.211146 2 -154.272194 0
H  4 1.114468 3 111.799580 2 -34.260823 0
C  2 1.572192 1 126.208483 3 -178.175703 0
H  7 1.106065 2 107.791043 1 79.066186 0
C  4 1.575269 3 110.597621 2 85.889767 0
H  9 1.108604 4 110.988912 3 70.069978 0
H  9 1.110127 4 109.389340 3 -51.118793 0
O  9 1.482875 4 109.226927 3 -171.758472 0
C  12 1.434450 9 111.014334 4 100.056074 0
O  13 1.250442 12 125.468879 9 11.501693 0
C  13 1.574075 12 107.753911 9 -175.990755 0
H  15 1.104884 13 107.855852 12 -45.304623 0
C  15 1.583139 13 114.741758 12 77.986188 0
H  17 1.104677 15 112.419042 13 -118.585636 0
C  17 1.563393 15 112.546709 13 5.015994 0
O  19 1.253363 17 126.716194 15 11.443842 0
O  19 1.425617 17 109.234230 15 -170.231621 0
C  21 1.482840 19 109.951602 17 -178.260731 0
H  22 1.105386 21 105.935780 19 177.455773 0
H  22 1.108945 21 111.502922 19 58.038644 0
H  22 1.109173 21 111.415469 19 -63.449421 0
C  7 1.583743 2 113.308276 1 -157.093990 0
H  26 1.106374 7 113.855748 2 -35.919514 0
O  26 1.481276 7 103.081915 2 83.911997 0
C  28 1.480114 26 94.980117 7 57.415792 0
H  29 1.107128 28 110.469436 26 -179.541063 0
C  29 1.579248 28 103.443915 26 56.529483 0
H  31 1.101717 29 110.398821 28 82.160837 0
H  31 1.101749 29 112.248767 28 -156.395026 0
C  31 1.573819 29 101.017775 28 -35.937354 0
H  34 1.101642 31 111.575939 29 118.788021 0
H  34 1.101709 31 112.643342 29 -118.611415 0
C  15 1.586535 13 111.202800 12 -168.046191 0
H  37 1.107136 15 113.967634 13 30.443814 0
O  37 1.482185 15 103.758513 13 -89.491704 0
C  39 1.478851 37 95.010895 15 -56.159142 0
H  40 1.107485 39 110.841462 37 -179.719751 0
C  37 1.577488 15 108.235343 13 161.201622 0
H  42 1.101742 37 112.309572 15 -47.478881 0
H  42 1.101786 37 110.465704 15 -169.090417 0
C  42 1.574140 37 100.956889 15 72.906394 0
H  45 1.101496 42 111.644851 37 119.696409 0
H  45 1.101865 42 112.747278 37 -117.593089 0
C  7 1.587841 2 112.563485 1 -43.174615 0
H  48 1.104009 7 110.797474 2 122.897505 0
C  48 1.567739 7 114.707015 2 1.568089 0
O  50 1.251571 48 126.025256 7 118.192642 0
O  50 1.429472 48 109.026496 7 -64.652999 0
C  52 1.484865 50 110.430701 48 178.609155 0
H  53 1.106850 52 107.910438 50 129.452860 0
H  53 1.107743 52 109.391267 50 9.502874 0
H  53 1.113817 52 109.277999 50 -110.961472 0
$end

 
 --------------------------------------------------------------
 
                    Orbital Energies (a.u.)
 --------------------------------------------------------------
 
 Alpha MOs
 -- Occupied --
-18.950 -18.928 -18.927 -18.910 -18.893 -18.890 -18.880 -18.876
-18.870 -18.854 -10.113 -10.102 -10.094 -10.081 -10.074 -10.065
-10.061 -10.059 -10.057 -10.053 -10.051 -10.045 -10.038 -10.031
-10.026 -10.023 -10.023 -10.022 -10.015 -10.014  -1.026  -1.009
 -1.004  -0.989  -0.973  -0.962  -0.949  -0.936  -0.930  -0.915
 -0.767  -0.755  -0.727  -0.718  -0.711  -0.703  -0.688  -0.671
 -0.636  -0.613  -0.594  -0.576  -0.548  -0.539  -0.538  -0.530
 -0.516  -0.502  -0.483  -0.472  -0.465  -0.458  -0.457  -0.437
 -0.433  -0.427  -0.424  -0.420  -0.414  -0.402  -0.398  -0.390
 -0.386  -0.380  -0.370  -0.366  -0.361  -0.356  -0.347  -0.343
 -0.339  -0.334  -0.331  -0.328  -0.325  -0.322  -0.315  -0.311
 -0.308  -0.304  -0.303  -0.297  -0.291  -0.283  -0.279  -0.275
 -0.265  -0.263  -0.248  -0.240  -0.237  -0.228  -0.226  -0.190
 -0.183  -0.167  -0.160  -0.157  -0.149  -0.148  -0.146  -0.137
 -0.135
 -- Virtual --
  0.085   0.102   0.106   0.123   0.216   0.238   0.247   0.251
  0.268   0.279   0.288   0.293   0.305   0.323   0.327   0.334
  0.337   0.344   0.351   0.352   0.357   0.365   0.369   0.375
  0.376   0.381   0.388   0.398   0.404   0.408   0.409   0.413
  0.416   0.418   0.420   0.422   0.422   0.427   0.431   0.436
  0.436   0.443   0.454   0.458   0.460   0.464   0.467   0.472
  0.477   0.483   0.493   0.495   0.504   0.511   0.517   0.538
  0.541   0.549   0.561   0.636   0.646   0.656   0.661
 --------------------------------------------------------------
 
          Ground-State Mulliken Net Atomic Charges

     Atom                 Charge (a.u.)
  ----------------------------------------
      1 O                    -0.217059
      2 C                     0.211194
      3 C                    -0.080162
      4 C                    -0.077727
      5 C                     0.212750
      6 O                    -0.174427
      7 C                    -0.060107
      8 C                    -0.054986
      9 O                    -0.178484
     10 C                     0.224478
     11 C                    -0.080264
     12 C                    -0.077687
     13 C                     0.217907
     14 O                    -0.204957
     15 O                    -0.176312
     16 O                    -0.166210
     17 O                    -0.211444
     18 C                    -0.128324
     19 C                     0.025326
     20 C                    -0.143757
     21 C                    -0.143826
     22 C                     0.025649
     23 O                    -0.187215
     24 H                     0.085418
     25 H                     0.088195
     26 H                     0.090997
     27 H                     0.079173
     28 H                     0.073682
     29 H                     0.079129
     30 H                     0.073861
     31 H                     0.085222
     32 O                    -0.207126
     33 C                    -0.152519
     34 C                     0.026203
     35 C                    -0.143929
     36 C                    -0.144647
     37 C                     0.022879
     38 O                    -0.188147
     39 H                     0.082637
     40 H                     0.083034
     41 H                     0.094881
     42 H                     0.083075
     43 H                     0.076459
     44 H                     0.073151
     45 H                     0.076309
     46 H                     0.071901
     47 H                     0.090996
     48 H                     0.109602
     49 H                     0.074412
     50 H                     0.093650
     51 H                     0.095467
     52 H                     0.089871
     53 H                     0.103843
     54 H                     0.085717
     55 H                     0.111262
     56 H                     0.080988
  ----------------------------------------
  Sum of atomic charges =     0.000000

 -----------------------------------------------------------------
                    Cartesian Multipole Moments
 -----------------------------------------------------------------
    Charge (ESU x 10^10)
                 0.0000
    Dipole Moment (Debye)
         X      -2.2496      Y       2.9907      Z       1.5733
       Tot       4.0596
    Quadrupole Moments (Debye-Ang)
        XX    -136.6488     XY       3.4507     YY    -153.3734
        XZ      -5.4873     YZ     -10.2394     ZZ    -162.8513
    Octopole Moments (Debye-Ang^2)
       XXX     -15.1917    XXY      10.6067    XYY      -9.9455
       YYY      13.1756    XXZ      -7.8120    XYZ       6.4513
       YYZ       3.3453    XZZ     -26.6209    YZZ      20.9163
       ZZZ       4.8066
    Hexadecapole Moments (Debye-Ang^3)
      XXXX  -13465.6384   XXXY    -534.2277   XXYY   -2760.8325
      XYYY    -711.8289   YYYY   -2574.9780   XXXZ     120.4719
      XXYZ     -62.3143   XYYZ     130.8729   YYYZ      57.3629
      XXZZ   -2583.9419   XYZZ    -211.7217   YYZZ    -642.2776
      XZZZ     310.4449   YZZZ      72.6997   ZZZZ   -1230.2475
 -----------------------------------------------------------------
Archival summary:
1\1\vega02.cac.cornell.edu\OPT\ProcedureUnspecified\STO-3G\102026\jj585\SunJan1405:04:092018SunJan1405:04:092018\0\\#,OPT,ProcedureUnspecified,STO-3G,\\0,1\O\C,1,1.25049\O,2,1.43214,1,124.186\C,3,1.48109,2,110.455,1,5.92609,0\H,4,1.10805,3,106.211,2,-154.272,0\H,4,1.11447,3,111.8,2,-34.2608,0\C,2,1.57219,1,126.208,3,-178.176,0\H,7,1.10606,2,107.791,1,79.0662,0\C,4,1.57527,3,110.598,2,85.8898,0\H,9,1.1086,4,110.989,3,70.07,0\H,9,1.11013,4,109.389,3,-51.1188,0\O,9,1.48288,4,109.227,3,-171.758,0\C,12,1.43445,9,111.014,4,100.056,0\O,13,1.25044,12,125.469,9,11.5017,0\C,13,1.57407,12,107.754,9,-175.991,0\H,15,1.10488,13,107.856,12,-45.3046,0\C,15,1.58314,13,114.742,12,77.9862,0\H,17,1.10468,15,112.419,13,-118.586,0\C,17,1.56339,15,112.547,13,5.01599,0\O,19,1.25336,17,126.716,15,11.4438,0\O,19,1.42562,17,109.234,15,-170.232,0\C,21,1.48284,19,109.952,17,-178.261,0\H,22,1.10539,21,105.936,19,177.456,0\H,22,1.10894,21,111.503,19,58.0386,0\H,22,1.10917,21,111.415,19,-63.4494,0\C,7,1.58374,2,113.308,1,-157.094,0\H,26,1.10637,7,113.856,2,-35.9195,0\O,26,1.48128,7,103.082,2,83.912,0\C,28,1.48011,26,94.9801,7,57.4158,0\H,29,1.10713,28,110.469,26,-179.541,0\C,29,1.57925,28,103.444,26,56.5295,0\H,31,1.10172,29,110.399,28,82.1608,0\H,31,1.10175,29,112.249,28,-156.395,0\C,31,1.57382,29,101.018,28,-35.9374,0\H,34,1.10164,31,111.576,29,118.788,0\H,34,1.10171,31,112.643,29,-118.611,0\C,15,1.58653,13,111.203,12,-168.046,0\H,37,1.10714,15,113.968,13,30.4438,0\O,37,1.48219,15,103.759,13,-89.4917,0\C,39,1.47885,37,95.0109,15,-56.1591,0\H,40,1.10749,39,110.841,37,-179.72,0\C,37,1.57749,15,108.235,13,161.202,0\H,42,1.10174,37,112.31,15,-47.4789,0\H,42,1.10179,37,110.466,15,-169.09,0\C,42,1.57414,37,100.957,15,72.9064,0\H,45,1.1015,42,111.645,37,119.696,0\H,45,1.10187,42,112.747,37,-117.593,0\C,7,1.58784,2,112.563,1,-43.1746,0\H,48,1.10401,7,110.797,2,122.898,0\C,48,1.56774,7,114.707,2,1.56809,0\O,50,1.25157,48,126.025,7,118.193,0\O,50,1.42947,48,109.026,7,-64.653,0\C,52,1.48486,50,110.431,48,178.609,0\H,53,1.10685,52,107.91,50,129.453,0\H,53,1.10774,52,109.391,50,9.50287,0\H,53,1.11382,52,109.278,50,-110.961,0\\\@

 Total job time:  100.20s(wall), 4777.39s(cpu) 
 Sun Jan 14 05:04:09 2018

        *************************************************************
        *                                                           *
        *  Thank you very much for using Q-Chem.  Have a nice day.  *
        *                                                           *
        *************************************************************


0 sent ACK to 0 
now end server 0 ... 
