mFile = /opt/software/qchem/qchem-5.0.1//bin/mpi/machines
Process 0 of 1 is on vega02.cac.cornell.edu - thread support 0
initial socket setup ...start
initial socket setup ...done 
now start server 0 ... 
vega02.cac.cornell.edu 10.84.3
Q-Chem Developer Version! Running on 10.84.3.*
                  Welcome to Q-Chem
     A Quantum Leap Into The Future Of Chemistry


 Q-Chem 5.0, Q-Chem, Inc., Pleasanton, CA (2017)

 Yihan Shao,  Zhengting Gan,  E. Epifanovsky,  A. T. B. Gilbert,  M. Wormit,  
 J. Kussmann,  A. W. Lange,  A. Behn,  Jia Deng,  Xintian Feng,  D. Ghosh,  
 M. Goldey,  P. R. Horn,  L. D. Jacobson,  I. Kaliman,  T. Kus,  A. Landau,  
 Jie Liu,  E. I. Proynov,  R. M. Richard,  R. P. Steele,  E. J. Sundstrom,  
 H. L. Woodcock III,  P. M. Zimmerman,  D. Zuev,  B. Albrecht,  E. Alguire,  
 S. A. Baeppler,  Z. Benda,  Y. A. Bernard,  E. J. Berquist,  K. B. Bravaya,  
 D. Casanova,  Chun-Min Chang,  Yunqing Chen,  A. Chien,  K. D. Closser,  
 M. P. Coons,  S. Dasgupta,  M. Diedenhofen,  Hainam Do,  R. G. Edgar,  
 Po-Tung Fang,  S. Fatehi,  Qingguo Feng,  Qinghui Ge,  A. Ghysels,  
 J. Gomes,  J. Gonthier,  A. Gunina,  M. W. D. Hanson-Heine,  
 P. H. P. Harbach,  A. W. Hauser,  J. E. Herr,  E. G. Hohenstein,  
 Z. C. Holden,  Kerwin Hui,  T.-C. Jagau,  Hyunjun Ji,  B. Kaduk,  
 K. Khistyaev,  Jaehoon Kim,  P. Klunzinger,  K. Koh,  D. Kosenkov,  
 T. Kowalczyk,  C. M. Krauter,  A. Kunitsa,  Ka Un Lao,  A. Laurent,  
 K. V. Lawler,  Joonho Lee,  D. Lefrancois,  S. Lehtola,  D. S. Levine,  
 Yi-Pei Li,  You-Sheng Lin,  Fenglai Liu,  E. Livshits,  A. Luenser,  
 P. Manohar,  E. Mansoor,  S. F. Manzer,  Shan-Ping Mao,  Yuezhi Mao,  
 N. Mardirossian,  A. V. Marenich,  L. A. Martinez-Martinez,  S. A. Maurer,  
 N. J. Mayhall,  S. C. McKenzie,  J.-M. Mewes,  A. F. Morrison,  K. Nanda,  
 T. S. Nguyen-Beck,  R. Olivares-Amaya,  J. A. Parkhill,  T. M. Perrine,  
 F. Plasser,  S. Prager,  A. Prociuk,  D. R. Rehn,  F. Rob,  M. Schneider,  
 N. Sergueev,  S. M. Sharada,  S. Sharma,  D. W. Small,  T. Stauch,  
 T. Stein,  Yu-Chuan Su,  A. J. W. Thom,  T. Tsuchimochi,  L. Vogt,  
 O. Vydrov,  M. A. Watson,  J. Wenzel,  M. de Wergifosse,  T. A. Wesolowski,  
 A. White,  J. Witte,  A. Yamada,  Jun Yang,  K. Yao,  S. Yeganeh,  
 S. R. Yost,  Zhi-Qiang You,  A. Zech,  Igor Ying Zhang,  Xing Zhang,  
 Yan Zhao,  Ying Zhu,  B. R. Brooks,  G. K. L. Chan,  C. J. Cramer,  
 M. S. Gordon,  W. J. Hehre,  A. Klamt,  M. W. Schmidt,  C. D. Sherrill,  
 D. G. Truhlar,  A. Aspuru-Guzik,  R. Baer,  A. T. Bell,  N. A. Besley,  
 Jeng-Da Chai,  A. Dreuw,  B. D. Dunietz,  T. R. Furlani,  Chao-Ping Hsu,  
 Yousung Jung,  Jing Kong,  D. S. Lambrecht,  WanZhen Liang,  C. Ochsenfeld,  
 V. A. Rassolov,  L. V. Slipchenko,  J. E. Subotnik,  T. Van Voorhis,  
 J. M. Herbert,  A. I. Krylov,  P. M. W. Gill,  M. Head-Gordon

 Contributors to earlier versions of Q-Chem not listed above: 
 R. D. Adamson,  B. Austin,  J. Baker,  G. J. O. Beran,  K. Brandhorst,  
 S. T. Brown,  E. F. C. Byrd,  A. K. Chakraborty,  C.-L. Cheng,  
 Siu Hung Chien,  D. M. Chipman,  D. L. Crittenden,  H. Dachsel,  
 R. A. DiStasio Jr.,  R. J. Doerksen,  A. D. Dutoi,  L. Fusti-Molnar,  
 W. A. Goddard III,  A. Golubeva-Zadorozhnaya,  S. R. Gwaltney,  G. Hawkins,  
 A. Heyden,  S. Hirata,  G. Kedziora,  F. J. Keil,  C. Kelley,  Jihan Kim,  
 R. A. King,  R. Z. Khaliullin,  P. P. Korambath,  W. Kurlancheek,  
 A. M. Lee,  M. S. Lee,  S. V. Levchenko,  Ching Yeh Lin,  D. Liotard,  
 R. C. Lochan,  I. Lotan,  P. E. Maslen,  N. Nair,  D. P. O'Neill,  
 D. Neuhauser,  E. Neuscamman,  C. M. Oana,  R. Olson,  B. Peters,  
 R. Peverati,  P. A. Pieniazek,  Y. M. Rhee,  J. Ritchie,  M. A. Rohrdanz,  
 E. Rosta,  N. J. Russ,  H. F. Schaefer III,  N. E. Schultz,  N. Shenvi,  
 A. C. Simmonett,  A. Sodt,  D. Stuck,  K. S. Thanthiriwatte,  V. Vanovschi,  
 Tao Wang,  A. Warshel,  C. F. Williams,  Q. Wu,  X. Xu,  W. Zhang

 Please cite Q-Chem as follows:
 Y. Shao et al., Mol. Phys. 113, 184-215 (2015)
 DOI: 10.1080/00268976.2014.952696

 Q-Chem 5.0.1 for Intel X86 EM64T Linux

 Parts of Q-Chem use Armadillo 5.200.1 (Boston Tea Smuggler).
 http://arma.sourceforge.net/

 Q-Chem begins on Sun Jan 14 05:07:59 2018  

Host: vega02.cac.cornell.edu
0

     Scratch files written to /scratch/jj585/SOT1001/0323r.save//
 Parallel job on  1  processors

Checking the input file for inconsistencies... 	...done.

--------------------------------------------------------------
User input:
--------------------------------------------------------------
$molecule
0  1
O -2.2339817179 -1.7204849044 1.0402715908
C -3.3278453989 -1.4376039443 0.5001613766
C -4.3435260289 -0.3295609107 0.9465807301
C -4.0547302061 1.1273477482 0.3682331884
C -2.7655734344 1.2850434343 -0.5240176604
O -1.5724888283 1.0785702777 0.2597577325
C -0.6147973728 0.1973197735 -0.4577349399
C 0.8361252011 0.5640736525 0.0127554308
O 1.743450628 0.2333853271 -1.127262387
C 2.8826111192 1.109256644 -1.1741444642
C 3.8069908529 1.2594414763 0.1100216445
C 3.9769135516 0.0431111473 1.124428652
C 3.2558343867 -1.3038529502 0.7620975837
O 2.1001746591 -1.6520037139 1.1041984069
O -3.8155752153 -2.0810313038 -0.6797571337
O 4.0983075868 -2.0923470803 -0.0740825925
O 3.2079902018 1.605452407 -2.275817441
C 3.3877151539 -3.324466661 -0.4906048634
C 5.3139007745 1.5071904973 -0.3259656957
C 6.0534941312 2.2580559279 0.8480524848
C 6.2031193473 1.0944378133 1.8976025585
C 5.5593570344 -0.1157160815 1.1095208264
O 5.9129667879 0.1539435976 -0.3018697879
H 3.4281321392 2.1329497912 0.6742222538
H 3.6077398329 0.3405421009 2.1226788758
H 5.4049538434 1.961217121 -1.3323512259
H 7.0356120506 2.6264528625 0.5111294815
H 5.4688336902 3.1089478101 1.2320471378
H 7.2609142453 0.8853100268 2.1225126841
H 5.6754194034 1.3018161261 2.8423058847
H 5.9155670951 -1.1186646817 1.4135775466
O -2.7594063813 1.4962675459 -1.7562749125
C -2.8493742576 -3.1024925128 -1.1461938935
C -5.8037242672 -0.5794234523 0.3749251661
C -6.824728619 0.3251988948 1.1734103706
C -6.5405515136 1.7386293727 0.5428431998
C -5.378970178 1.3895562219 -0.466905247
O -5.7517101063 0.045872486 -0.9663572064
H -4.3288059605 -0.3019948313 2.0510069467
H -3.9708550149 1.8382353579 1.21139718
H -2.5726428884 -3.8060753363 -0.3351832161
H -6.0823823167 -1.6473604979 0.2941929016
H -7.8586572243 -0.0028151916 0.9819269504
H -6.6412163129 0.2980288556 2.2593904161
H -7.4191687714 2.1205117066 -0.0011345163
H -6.2354024336 2.4874425492 1.2913082192
H -5.2434309863 2.0916389067 -1.312216265
H -1.9235616989 -2.6346223666 -1.5392935043
H -3.3565311295 -3.6497686109 -1.9618810288
H 4.0805886238 -3.8591319418 -1.1658216051
H 2.4489959753 -3.0845468638 -1.0301328971
H 3.142599453 -3.9684168783 0.3787112752
H 0.8726180071 1.6443893356 0.2649059933
H 1.1195289985 -0.0547657567 0.8941933909
H -0.6976398024 0.3417290169 -1.5574261025
H -0.849524275 -0.8573158177 -0.1949222108
$end

$rem
JOBTYPE                   OPT
METHOD                    B3LYP
DFT_D                     d3_op
BASIS                     STO-3G
GEOM_OPT_MAX_CYCLES       100
GEOM_OPT_TOL_GRADIENT     300
GEOM_OPT_TOL_DISPLACEMENT 1200
GEOM_OPT_TOL_ENERGY       100
SYMMETRY                  False
THRESH                    12
SCF_CONVERGENCE           8
MAX_SUB_FILE_NUM          128
MEM_STATIC                400
MEM_TOTAL                 4000
$end
--------------------------------------------------------------
 Adding empirical dispersion correction 
 ----------------------------------------------------------------
 Doing -D3(op) with
 s6 =   1.00000
 s8 =   0.78311
 a1 =   0.30000
 a2 =   4.25000
 n  =  10.00000
 -D3 energy without 3body term =     -0.0682168795 hartrees
 ----------------------------------------------------------------
             Standard Nuclear Orientation (Angstroms)
    I     Atom           X                Y                Z
 ----------------------------------------------------------------
    1      O      -2.2378059922    -1.6801009326     1.0470845718
    2      C      -3.3377752523    -1.3639858893     0.5387369151
    3      C      -4.3188885376    -0.2439813547     1.0303295405
    4      C      -4.0128040450     1.2176371452     0.4731443014
    5      C      -2.7418769412     1.3658847915    -0.4464597552
    6      O      -1.5353923060     1.1193113359     0.3045277708
    7      C      -0.6137738428     0.2325194913    -0.4523016306
    8      C       0.8552667925     0.5597009502    -0.0096755842
    9      O       1.7283460445     0.2325645374    -1.1771297422
   10      C       2.8844747921     1.0852733001    -1.2344813105
   11      C       3.8417225877     1.1910146028     0.0298807443
   12      C       4.0094794482    -0.0482105280     1.0165587468
   13      C       3.2515933065    -1.3725172243     0.6459219769
   14      O       2.0971324879    -1.7031551306     1.0088133200
   15      O      -3.8666430592    -1.9739014867    -0.6412582707
   16      O       4.0572401157    -2.1618683828    -0.2250196632
   17      O       3.1943973484     1.5960515018    -2.3339442558
   18      C       3.3110078390    -3.3705352676    -0.6478823120
   19      C       5.3429172926     1.4158146511    -0.4371539935
   20      C       6.1256702452     2.1279950023     0.7329797077
   21      C       6.2750863399     0.9411954526     1.7562743078
   22      C       5.5873986392    -0.2396345967     0.9608491371
   23      O       5.9134483536     0.0501736651    -0.4531814219
   24      H       3.4948842169     2.0610136539     0.6195228597
   25      H       3.6702471093     0.2372499426     2.0288292917
   26      H       5.4199701446     1.8874557621    -1.4365839271
   27      H       7.1072287503     2.4823833828     0.3797930773
   28      H       5.5684231913     2.9831993849     1.1469820084
   29      H       7.3331776589     0.7057233777     1.9518368413
   30      H       5.7742342544     1.1409892497     2.7170901054
   31      H       5.9292205797    -1.2555421542     1.2371308533
   32      O      -2.7601353896     1.6010108126    -1.6742602180
   33      C      -2.9336117341    -3.0059374112    -1.1500263319
   34      C      -5.7970865739    -0.4521461452     0.4890364090
   35      C      -6.7795880853     0.4577413399     1.3287778237
   36      C      -6.4802707419     1.8770175930     0.7186783685
   37      C      -5.3503974063     1.5236596190    -0.3249880425
   38      O      -5.7632671926     0.1980615850    -0.8409354115
   39      H      -4.2776713736    -0.2383478837     2.1344143409
   40      H      -3.8940551626     1.9099861289     1.3274705540
   41      H      -2.6529607013    -3.7308679987    -0.3594202352
   42      H      -6.1002270887    -1.5122641080     0.3946262728
   43      H      -7.8244720804     0.1551397257     1.1558119256
   44      H      -6.5712611788     0.4055070585     2.4093513365
   45      H      -7.3630854381     2.2876868842     0.2032143992
   46      H      -6.1417742303     2.6045221139     1.4737904815
   47      H      -5.2198216739     2.2391766790    -1.1597496857
   48      H      -2.0075316540    -2.5498444830    -1.5561218844
   49      H      -3.4713030582    -3.5264648616    -1.9636625752
   50      H       3.9763093449    -3.9061961470    -1.3495229498
   51      H       2.3652045731    -3.1006060293    -1.1601713838
   52      H       3.0727111038    -4.0261315414     0.2145980238
   53      H       0.9206497708     1.6338806049     0.2620903846
   54      H       1.1460431418    -0.0820381217     0.8527818828
   55      H      -0.7193080874     0.4001170428    -1.5467472139
   56      H      -0.8646601310    -0.8219408367    -0.2041223273
 ----------------------------------------------------------------
 Molecular Point Group                 C1    NOp =  1
 Largest Abelian Subgroup              C1    NOp =  1
 Nuclear Repulsion Energy =  3085.3508173344 hartrees
 There are      113 alpha and      113 beta electrons
 Requested basis set is STO-3G
 There are 86 shells and 176 basis functions

 Total QAlloc Memory Limit   4000 MB
 Mega-Array Size       392 MB
 MEM_STATIC part       400 MB
 A cutoff of  1.0D-12 yielded   2084 shell pairs
 There are      9740 function pairs
 
 -------------------------------------------------------
 OpenMP Integral Computing Module                       
 Release: version 1.0, May 2013, Q-Chem Inc. Pittsburgh 
 -------------------------------------------------------
 Integral Job Info:
 Integral job number is                      11
 Integral operator is                         1
 short-range coefficients                     0
 long-range coefficients              100000000
 Omega coefficients                           0
 if combine SR and LR in K                    0
 Integral screening is                        0
 Integral computing path is                   2
 max size of driver memory is            800000
 size of driver memory is                 45569
 size of scratch memory is              1046100
 max col of scratch BK array                289
 max len of scratch array in speh3           22
 max len of scratch index in speh4            8
 max int batch size is                      520
 min int batch size is                       52
 fixed nKL is                                52
 max L of basis functions is                  1
 order of int derivative is                   0
 number of shells is                         86
 number of basis is                         176
 number of cartesian basis is               176
 number of contracted shell pairs          2084
 number of primitive shell pairs          10916
 maxK2 (contraction) of shell pair            9
 max number of K2 of shell pair               1
 max number of CS2 of shell pair            312
 max number of PS2 of shell pair           1248
 mem total for path MDJ                   49782
 -------------------------------------------------------
 Smallest overlap matrix eigenvalue = 2.13E-01

 Scale SEOQF with 1.000000e-02/1.000000e-01/1.000000e-01

 Standard Electronic Orientation quadrupole field applied
 Nucleus-field energy     =     0.0000000288 hartrees
 Guess from superposition of atomic densities
 Warning:  Energy on first SCF cycle will be non-variational
 A restricted hybrid HF-DFT SCF calculation will be
 performed using Pulay DIIS extrapolation
 Exchange:     0.2000 Hartree-Fock + 0.0800 Slater + 0.7200 B88
 Correlation:  0.1900 VWN1RPA + 0.8100 LYP
 Using SG-1 standard quadrature grid
 Dispersion:   Grimme D3
 SCF converges when DIIS error is below 1.0E-08
 using 48 threads for integral computing
 -------------------------------------------------------
 OpenMP Integral computing Module                
 Release: version 1.0, May 2013, Q-Chem Inc. Pittsburgh 
 -------------------------------------------------------
 -------------------------------------------------------
 OpenMP BLAS3 based DFT computing Module                
 Release: version 1.0, May 2013, Q-Chem Inc. Pittsburgh 
 -------------------------------------------------------
 ---------------------------------------
  Cycle       Energy         DIIS Error
 ---------------------------------------
    1   -1507.5851217388      7.44E-02
    2   -1509.6900177514      1.06E-02
    3   -1507.3608866331      2.69E-02
    4   -1510.1725302780      4.09E-03
    5   -1510.2403788523      1.51E-03
    6   -1510.2485768080      6.74E-04
    7   -1510.2505108543      1.62E-04
    8   -1510.2506219027      4.19E-05
    9   -1510.2506273350      2.31E-05
   10   -1510.2506295452      5.33E-06
   11   -1510.2506296715      1.48E-06
   12   -1510.2506296816      3.02E-07
   13   -1510.2506296820      1.68E-07
   14   -1510.2506296821      7.05E-08
   15   -1510.2506296821      1.25E-08
   16   -1510.2506296820      4.11E-09 Convergence criterion met
 ---------------------------------------
 SCF time:  CPU 116.08 s  wall 2.47 s
 SCF   energy in the final basis set = -1510.25062968
 Total energy in the final basis set = -1510.25062968
 
 --------------------------------------------------------------
 
                    Orbital Energies (a.u.)
 --------------------------------------------------------------
 
 Alpha MOs
 -- Occupied --
-18.943 -18.940 -18.915 -18.913 -18.888 -18.886 -18.886 -18.885
-18.880 -18.879 -10.105 -10.102 -10.101 -10.101 -10.066 -10.066
-10.061 -10.059 -10.058 -10.057 -10.056 -10.056 -10.042 -10.041
-10.038 -10.038 -10.021 -10.020 -10.020 -10.019  -1.018  -1.016
 -1.005  -1.001  -0.970  -0.968  -0.942  -0.940  -0.936  -0.930
 -0.763  -0.762  -0.724  -0.722  -0.708  -0.706  -0.694  -0.663
 -0.663  -0.605  -0.601  -0.578  -0.547  -0.544  -0.539  -0.536
 -0.515  -0.513  -0.486  -0.477  -0.469  -0.455  -0.448  -0.442
 -0.434  -0.431  -0.429  -0.415  -0.415  -0.413  -0.412  -0.402
 -0.394  -0.380  -0.378  -0.373  -0.364  -0.356  -0.354  -0.347
 -0.343  -0.335  -0.333  -0.330  -0.329  -0.328  -0.323  -0.311
 -0.310  -0.306  -0.305  -0.299  -0.297  -0.285  -0.282  -0.278
 -0.273  -0.258  -0.256  -0.242  -0.236  -0.233  -0.232  -0.181
 -0.181  -0.172  -0.165  -0.159  -0.158  -0.149  -0.148  -0.143
 -0.142
 -- Virtual --
  0.083   0.086   0.093   0.094   0.212   0.239   0.240   0.245
  0.254   0.279   0.283   0.288   0.295   0.309   0.323   0.332
  0.333   0.336   0.338   0.343   0.346   0.350   0.366   0.369
  0.375   0.383   0.397   0.401   0.403   0.406   0.407   0.411
  0.414   0.415   0.422   0.424   0.429   0.430   0.430   0.432
  0.433   0.437   0.440   0.446   0.450   0.454   0.462   0.468
  0.469   0.477   0.490   0.490   0.503   0.506   0.518   0.538
  0.539   0.554   0.554   0.614   0.629   0.634   0.642
 --------------------------------------------------------------
 
          Ground-State Mulliken Net Atomic Charges

     Atom                 Charge (a.u.)
  ----------------------------------------
      1 O                    -0.212876
      2 C                     0.206764
      3 C                    -0.078043
      4 C                    -0.077974
      5 C                     0.209794
      6 O                    -0.187107
      7 C                    -0.054803
      8 C                    -0.061226
      9 O                    -0.184030
     10 C                     0.212086
     11 C                    -0.084306
     12 C                    -0.082389
     13 C                     0.211579
     14 O                    -0.215192
     15 O                    -0.162725
     16 O                    -0.160620
     17 O                    -0.190223
     18 C                    -0.126998
     19 C                     0.023588
     20 C                    -0.143844
     21 C                    -0.144933
     22 C                     0.026771
     23 O                    -0.186334
     24 H                     0.079890
     25 H                     0.082480
     26 H                     0.093739
     27 H                     0.078752
     28 H                     0.072786
     29 H                     0.078224
     30 H                     0.072432
     31 H                     0.085950
     32 O                    -0.197107
     33 C                    -0.128765
     34 C                     0.026033
     35 C                    -0.144836
     36 C                    -0.143797
     37 C                     0.023611
     38 O                    -0.186077
     39 H                     0.086002
     40 H                     0.084367
     41 H                     0.091097
     42 H                     0.086716
     43 H                     0.077864
     44 H                     0.072624
     45 H                     0.078105
     46 H                     0.072697
     47 H                     0.089837
     48 H                     0.088235
     49 H                     0.093833
     50 H                     0.093793
     51 H                     0.093773
     52 H                     0.088745
     53 H                     0.078775
     54 H                     0.105436
     55 H                     0.093478
     56 H                     0.094350
  ----------------------------------------
  Sum of atomic charges =     0.000000

 -----------------------------------------------------------------
                    Cartesian Multipole Moments
 -----------------------------------------------------------------
    Charge (ESU x 10^10)
                -0.0000
    Dipole Moment (Debye)
         X      -0.4393      Y      -0.5788      Z       3.9636
       Tot       4.0296
    Quadrupole Moments (Debye-Ang)
        XX    -152.8725     XY       0.9600     YY    -148.2142
        XZ       1.8602     YZ       9.1711     ZZ    -166.8834
    Octopole Moments (Debye-Ang^2)
       XXX     -42.8913    XXY      18.1692    XYY       3.8515
       YYY     -50.5564    XXZ     107.4632    XYZ       0.9306
       YYZ     -14.4708    XZZ      -0.2206    YZZ     -18.9087
       ZZZ      -2.3778
    Hexadecapole Moments (Debye-Ang^3)
      XXXX  -17919.1351   XXXY      25.9338   XXYY   -3224.7875
      XYYY     -51.0318   YYYY   -2323.4395   XXXZ     -29.4927
      XXYZ      14.7595   XYYZ      10.7138   YYYZ      16.4084
      XXZZ   -3240.5733   XYZZ     -20.6856   YYZZ    -596.4828
      XZZZ       8.6619   YZZZ       8.5907   ZZZZ   -1120.8923
 -----------------------------------------------------------------
 Calculating analytic gradient of the SCF energy
 Gradient of SCF Energy
            1           2           3           4           5           6
    1   0.0014491  -0.0015288   0.0003217  -0.0013436   0.0000378   0.0056802
    2   0.0022398  -0.0028892   0.0008858  -0.0106292   0.0141519   0.0054081
    3  -0.0016879   0.0034425  -0.0011402  -0.0038889   0.0065017  -0.0081689
            7           8           9          10          11          12
    1  -0.0045325   0.0004391   0.0042741  -0.0094013   0.0069330  -0.0016356
    2  -0.0084785  -0.0020102  -0.0049488   0.0102089  -0.0046659   0.0019204
    3   0.0050864   0.0007795  -0.0033919   0.0058434  -0.0048894  -0.0021111
           13          14          15          16          17          18
    1   0.0020503  -0.0025551  -0.0000526   0.0000517   0.0000445  -0.0000166
    2  -0.0038093   0.0030843  -0.0001124  -0.0000591  -0.0000450   0.0000083
    3   0.0093782  -0.0054959  -0.0000743  -0.0000881  -0.0000257   0.0000198
           19          20          21          22          23          24
    1  -0.0000282   0.0000535  -0.0000144  -0.0000015   0.0000505   0.0000245
    2  -0.0000127   0.0001111  -0.0000479   0.0000593  -0.0001002  -0.0000221
    3   0.0000088   0.0001302  -0.0000335  -0.0000924   0.0000259   0.0000443
           25          26          27          28          29          30
    1  -0.0000321  -0.0000022  -0.0000136  -0.0000630   0.0000041   0.0000769
    2  -0.0000748  -0.0000115   0.0000213  -0.0000784  -0.0000298  -0.0000001
    3   0.0000222  -0.0000106   0.0000234  -0.0001191  -0.0000775   0.0001019
           31          32          33          34          35          36
    1  -0.0000861  -0.0000019   0.0001092   0.0001277  -0.0000392   0.0000517
    2   0.0000073  -0.0000384  -0.0000295   0.0000681   0.0000627  -0.0000577
    3   0.0000350  -0.0000226  -0.0000200  -0.0000517   0.0000303   0.0000813
           37          38          39          40          41          42
    1  -0.0001587  -0.0000524  -0.0000287  -0.0001600  -0.0000401   0.0000111
    2   0.0000130  -0.0000658   0.0000096  -0.0000352   0.0000049   0.0000135
    3  -0.0000412  -0.0000749  -0.0000153  -0.0000139  -0.0000145   0.0000006
           43          44          45          46          47          48
    1   0.0000016   0.0000135   0.0000413   0.0000156  -0.0000066   0.0000057
    2   0.0000065  -0.0000457  -0.0000155   0.0000428   0.0000121   0.0000054
    3  -0.0000097   0.0000541  -0.0000025   0.0000028   0.0000053   0.0000219
           49          50          51          52          53          54
    1  -0.0000241  -0.0000088  -0.0000280   0.0000037   0.0000022   0.0000292
    2   0.0000410   0.0000015   0.0000069  -0.0000067  -0.0000393  -0.0000566
    3  -0.0000151  -0.0000212  -0.0000295  -0.0000103   0.0000551  -0.0000730
           55          56
    1  -0.0000332  -0.0000148
    2  -0.0000037   0.0000247
    3   0.0000074   0.0000091
 Max gradient component =       1.415E-02
 RMS gradient           =       2.670E-03
 Gradient time:  CPU 31.26 s  wall 0.67 s
 Geometry Optimization Parameters
   NAtoms,    NIC,     NZ,  NCons,   NDum,   NFix, NCnnct, MaxDiis
       56     458       0       0       0       0       0       0


** GEOMETRY OPTIMIZATION IN DELOCALIZED INTERNAL COORDINATES **
   Searching for a Minimum

   Optimization Cycle:   1

                       Coordinates (Angstroms)
     ATOM                X               Y               Z
      1  O        -2.2378059922   -1.6801009326    1.0470845718
      2  C        -3.3377752523   -1.3639858893    0.5387369151
      3  C        -4.3188885376   -0.2439813547    1.0303295405
      4  C        -4.0128040450    1.2176371452    0.4731443014
      5  C        -2.7418769412    1.3658847915   -0.4464597552
      6  O        -1.5353923060    1.1193113359    0.3045277708
      7  C        -0.6137738428    0.2325194913   -0.4523016306
      8  C         0.8552667925    0.5597009502   -0.0096755842
      9  O         1.7283460445    0.2325645374   -1.1771297422
     10  C         2.8844747921    1.0852733001   -1.2344813105
     11  C         3.8417225877    1.1910146028    0.0298807443
     12  C         4.0094794482   -0.0482105280    1.0165587468
     13  C         3.2515933065   -1.3725172243    0.6459219769
     14  O         2.0971324879   -1.7031551306    1.0088133200
     15  O        -3.8666430592   -1.9739014867   -0.6412582707
     16  O         4.0572401157   -2.1618683828   -0.2250196632
     17  O         3.1943973484    1.5960515018   -2.3339442558
     18  C         3.3110078390   -3.3705352676   -0.6478823120
     19  C         5.3429172926    1.4158146511   -0.4371539935
     20  C         6.1256702452    2.1279950023    0.7329797077
     21  C         6.2750863399    0.9411954526    1.7562743078
     22  C         5.5873986392   -0.2396345967    0.9608491371
     23  O         5.9134483536    0.0501736651   -0.4531814219
     24  H         3.4948842169    2.0610136539    0.6195228597
     25  H         3.6702471093    0.2372499426    2.0288292917
     26  H         5.4199701446    1.8874557621   -1.4365839271
     27  H         7.1072287503    2.4823833828    0.3797930773
     28  H         5.5684231913    2.9831993849    1.1469820084
     29  H         7.3331776589    0.7057233777    1.9518368413
     30  H         5.7742342544    1.1409892497    2.7170901054
     31  H         5.9292205797   -1.2555421542    1.2371308533
     32  O        -2.7601353896    1.6010108126   -1.6742602180
     33  C        -2.9336117341   -3.0059374112   -1.1500263319
     34  C        -5.7970865739   -0.4521461452    0.4890364090
     35  C        -6.7795880853    0.4577413399    1.3287778237
     36  C        -6.4802707419    1.8770175930    0.7186783685
     37  C        -5.3503974063    1.5236596190   -0.3249880425
     38  O        -5.7632671926    0.1980615850   -0.8409354115
     39  H        -4.2776713736   -0.2383478837    2.1344143409
     40  H        -3.8940551626    1.9099861289    1.3274705540
     41  H        -2.6529607013   -3.7308679987   -0.3594202352
     42  H        -6.1002270887   -1.5122641080    0.3946262728
     43  H        -7.8244720804    0.1551397257    1.1558119256
     44  H        -6.5712611788    0.4055070585    2.4093513365
     45  H        -7.3630854381    2.2876868842    0.2032143992
     46  H        -6.1417742303    2.6045221139    1.4737904815
     47  H        -5.2198216739    2.2391766790   -1.1597496857
     48  H        -2.0075316540   -2.5498444830   -1.5561218844
     49  H        -3.4713030582   -3.5264648616   -1.9636625752
     50  H         3.9763093449   -3.9061961470   -1.3495229498
     51  H         2.3652045731   -3.1006060293   -1.1601713838
     52  H         3.0727111038   -4.0261315414    0.2145980238
     53  H         0.9206497708    1.6338806049    0.2620903846
     54  H         1.1460431418   -0.0820381217    0.8527818828
     55  H        -0.7193080874    0.4001170428   -1.5467472139
     56  H        -0.8646601310   -0.8219408367   -0.2041223273
   Point Group: c1    Number of degrees of freedom:   162


   Energy is  -1510.250629682


 Attempting to Generate Delocalized Internal Coordinates

162 Hessian modes will be used to form the next step
  Hessian Eigenvalues:
     0.002000    0.002000    0.002000    0.002000    0.002000    0.002689
     0.002691    0.003202    0.004061    0.004253    0.004311    0.004470
     0.004765    0.004788    0.004880    0.006835    0.006838    0.010043
     0.010656    0.011715    0.012336    0.021685    0.021716    0.025749
     0.025959    0.030528    0.030658    0.035265    0.035582    0.039011
     0.040504    0.041351    0.041455    0.043437    0.045040    0.046558
     0.047091    0.051136    0.051385    0.051490    0.053665    0.053751
     0.053804    0.054718    0.055265    0.055430    0.056551    0.057091
     0.058082    0.058141    0.058211    0.060743    0.060771    0.063644
     0.063789    0.064163    0.064185    0.069814    0.069996    0.072831
     0.072943    0.092636    0.092750    0.093208    0.094324    0.095585
     0.095630    0.096659    0.096903    0.102735    0.102849    0.105352
     0.108746    0.110798    0.111793    0.121450    0.121836    0.133040
     0.134925    0.158206    0.159067    0.160000    0.160000    0.160000
     0.160000    0.160000    0.160000    0.164312    0.164361    0.220491
     0.220534    0.221388    0.221772    0.224136    0.224936    0.238456
     0.238671    0.239570    0.239587    0.245457    0.245569    0.246551
     0.248630    0.249737    0.249901    0.249906    0.250000    0.250000
     0.250000    0.250000    0.250000    0.250000    0.250000    0.250000
     0.253338    0.253342    0.255749    0.260021    0.261149    0.261749
     0.292557    0.293397    0.306698    0.307667    0.322168    0.323659
     0.323949    0.326051    0.326737    0.326782    0.327078    0.327317
     0.328330    0.329007    0.329298    0.329476    0.329581    0.330079
     0.330230    0.330843    0.330944    0.331238    0.331494    0.334802
     0.334851    0.334925    0.334936    0.334962    0.335171    0.335185
     0.335194    0.338776    0.343329    0.344119    0.392643    0.399000
     0.410302    0.417133    0.815930    0.823894    0.827564    0.831465

 Minimum Search - Taking Simple RFO Step
 Searching for Lamda that Minimizes Along All modes
 Value Taken    Lamda =  -0.02395955
 Calculated Step too Large.  Step scaled by  0.338832
 Step Taken.  Stepsize is  0.300000

                             Maximum     Tolerance    Cnvgd?
         Gradient           0.010676      0.000300      NO
         Displacement       0.115589      0.001200      NO
         Energy change     *********      0.000001      NO


 New Cartesian Coordinates Obtained by Inverse Iteration

 Displacement from previous Coordinates is:  4.286893
 Adding empirical dispersion correction 
 ----------------------------------------------------------------
 Doing -D3(op) with
 s6 =   1.00000
 s8 =   0.78311
 a1 =   0.30000
 a2 =   4.25000
 n  =  10.00000
 -D3 energy without 3body term =     -0.0668781867 hartrees
 ----------------------------------------------------------------
             Standard Nuclear Orientation (Angstroms)
    I     Atom           X                Y                Z
 ----------------------------------------------------------------
    1      O      -2.5280164508    -1.8875648964     1.1389313344
    2      C      -3.5873648959    -1.4704628643     0.6173254628
    3      C      -4.4372571765    -0.2307797234     1.0640934428
    4      C      -3.9934107995     1.1611170859     0.4254294493
    5      C      -2.7328131655     1.1289266991    -0.5193932550
    6      O      -1.5297232258     0.8946929494     0.2408767911
    7      C      -0.5622919002     0.0772844250    -0.5365788115
    8      C       0.8850469544     0.4401829216    -0.0523157475
    9      O       1.7924254424     0.1864163793    -1.2118008928
   10      C       2.9221487903     1.0756222811    -1.2090610045
   11      C       3.8339278431     1.1821846740     0.0883226832
   12      C       4.0981450065    -0.1041508495     0.9921998277
   13      C       3.4776558698    -1.4632862451     0.5091882150
   14      O       2.3742825628    -1.9498157923     0.8551290473
   15      O      -4.1970264609    -2.0766806461    -0.5249436597
   16      O       4.3665241880    -2.1021762368    -0.4031230641
   17      O       3.2183102734     1.6705293292    -2.2693112482
   18      C       3.7580960624    -3.3553262297    -0.9090380650
   19      C       5.3174426084     1.5703901502    -0.3266687143
   20      C       6.0116496335     2.2679012460     0.9064684585
   21      C       6.2505685132     1.0315149022     1.8507729485
   22      C       5.6877117275    -0.1478407263     0.9607614057
   23      O       6.0105279689     0.2666989523    -0.4219373996
   24      H       3.4010742399     1.9799683369     0.7216114535
   25      H       3.7190049422     0.0736329752     2.0148875810
   26      H       5.3688716875     2.1144832694    -1.2902829491
   27      H       6.9629209106     2.7322590119     0.6010903405
   28      H       5.3718562629     3.0391868010     1.3638088705
   29      H       7.3220965122     0.8790084582     2.0552826358
   30      H       5.7165356311     1.1182724667     2.8105440672
   31      H       6.1161796294    -1.1457116480     1.1751006658
   32      O      -2.7462435555     1.3339101427    -1.7526424601
   33      C      -3.3926237565    -3.2321003538    -0.9858015883
   34      C      -5.9385365709    -0.3132546834     0.5531067184
   35      C      -6.8080457151     0.7354698864     1.3545610370
   36      C      -6.3764093110     2.0823332420     0.6648873949
   37      C      -5.3070699869     1.5599505666    -0.3716422305
   38      O      -5.8621669699     0.2589616766    -0.8102439886
   39      H      -4.3768063494    -0.1742294617     2.1658645345
   40      H      -3.7894520776     1.8837628989     1.2375651988
   41      H      -3.1839596354    -3.9422000859    -0.1602209901
   42      H      -6.3499317329    -1.3400451681     0.5194849369
   43      H      -7.8812434664     0.5332012346     1.2110224558
   44      H      -6.5870118030     0.7189846505     2.4337172371
   45      H      -7.2217260857     2.5538780570     0.1387336013
   46      H      -5.9521685100     2.8098951272     1.3752928105
   47      H      -5.1189908389     2.2131348670    -1.2456062444
   48      H      -2.4269998025    -2.9047483159    -1.4228081178
   49      H      -3.9963691240    -3.7301966543    -1.7664784937
   50      H       4.4795213142    -3.7687682565    -1.6373689430
   51      H       2.7894554733    -3.1578614306    -1.4115813664
   52      H       3.5913308429    -4.0872365524    -0.0923628327
   53      H       0.9068542871     1.5045507504     0.2617982142
   54      H       1.1816323793    -0.2242092848     0.7908050463
   55      H      -0.6552497992     0.2860023522    -1.6250815191
   56      H      -0.7768518763    -0.9952228075    -0.3362421262
 ----------------------------------------------------------------
 Molecular Point Group                 C1    NOp =  1
 Largest Abelian Subgroup              C1    NOp =  1
 Nuclear Repulsion Energy =  3052.2004629740 hartrees
 There are      113 alpha and      113 beta electrons
 Applying Cartesian multipole field
    Component          Value
    ---------          -----
     (2,0,0)        1.00000E-12
     (0,2,0)        2.00000E-11
     (0,0,2)       -3.00000E-11
 Nucleus-field energy     =     0.0000000315 hartrees
 Requested basis set is STO-3G
 There are 86 shells and 176 basis functions
 A cutoff of  1.0D-12 yielded   2039 shell pairs
 There are      9503 function pairs
 Smallest overlap matrix eigenvalue = 2.13E-01
 Guess MOs from SCF MO coefficient file
 Reading MOs from coefficient file
 Reading MOs from coefficient file
 A restricted hybrid HF-DFT SCF calculation will be
 performed using Pulay DIIS extrapolation
 Exchange:     0.2000 Hartree-Fock + 0.0800 Slater + 0.7200 B88
 Correlation:  0.1900 VWN1RPA + 0.8100 LYP
 Using SG-1 standard quadrature grid
 Dispersion:   Grimme D3
 SCF converges when DIIS error is below 1.0E-08
 Geometry optimization detected.  Setting ReadMinima to 0
 Setting SaveMinima to 0
 using 48 threads for integral computing
 -------------------------------------------------------
 OpenMP Integral computing Module                
 Release: version 1.0, May 2013, Q-Chem Inc. Pittsburgh 
 -------------------------------------------------------
 -------------------------------------------------------
 OpenMP BLAS3 based DFT computing Module                
 Release: version 1.0, May 2013, Q-Chem Inc. Pittsburgh 
 -------------------------------------------------------
 ---------------------------------------
  Cycle       Energy         DIIS Error
 ---------------------------------------
    1   -1510.0934994229      5.74E-03
    2   -1510.2528080525      5.97E-04
    3   -1510.2525387168      7.73E-04
    4   -1510.2547879243      3.11E-04
    5   -1510.2551936076      8.19E-05
    6   -1510.2552206956      3.51E-05
    7   -1510.2552253287      1.67E-05
    8   -1510.2552265738      4.05E-06
    9   -1510.2552266529      8.12E-07
   10   -1510.2552266554      6.16E-07
   11   -1510.2552266570      2.67E-07
   12   -1510.2552266573      5.06E-08
   13   -1510.2552266573      1.97E-08
   14   -1510.2552266573      5.07E-09 Convergence criterion met
 ---------------------------------------
 SCF time:  CPU 95.75 s  wall 2.00 s
 SCF   energy in the final basis set = -1510.25522666
 Total energy in the final basis set = -1510.25522666
 
 --------------------------------------------------------------
 
                    Orbital Energies (a.u.)
 --------------------------------------------------------------
 
 Alpha MOs
 -- Occupied --
-18.940 -18.937 -18.921 -18.918 -18.888 -18.888 -18.886 -18.885
-18.875 -18.874 -10.104 -10.102 -10.102 -10.100 -10.067 -10.066
-10.065 -10.065 -10.060 -10.059 -10.057 -10.057 -10.041 -10.040
-10.038 -10.038 -10.021 -10.020 -10.020 -10.019  -1.015  -1.013
 -1.007  -1.004  -0.970  -0.968  -0.941  -0.937  -0.936  -0.933
 -0.763  -0.762  -0.724  -0.722  -0.710  -0.706  -0.698  -0.662
 -0.662  -0.606  -0.601  -0.581  -0.548  -0.544  -0.539  -0.536
 -0.516  -0.512  -0.487  -0.476  -0.469  -0.455  -0.451  -0.442
 -0.435  -0.432  -0.430  -0.414  -0.413  -0.412  -0.412  -0.403
 -0.396  -0.381  -0.376  -0.370  -0.364  -0.355  -0.353  -0.347
 -0.345  -0.335  -0.333  -0.330  -0.329  -0.329  -0.324  -0.313
 -0.310  -0.306  -0.305  -0.301  -0.297  -0.286  -0.281  -0.279
 -0.275  -0.256  -0.254  -0.247  -0.239  -0.234  -0.232  -0.179
 -0.178  -0.175  -0.165  -0.160  -0.158  -0.150  -0.149  -0.143
 -0.142
 -- Virtual --
  0.083   0.089   0.096   0.096   0.206   0.239   0.240   0.245
  0.255   0.279   0.282   0.287   0.293   0.309   0.321   0.329
  0.334   0.336   0.337   0.343   0.346   0.349   0.367   0.370
  0.373   0.383   0.392   0.396   0.402   0.406   0.407   0.412
  0.414   0.415   0.422   0.423   0.429   0.430   0.432   0.432
  0.433   0.437   0.439   0.441   0.449   0.452   0.456   0.467
  0.469   0.473   0.489   0.490   0.501   0.504   0.505   0.538
  0.539   0.554   0.554   0.612   0.629   0.636   0.643
 --------------------------------------------------------------
 
          Ground-State Mulliken Net Atomic Charges

     Atom                 Charge (a.u.)
  ----------------------------------------
      1 O                    -0.214303
      2 C                     0.204161
      3 C                    -0.078221
      4 C                    -0.077936
      5 C                     0.208881
      6 O                    -0.181779
      7 C                    -0.050160
      8 C                    -0.054525
      9 O                    -0.182966
     10 C                     0.212993
     11 C                    -0.084606
     12 C                    -0.082338
     13 C                     0.208779
     14 O                    -0.217385
     15 O                    -0.164203
     16 O                    -0.162298
     17 O                    -0.188593
     18 C                    -0.127052
     19 C                     0.023517
     20 C                    -0.143965
     21 C                    -0.145025
     22 C                     0.026942
     23 O                    -0.186235
     24 H                     0.079557
     25 H                     0.082375
     26 H                     0.093462
     27 H                     0.078717
     28 H                     0.072402
     29 H                     0.078209
     30 H                     0.072365
     31 H                     0.085921
     32 O                    -0.200017
     33 C                    -0.128306
     34 C                     0.026111
     35 C                    -0.144902
     36 C                    -0.143839
     37 C                     0.023871
     38 O                    -0.185934
     39 H                     0.085433
     40 H                     0.084675
     41 H                     0.090853
     42 H                     0.086721
     43 H                     0.077814
     44 H                     0.072582
     45 H                     0.078186
     46 H                     0.072549
     47 H                     0.089852
     48 H                     0.087125
     49 H                     0.093100
     50 H                     0.093388
     51 H                     0.093179
     52 H                     0.088456
     53 H                     0.082587
     54 H                     0.099658
     55 H                     0.099306
     56 H                     0.090862
  ----------------------------------------
  Sum of atomic charges =     0.000000

 -----------------------------------------------------------------
                    Cartesian Multipole Moments
 -----------------------------------------------------------------
    Charge (ESU x 10^10)
                 0.0000
    Dipole Moment (Debye)
         X      -0.4332      Y      -0.2100      Z       3.8737
       Tot       3.9035
    Quadrupole Moments (Debye-Ang)
        XX    -154.4477     XY      -0.6543     YY    -148.3312
        XZ       1.8119     YZ      10.1241     ZZ    -166.6253
    Octopole Moments (Debye-Ang^2)
       XXX     -45.7649    XXY       8.8793    XYY       1.3259
       YYY     -42.2172    XXZ     108.8936    XYZ       4.6484
       YYZ     -18.0685    XZZ       1.4915    YZZ     -15.7455
       ZZZ      -1.7023
    Hexadecapole Moments (Debye-Ang^3)
      XXXX  -18675.2768   XXXY     -59.0441   XXYY   -3307.7131
      XYYY     -71.6422   YYYY   -2476.7786   XXXZ     -15.2660
      XXYZ      28.5137   XYYZ      13.2309   YYYZ     -13.4154
      XXZZ   -3345.6259   XYZZ     -38.5223   YYZZ    -625.6202
      XZZZ      13.2328   YZZZ     -30.0758   ZZZZ   -1143.3732
 -----------------------------------------------------------------
 Calculating analytic gradient of the SCF energy
 Gradient of SCF Energy
            1           2           3           4           5           6
    1   0.0010985  -0.0051241   0.0009105  -0.0026593   0.0001120   0.0067550
    2  -0.0004336  -0.0014334   0.0004426  -0.0062318   0.0023166   0.0071564
    3   0.0000814   0.0021680  -0.0007896  -0.0026376   0.0038759  -0.0065198
            7           8           9          10          11          12
    1  -0.0001972  -0.0037976   0.0049452  -0.0078381   0.0045208  -0.0016940
    2  -0.0058132   0.0042226  -0.0033971   0.0040715  -0.0023794   0.0008796
    3   0.0010831   0.0008982  -0.0025200   0.0035435  -0.0036374  -0.0007139
           13          14          15          16          17          18
    1   0.0050144  -0.0012374   0.0003068  -0.0004227  -0.0006419  -0.0000574
    2  -0.0020886  -0.0020824  -0.0000263  -0.0000844   0.0020176  -0.0004246
    3   0.0046179  -0.0021391   0.0007993   0.0017138   0.0004527  -0.0002007
           19          20          21          22          23          24
    1  -0.0000117  -0.0001617   0.0001509  -0.0001096   0.0002272   0.0005579
    2  -0.0006594   0.0001217   0.0002348   0.0005794  -0.0006699   0.0004476
    3   0.0005396  -0.0000463   0.0002841  -0.0007699  -0.0000575  -0.0001610
           25          26          27          28          29          30
    1   0.0005367   0.0000130   0.0000948  -0.0000168  -0.0000311  -0.0001163
    2   0.0000353  -0.0000530   0.0000098  -0.0000756  -0.0000611  -0.0001112
    3   0.0004024  -0.0000446   0.0000555   0.0000240  -0.0000593  -0.0000539
           31          32          33          34          35          36
    1   0.0000377  -0.0001393   0.0001837  -0.0000014  -0.0000009   0.0000004
    2  -0.0001311   0.0041007  -0.0003176   0.0001030   0.0001690  -0.0006252
    3  -0.0001106   0.0006691  -0.0000742  -0.0000774  -0.0000429   0.0001270
           37          38          39          40          41          42
    1  -0.0002154   0.0000565  -0.0001594  -0.0009426  -0.0000596  -0.0000255
    2   0.0003445  -0.0003674  -0.0000395   0.0002275   0.0000019   0.0000528
    3  -0.0000826  -0.0002410   0.0000444   0.0000827  -0.0000270  -0.0000237
           43          44          45          46          47          48
    1   0.0000685   0.0000232  -0.0000073  -0.0000572  -0.0001242  -0.0002279
    2  -0.0000084   0.0000016  -0.0000394   0.0000862  -0.0000251  -0.0001980
    3  -0.0000567   0.0000194   0.0000261   0.0001675   0.0000806  -0.0002102
           49          50          51          52          53          54
    1  -0.0000288  -0.0000195  -0.0000109   0.0000539   0.0000709  -0.0001074
    2   0.0000606   0.0000450   0.0001954  -0.0000432   0.0002373  -0.0012191
    3  -0.0000407   0.0000111   0.0000629  -0.0000334  -0.0007704  -0.0013314
           55          56
    1   0.0005175  -0.0000121
    2   0.0002276   0.0006504
    3  -0.0000837   0.0017265
 Max gradient component =       7.838E-03
 RMS gradient           =       1.880E-03
 Gradient time:  CPU 29.40 s  wall 0.63 s
 Geometry Optimization Parameters
   NAtoms,    NIC,     NZ,  NCons,   NDum,   NFix, NCnnct, MaxDiis
       56     458       0       0       0       0       0       0

 Cartesian Hessian Update
 Hessian Updated using BFGS Update


** GEOMETRY OPTIMIZATION IN DELOCALIZED INTERNAL COORDINATES **
   Searching for a Minimum

   Optimization Cycle:   2

                       Coordinates (Angstroms)
     ATOM                X               Y               Z
      1  O        -2.5280164508   -1.8875648964    1.1389313344
      2  C        -3.5873648959   -1.4704628643    0.6173254628
      3  C        -4.4372571765   -0.2307797234    1.0640934428
      4  C        -3.9934107995    1.1611170859    0.4254294493
      5  C        -2.7328131655    1.1289266991   -0.5193932550
      6  O        -1.5297232258    0.8946929494    0.2408767911
      7  C        -0.5622919002    0.0772844250   -0.5365788115
      8  C         0.8850469544    0.4401829216   -0.0523157475
      9  O         1.7924254424    0.1864163793   -1.2118008928
     10  C         2.9221487903    1.0756222811   -1.2090610045
     11  C         3.8339278431    1.1821846740    0.0883226832
     12  C         4.0981450065   -0.1041508495    0.9921998277
     13  C         3.4776558698   -1.4632862451    0.5091882150
     14  O         2.3742825628   -1.9498157923    0.8551290473
     15  O        -4.1970264609   -2.0766806461   -0.5249436597
     16  O         4.3665241880   -2.1021762368   -0.4031230641
     17  O         3.2183102734    1.6705293292   -2.2693112482
     18  C         3.7580960624   -3.3553262297   -0.9090380650
     19  C         5.3174426084    1.5703901502   -0.3266687143
     20  C         6.0116496335    2.2679012460    0.9064684585
     21  C         6.2505685132    1.0315149022    1.8507729485
     22  C         5.6877117275   -0.1478407263    0.9607614057
     23  O         6.0105279689    0.2666989523   -0.4219373996
     24  H         3.4010742399    1.9799683369    0.7216114535
     25  H         3.7190049422    0.0736329752    2.0148875810
     26  H         5.3688716875    2.1144832694   -1.2902829491
     27  H         6.9629209106    2.7322590119    0.6010903405
     28  H         5.3718562629    3.0391868010    1.3638088705
     29  H         7.3220965122    0.8790084582    2.0552826358
     30  H         5.7165356311    1.1182724667    2.8105440672
     31  H         6.1161796294   -1.1457116480    1.1751006658
     32  O        -2.7462435555    1.3339101427   -1.7526424601
     33  C        -3.3926237565   -3.2321003538   -0.9858015883
     34  C        -5.9385365709   -0.3132546834    0.5531067184
     35  C        -6.8080457151    0.7354698864    1.3545610370
     36  C        -6.3764093110    2.0823332420    0.6648873949
     37  C        -5.3070699869    1.5599505666   -0.3716422305
     38  O        -5.8621669699    0.2589616766   -0.8102439886
     39  H        -4.3768063494   -0.1742294617    2.1658645345
     40  H        -3.7894520776    1.8837628989    1.2375651988
     41  H        -3.1839596354   -3.9422000859   -0.1602209901
     42  H        -6.3499317329   -1.3400451681    0.5194849369
     43  H        -7.8812434664    0.5332012346    1.2110224558
     44  H        -6.5870118030    0.7189846505    2.4337172371
     45  H        -7.2217260857    2.5538780570    0.1387336013
     46  H        -5.9521685100    2.8098951272    1.3752928105
     47  H        -5.1189908389    2.2131348670   -1.2456062444
     48  H        -2.4269998025   -2.9047483159   -1.4228081178
     49  H        -3.9963691240   -3.7301966543   -1.7664784937
     50  H         4.4795213142   -3.7687682565   -1.6373689430
     51  H         2.7894554733   -3.1578614306   -1.4115813664
     52  H         3.5913308429   -4.0872365524   -0.0923628327
     53  H         0.9068542871    1.5045507504    0.2617982142
     54  H         1.1816323793   -0.2242092848    0.7908050463
     55  H        -0.6552497992    0.2860023522   -1.6250815191
     56  H        -0.7768518763   -0.9952228075   -0.3362421262
   Point Group: c1    Number of degrees of freedom:   162


   Energy is  -1510.255226657

 Hessian Updated using BFGS Update

149 Hessian modes will be used to form the next step
  Hessian Eigenvalues:
     0.001956    0.002322    0.002676    0.002690    0.003202    0.004252
     0.004296    0.004376    0.004588    0.004788    0.004879    0.005593
     0.006784    0.006838    0.008236    0.011713    0.012335    0.021497
     0.021694    0.025027    0.025698    0.030302    0.030644    0.032933
     0.035460    0.036200    0.038691    0.040528    0.041159    0.041447
     0.043422    0.045045    0.046841    0.051129    0.051259    0.051475
     0.053015    0.053594    0.053732    0.054614    0.055259    0.055359
     0.056480    0.056706    0.057239    0.058087    0.058174    0.060646
     0.060768    0.063594    0.063772    0.064148    0.064184    0.066566
     0.069820    0.070042    0.072862    0.072944    0.092662    0.092767
     0.093302    0.094411    0.095600    0.096652    0.096903    0.098160
     0.102735    0.102849    0.105373    0.108775    0.110802    0.112117
     0.121651    0.133001    0.134891    0.141266    0.158618    0.159997
     0.159999    0.164032    0.164329    0.180423    0.220455    0.220549
     0.221442    0.221846    0.224382    0.228870    0.238529    0.239067
     0.239582    0.239616    0.245464    0.245731    0.246555    0.248624
     0.249649    0.249839    0.249908    0.249924    0.253337    0.253342
     0.255346    0.259976    0.261147    0.261721    0.292557    0.293343
     0.306025    0.307335    0.322142    0.323657    0.323920    0.326050
     0.326722    0.326782    0.327078    0.327317    0.328330    0.328700
     0.329018    0.329305    0.329476    0.329581    0.330230    0.330843
     0.330944    0.331233    0.331494    0.334797    0.334850    0.334923
     0.334935    0.334962    0.335169    0.335184    0.335194    0.337802
     0.343308    0.344081    0.377963    0.398383    0.409945    0.413280
     0.425151    0.816373    0.824202    0.827611    0.831465

 Minimum Search - Taking Simple RFO Step
 Searching for Lamda that Minimizes Along All modes
 Value Taken    Lamda =  -0.01572119
 Calculated Step too Large.  Step scaled by  0.385529
 Step Taken.  Stepsize is  0.300000

                             Maximum     Tolerance    Cnvgd?
         Gradient           0.015401      0.000300      NO
         Displacement       0.109310      0.001200      NO
         Energy change     -0.004597      0.000001      NO


 New Cartesian Coordinates Obtained by Inverse Iteration

 Displacement from previous Coordinates is:  2.724612
 Adding empirical dispersion correction 
 ----------------------------------------------------------------
 Doing -D3(op) with
 s6 =   1.00000
 s8 =   0.78311
 a1 =   0.30000
 a2 =   4.25000
 n  =  10.00000
 -D3 energy without 3body term =     -0.0672978334 hartrees
 ----------------------------------------------------------------
             Standard Nuclear Orientation (Angstroms)
    I     Atom           X                Y                Z
 ----------------------------------------------------------------
    1      O      -2.5535412538    -1.9710742056     1.1718206146
    2      C      -3.6099240095    -1.5195404898     0.6740055941
    3      C      -4.3825832334    -0.2253309467     1.1087063530
    4      C      -3.8925226162     1.1054070521     0.3852957055
    5      C      -2.6843855335     0.9267579683    -0.6048919686
    6      O      -1.4736519323     0.6780604976     0.1353737640
    7      C      -0.4856675333    -0.0478924273    -0.7028327083
    8      C       0.9503077480     0.3239450981    -0.1918776075
    9      O       1.8671252632     0.1717161505    -1.3601967377
   10      C       2.9766945853     1.0840515337    -1.2910391337
   11      C       3.7787225592     1.2157753359     0.0718409541
   12      C       4.0017833076    -0.0796224018     0.9682399695
   13      C       3.4259076564    -1.4250460998     0.4017189006
   14      O       2.3162970328    -1.9378769827     0.6825936559
   15      O      -4.2884673347    -2.1303543001    -0.4262969467
   16      O       4.3696083981    -2.0211478841    -0.4848288166
   17      O       3.3221268325     1.6961825517    -2.3261665239
   18      C       3.8076679282    -3.2660133570    -1.0598106054
   19      C       5.2804987836     1.6371079214    -0.2311729290
   20      C       5.8754985488     2.3208684239     1.0601296019
   21      C       6.0704896140     1.0687911826     1.9947751370
   22      C       5.5902575815    -0.1008843579     1.0452677993
   23      O       6.0015993840     0.3478101659    -0.3022584429
   24      H       3.2823237113     1.9977537228     0.6776205624
   25      H       3.5511853370     0.0673490561     1.9664237076
   26      H       5.3892156652     2.1988525156    -1.1797654324
   27      H       6.8372919406     2.8064647594     0.8301831218
   28      H       5.1925285537     3.0725080179     1.4868495573
   29      H       7.1278957741     0.9292444758     2.2699408363
   30      H       5.4705151440     1.1277005706     2.9169427482
   31      H       6.0191187231    -1.0966447145     1.2682229478
   32      O      -2.7285955914     1.0683249452    -1.8462983281
   33      C      -3.5523532538    -3.3336728549    -0.8779680986
   34      C      -5.9070548786    -0.2471207939     0.6637926003
   35      C      -6.6822146447     0.8868513152     1.4463639593
   36      C      -6.2072135752     2.1732511090     0.6728776387
   37      C      -5.2140788281     1.5409409877    -0.3780480681
   38      O      -5.8594303874     0.2552071662    -0.7277174941
   39      H      -4.2705728156    -0.1256758524     2.2033505321
   40      H      -3.6060233425     1.8549465902     1.1465444849
   41      H      -3.3458779432    -4.0276159173    -0.0381932698
   42      H      -6.3746364931    -1.2496292783     0.6967583675
   43      H      -7.7701619521     0.7395621300     1.3568189450
   44      H      -6.4160277529     0.9093176294     2.5151269790
   45      H      -7.0470712823     2.6668174452     0.1582445074
   46      H      -5.7129196110     2.9083442389     1.3279434721
   47      H      -5.0270020205     2.1378592739    -1.2916342239
   48      H      -2.5889712796    -3.0623265132    -1.3565605566
   49      H      -4.2038871265    -3.8273765951    -1.6221538673
   50      H       4.5717717407    -3.6458939289    -1.7624729643
   51      H       2.8628127377    -3.0671851532    -1.6052167091
   52      H       3.6113073523    -4.0256130320    -0.2756509996
   53      H       0.9409997017     1.3639936189     0.1957437223
   54      H       1.2645453596    -0.3858392644     0.6069259614
   55      H      -0.5887063388     0.2368494973    -1.7729985966
   56      H      -0.6665178856    -1.1387957426    -0.5842635176
 ----------------------------------------------------------------
 Molecular Point Group                 C1    NOp =  1
 Largest Abelian Subgroup              C1    NOp =  1
 Nuclear Repulsion Energy =  3061.8820362568 hartrees
 There are      113 alpha and      113 beta electrons
 Applying Cartesian multipole field
    Component          Value
    ---------          -----
     (2,0,0)        1.00000E-12
     (0,2,0)        2.00000E-11
     (0,0,2)       -3.00000E-11
 Nucleus-field energy     =     0.0000000291 hartrees
 Requested basis set is STO-3G
 There are 86 shells and 176 basis functions
 A cutoff of  1.0D-12 yielded   2041 shell pairs
 There are      9523 function pairs
 Smallest overlap matrix eigenvalue = 2.13E-01
 Guess MOs from SCF MO coefficient file
 Reading MOs from coefficient file
 Reading MOs from coefficient file
 A restricted hybrid HF-DFT SCF calculation will be
 performed using Pulay DIIS extrapolation
 Exchange:     0.2000 Hartree-Fock + 0.0800 Slater + 0.7200 B88
 Correlation:  0.1900 VWN1RPA + 0.8100 LYP
 Using SG-1 standard quadrature grid
 Dispersion:   Grimme D3
 SCF converges when DIIS error is below 1.0E-08
 Geometry optimization detected.  Setting ReadMinima to 0
 Setting SaveMinima to 0
 using 48 threads for integral computing
 -------------------------------------------------------
 OpenMP Integral computing Module                
 Release: version 1.0, May 2013, Q-Chem Inc. Pittsburgh 
 -------------------------------------------------------
 -------------------------------------------------------
 OpenMP BLAS3 based DFT computing Module                
 Release: version 1.0, May 2013, Q-Chem Inc. Pittsburgh 
 -------------------------------------------------------
 ---------------------------------------
  Cycle       Energy         DIIS Error
 ---------------------------------------
    1   -1510.2001599124      3.75E-03
    2   -1510.2586903902      3.36E-04
    3   -1510.2583636817      5.01E-04
    4   -1510.2593587648      1.71E-04
    5   -1510.2594764774      5.58E-05
    6   -1510.2594897674      1.91E-05
    7   -1510.2594912867      7.37E-06
    8   -1510.2594915161      2.27E-06
    9   -1510.2594915444      5.23E-07
   10   -1510.2594915463      1.88E-07
   11   -1510.2594915465      1.15E-07
   12   -1510.2594915465      4.00E-08
   13   -1510.2594915466      1.14E-08
   14   -1510.2594915466      1.88E-09 Convergence criterion met
 ---------------------------------------
 SCF time:  CPU 96.92 s  wall 2.02 s
 SCF   energy in the final basis set = -1510.25949155
 Total energy in the final basis set = -1510.25949155
 
 --------------------------------------------------------------
 
                    Orbital Energies (a.u.)
 --------------------------------------------------------------
 
 Alpha MOs
 -- Occupied --
-18.944 -18.935 -18.925 -18.920 -18.889 -18.886 -18.885 -18.882
-18.881 -18.873 -10.106 -10.103 -10.100 -10.098 -10.067 -10.065
-10.064 -10.062 -10.060 -10.058 -10.058 -10.056 -10.043 -10.039
-10.039 -10.038 -10.022 -10.021 -10.019 -10.018  -1.019  -1.012
 -1.007  -1.003  -0.972  -0.968  -0.944  -0.939  -0.934  -0.932
 -0.764  -0.762  -0.724  -0.723  -0.709  -0.707  -0.697  -0.664
 -0.660  -0.606  -0.602  -0.580  -0.549  -0.544  -0.540  -0.536
 -0.516  -0.512  -0.487  -0.477  -0.469  -0.457  -0.451  -0.443
 -0.435  -0.432  -0.429  -0.416  -0.414  -0.412  -0.412  -0.403
 -0.396  -0.380  -0.376  -0.371  -0.365  -0.356  -0.354  -0.347
 -0.345  -0.336  -0.332  -0.330  -0.329  -0.327  -0.324  -0.313
 -0.309  -0.307  -0.305  -0.301  -0.295  -0.287  -0.281  -0.279
 -0.275  -0.259  -0.253  -0.247  -0.240  -0.235  -0.232  -0.183
 -0.177  -0.176  -0.168  -0.160  -0.157  -0.150  -0.148  -0.144
 -0.141
 -- Virtual --
  0.084   0.093   0.093   0.099   0.208   0.238   0.241   0.245
  0.255   0.279   0.283   0.289   0.293   0.309   0.321   0.330
  0.332   0.336   0.338   0.345   0.345   0.351   0.365   0.371
  0.373   0.383   0.394   0.398   0.401   0.406   0.407   0.413
  0.414   0.415   0.422   0.424   0.429   0.430   0.431   0.433
  0.435   0.437   0.439   0.443   0.448   0.452   0.458   0.467
  0.469   0.473   0.489   0.491   0.504   0.504   0.508   0.538
  0.538   0.553   0.554   0.614   0.632   0.633   0.646
 --------------------------------------------------------------
 
          Ground-State Mulliken Net Atomic Charges

     Atom                 Charge (a.u.)
  ----------------------------------------
      1 O                    -0.213689
      2 C                     0.203687
      3 C                    -0.078126
      4 C                    -0.077933
      5 C                     0.207211
      6 O                    -0.177572
      7 C                    -0.050199
      8 C                    -0.061471
      9 O                    -0.182222
     10 C                     0.212361
     11 C                    -0.084940
     12 C                    -0.082829
     13 C                     0.211634
     14 O                    -0.216194
     15 O                    -0.164586
     16 O                    -0.160088
     17 O                    -0.190576
     18 C                    -0.127122
     19 C                     0.023833
     20 C                    -0.144008
     21 C                    -0.144834
     22 C                     0.027129
     23 O                    -0.186279
     24 H                     0.080325
     25 H                     0.083064
     26 H                     0.093668
     27 H                     0.078940
     28 H                     0.072617
     29 H                     0.078535
     30 H                     0.072578
     31 H                     0.085763
     32 O                    -0.203945
     33 C                    -0.128056
     34 C                     0.026182
     35 C                    -0.144835
     36 C                    -0.143842
     37 C                     0.024189
     38 O                    -0.185924
     39 H                     0.084993
     40 H                     0.084713
     41 H                     0.090474
     42 H                     0.086360
     43 H                     0.077725
     44 H                     0.072512
     45 H                     0.078149
     46 H                     0.072474
     47 H                     0.089737
     48 H                     0.086760
     49 H                     0.092672
     50 H                     0.094330
     51 H                     0.094121
     52 H                     0.089054
     53 H                     0.079073
     54 H                     0.106055
     55 H                     0.100127
     56 H                     0.088227
  ----------------------------------------
  Sum of atomic charges =    -0.000000

 -----------------------------------------------------------------
                    Cartesian Multipole Moments
 -----------------------------------------------------------------
    Charge (ESU x 10^10)
                 0.0000
    Dipole Moment (Debye)
         X      -0.2250      Y      -0.1559      Z       3.9630
       Tot       3.9725
    Quadrupole Moments (Debye-Ang)
        XX    -156.7983     XY      -2.0363     YY    -147.8897
        XZ       1.9475     YZ      10.2015     ZZ    -166.4234
    Octopole Moments (Debye-Ang^2)
       XXX     -44.0218    XXY       5.3648    XYY      -0.5520
       YYY     -37.2356    XXZ     108.3272    XYZ       7.8915
       YYZ     -17.9992    XZZ       0.9710    YZZ     -14.7023
       ZZZ       3.4719
    Hexadecapole Moments (Debye-Ang^3)
      XXXX  -18440.4514   XXXY    -150.9979   XXYY   -3234.2397
      XYYY    -130.7490   YYYY   -2487.7736   XXXZ      11.0457
      XXYZ      31.6196   XYYZ      26.6079   YYYZ     -40.9745
      XXZZ   -3286.2170   XYZZ     -71.2201   YYZZ    -640.3486
      XZZZ      47.8913   YZZZ     -57.6425   ZZZZ   -1238.6398
 -----------------------------------------------------------------
 Calculating analytic gradient of the SCF energy
 Gradient of SCF Energy
            1           2           3           4           5           6
    1   0.0013213  -0.0046654   0.0015388  -0.0023937  -0.0016552   0.0071299
    2  -0.0006927  -0.0007482   0.0008127  -0.0038186  -0.0037107   0.0061703
    3  -0.0001226   0.0012180  -0.0011859  -0.0019563   0.0024929  -0.0037508
            7           8           9          10          11          12
    1  -0.0017353   0.0015151   0.0028837  -0.0043735   0.0023972  -0.0014665
    2  -0.0040809  -0.0003762  -0.0042478   0.0021286  -0.0024489   0.0006495
    3   0.0001578  -0.0005589  -0.0016904   0.0020023  -0.0023500  -0.0009031
           13          14          15          16          17          18
    1  -0.0030213  -0.0008964   0.0005533   0.0011351  -0.0007736   0.0001231
    2  -0.0003049   0.0022954  -0.0000222  -0.0010234   0.0033713   0.0001111
    3   0.0041796  -0.0032924   0.0009086   0.0002714   0.0004041   0.0000353
           19          20          21          22          23          24
    1   0.0003867  -0.0004375   0.0002237   0.0001115   0.0002301   0.0005965
    2  -0.0010268   0.0003713  -0.0001167   0.0010461  -0.0002202   0.0007058
    3   0.0005486  -0.0003119   0.0000072  -0.0003278   0.0002630   0.0003369
           25          26          27          28          29          30
    1   0.0002802   0.0000344   0.0000414  -0.0000177   0.0000276   0.0001455
    2  -0.0001665  -0.0002985   0.0000119  -0.0000517  -0.0000303   0.0000331
    3   0.0004990  -0.0001408   0.0000146  -0.0001085   0.0000319   0.0000529
           31          32          33          34          35          36
    1  -0.0000351   0.0001334   0.0000246  -0.0002650  -0.0000393  -0.0001970
    2  -0.0000566   0.0051130  -0.0003408   0.0005290  -0.0001309   0.0000085
    3  -0.0002812   0.0007115   0.0000932  -0.0000466   0.0000417  -0.0000140
           37          38          39          40          41          42
    1  -0.0002639  -0.0000604  -0.0000178  -0.0009720  -0.0000342   0.0001333
    2   0.0001269  -0.0000981   0.0000856   0.0003830   0.0000673   0.0000037
    3  -0.0000570   0.0002272   0.0001120   0.0003484  -0.0000015  -0.0001168
           43          44          45          46          47          48
    1   0.0000390  -0.0001064  -0.0000130  -0.0000160  -0.0000684  -0.0001944
    2  -0.0000255  -0.0000239   0.0000022   0.0000056  -0.0002014  -0.0000836
    3  -0.0000321  -0.0000548   0.0000047   0.0000367   0.0000354  -0.0002032
           49          50          51          52          53          54
    1  -0.0000158  -0.0000096   0.0000187   0.0000064   0.0004513   0.0011527
    2   0.0000190   0.0000156  -0.0000080  -0.0000910  -0.0000937   0.0000345
    3  -0.0000448   0.0000175   0.0001538  -0.0000833   0.0008522  -0.0003002
           55          56
    1   0.0016021  -0.0004923
    2   0.0002445   0.0001933
    3  -0.0001762   0.0020526
 Max gradient component =       7.130E-03
 RMS gradient           =       1.510E-03
 Gradient time:  CPU 30.87 s  wall 0.70 s
 Geometry Optimization Parameters
   NAtoms,    NIC,     NZ,  NCons,   NDum,   NFix, NCnnct, MaxDiis
       56     458       0       0       0       0       0       0

 Cartesian Hessian Update
 Hessian Updated using BFGS Update


** GEOMETRY OPTIMIZATION IN DELOCALIZED INTERNAL COORDINATES **
   Searching for a Minimum

   Optimization Cycle:   3

                       Coordinates (Angstroms)
     ATOM                X               Y               Z
      1  O        -2.5535412538   -1.9710742056    1.1718206146
      2  C        -3.6099240095   -1.5195404898    0.6740055941
      3  C        -4.3825832334   -0.2253309467    1.1087063530
      4  C        -3.8925226162    1.1054070521    0.3852957055
      5  C        -2.6843855335    0.9267579683   -0.6048919686
      6  O        -1.4736519323    0.6780604976    0.1353737640
      7  C        -0.4856675333   -0.0478924273   -0.7028327083
      8  C         0.9503077480    0.3239450981   -0.1918776075
      9  O         1.8671252632    0.1717161505   -1.3601967377
     10  C         2.9766945853    1.0840515337   -1.2910391337
     11  C         3.7787225592    1.2157753359    0.0718409541
     12  C         4.0017833076   -0.0796224018    0.9682399695
     13  C         3.4259076564   -1.4250460998    0.4017189006
     14  O         2.3162970328   -1.9378769827    0.6825936559
     15  O        -4.2884673347   -2.1303543001   -0.4262969467
     16  O         4.3696083981   -2.0211478841   -0.4848288166
     17  O         3.3221268325    1.6961825517   -2.3261665239
     18  C         3.8076679282   -3.2660133570   -1.0598106054
     19  C         5.2804987836    1.6371079214   -0.2311729290
     20  C         5.8754985488    2.3208684239    1.0601296019
     21  C         6.0704896140    1.0687911826    1.9947751370
     22  C         5.5902575815   -0.1008843579    1.0452677993
     23  O         6.0015993840    0.3478101659   -0.3022584429
     24  H         3.2823237113    1.9977537228    0.6776205624
     25  H         3.5511853370    0.0673490561    1.9664237076
     26  H         5.3892156652    2.1988525156   -1.1797654324
     27  H         6.8372919406    2.8064647594    0.8301831218
     28  H         5.1925285537    3.0725080179    1.4868495573
     29  H         7.1278957741    0.9292444758    2.2699408363
     30  H         5.4705151440    1.1277005706    2.9169427482
     31  H         6.0191187231   -1.0966447145    1.2682229478
     32  O        -2.7285955914    1.0683249452   -1.8462983281
     33  C        -3.5523532538   -3.3336728549   -0.8779680986
     34  C        -5.9070548786   -0.2471207939    0.6637926003
     35  C        -6.6822146447    0.8868513152    1.4463639593
     36  C        -6.2072135752    2.1732511090    0.6728776387
     37  C        -5.2140788281    1.5409409877   -0.3780480681
     38  O        -5.8594303874    0.2552071662   -0.7277174941
     39  H        -4.2705728156   -0.1256758524    2.2033505321
     40  H        -3.6060233425    1.8549465902    1.1465444849
     41  H        -3.3458779432   -4.0276159173   -0.0381932698
     42  H        -6.3746364931   -1.2496292783    0.6967583675
     43  H        -7.7701619521    0.7395621300    1.3568189450
     44  H        -6.4160277529    0.9093176294    2.5151269790
     45  H        -7.0470712823    2.6668174452    0.1582445074
     46  H        -5.7129196110    2.9083442389    1.3279434721
     47  H        -5.0270020205    2.1378592739   -1.2916342239
     48  H        -2.5889712796   -3.0623265132   -1.3565605566
     49  H        -4.2038871265   -3.8273765951   -1.6221538673
     50  H         4.5717717407   -3.6458939289   -1.7624729643
     51  H         2.8628127377   -3.0671851532   -1.6052167091
     52  H         3.6113073523   -4.0256130320   -0.2756509996
     53  H         0.9409997017    1.3639936189    0.1957437223
     54  H         1.2645453596   -0.3858392644    0.6069259614
     55  H        -0.5887063388    0.2368494973   -1.7729985966
     56  H        -0.6665178856   -1.1387957426   -0.5842635176
   Point Group: c1    Number of degrees of freedom:   162


   Energy is  -1510.259491547

 Hessian Updated using BFGS Update

152 Hessian modes will be used to form the next step
  Hessian Eigenvalues:
     0.001424    0.002070    0.002116    0.002688    0.002724    0.003195
     0.004135    0.004256    0.004314    0.004584    0.004788    0.004880
     0.006194    0.006825    0.006907    0.011701    0.012333    0.020568
     0.021645    0.023334    0.025457    0.028480    0.030370    0.031130
     0.032275    0.035877    0.036155    0.038622    0.040599    0.041085
     0.041460    0.043410    0.045051    0.049512    0.051140    0.051437
     0.052032    0.052719    0.053729    0.054555    0.055195    0.055282
     0.055523    0.056343    0.056616    0.057342    0.058083    0.059053
     0.060710    0.060799    0.063589    0.063787    0.064145    0.064184
     0.066955    0.069793    0.070065    0.072875    0.072953    0.092678
     0.092769    0.093300    0.094413    0.096288    0.096664    0.096903
     0.098378    0.102736    0.102850    0.105693    0.108916    0.110859
     0.112571    0.125676    0.133012    0.135390    0.143977    0.159992
     0.159998    0.159999    0.161198    0.164014    0.164487    0.184417
     0.220285    0.220595    0.221460    0.221919    0.224889    0.229648
     0.238642    0.239013    0.239582    0.239616    0.245468    0.245869
     0.246560    0.248595    0.249330    0.249802    0.249908    0.249918
     0.253335    0.253341    0.254964    0.259949    0.261078    0.261584
     0.262545    0.292558    0.293343    0.306194    0.307309    0.322144
     0.323659    0.323921    0.326050    0.326734    0.326782    0.327078
     0.327317    0.328329    0.328745    0.329008    0.329303    0.329491
     0.329581    0.330236    0.330843    0.330944    0.331241    0.331495
     0.334799    0.334852    0.334925    0.334937    0.334962    0.335169
     0.335185    0.335194    0.338662    0.343307    0.344113    0.393258
     0.398998    0.410319    0.415401    0.569888    0.819082    0.823919
     0.827886    0.831481

 Minimum Search - Taking Simple RFO Step
 Searching for Lamda that Minimizes Along All modes
 Value Taken    Lamda =  -0.01455820
 Calculated Step too Large.  Step scaled by  0.344379
 Step Taken.  Stepsize is  0.300000

                             Maximum     Tolerance    Cnvgd?
         Gradient           0.012705      0.000300      NO
         Displacement       0.082484      0.001200      NO
         Energy change     -0.004265      0.000001      NO


 New Cartesian Coordinates Obtained by Inverse Iteration

 Displacement from previous Coordinates is:  2.322473
 Adding empirical dispersion correction 
 ----------------------------------------------------------------
 Doing -D3(op) with
 s6 =   1.00000
 s8 =   0.78311
 a1 =   0.30000
 a2 =   4.25000
 n  =  10.00000
 -D3 energy without 3body term =     -0.0678514132 hartrees
 ----------------------------------------------------------------
             Standard Nuclear Orientation (Angstroms)
    I     Atom           X                Y                Z
 ----------------------------------------------------------------
    1      O      -2.5029341792    -1.8679003611     1.2342682136
    2      C      -3.5765823049    -1.4483858977     0.7468325778
    3      C      -4.3480600890    -0.1409123780     1.1464429207
    4      C      -3.8694435650     1.1342422883     0.3309257547
    5      C      -2.7032419621     0.8347541503    -0.6709195119
    6      O      -1.5084300577     0.5660417040     0.0812950101
    7      C      -0.5155009768    -0.1400062852    -0.7653276149
    8      C       0.9134596697     0.2175938301    -0.2257678990
    9      O       1.8469743933     0.0873669199    -1.3823728734
   10      C       2.9547066316     1.0015029972    -1.2922477363
   11      C       3.6989901835     1.1544665724     0.0986000574
   12      C       3.9782812142    -0.1580485577     0.9493967269
   13      C       3.4948623035    -1.5005561239     0.2981295833
   14      O       2.4254638068    -2.1033665485     0.5544923157
   15      O      -4.2719308859    -2.1047775765    -0.3165424443
   16      O       4.4760604929    -1.9793762015    -0.6185766480
   17      O       3.3204658733     1.6150633534    -2.3191288699
   18      C       3.9994769098    -3.2247955940    -1.2647422067
   19      C       5.1799562903     1.6760780083    -0.1481157912
   20      C       5.6990760052     2.3441648230     1.1837142814
   21      C       5.9446496406     1.0700724078     2.0767336687
   22      C       5.5623096992    -0.0884190371     1.0705737308
   23      O       5.9805363782     0.4373582533    -0.2459480107
   24      H       3.1398910448     1.8877974851     0.7102178590
   25      H       3.4954379330    -0.0858469092     1.9403959559
   26      H       5.2786090942     2.2772837538    -1.0733279187
   27      H       6.6353820540     2.8944393764     0.9989917020
   28      H       4.9612495814     3.0371081729     1.6185832493
   29      H       7.0008567795     0.9835399806     2.3771404061
   30      H       5.3178084961     1.0573173416     2.9826875000
   31      H       6.0451992120    -1.0648396360     1.2667320881
   32      O      -2.7676703706     0.8536738830    -1.9193679094
   33      C      -3.5257717322    -3.3109457241    -0.7423426568
   34      C      -5.8853222046    -0.1742959889     0.7485115789
   35      C      -6.6246225399     1.0150882729     1.4834021896
   36      C      -6.1597596921     2.2480032153     0.6188147649
   37      C      -5.2060761018     1.5403959112    -0.4203254527
   38      O      -5.8763149927     0.2446840910    -0.6707550734
   39      H      -4.2014056506     0.0174197200     2.2299490146
   40      H      -3.5402515993     1.9255641445     1.0299000078
   41      H      -3.2919671967    -3.9730049165     0.1158606705
   42      H      -6.3606945417    -1.1681674044     0.8539499154
   43      H      -7.7163561717     0.8761526700     1.4357404412
   44      H      -6.3255690178     1.0988602413     2.5403635993
   45      H      -7.0095126110     2.7201659780     0.1003143916
   46      H      -5.6375729769     3.0149455508     1.2126883969
   47      H      -5.0387656975     2.0751554798    -1.3754547490
   48      H      -2.5755896520    -3.0400161914    -1.2472128423
   49      H      -4.1827083041    -3.8397025339    -1.4570871108
   50      H       4.7879134970    -3.5125626734    -1.9841399946
   51      H       3.0437205305    -3.0603635014    -1.8026052915
   52      H       3.8544173637    -4.0383471382    -0.5247860153
   53      H       0.8978585558     1.2485197932     0.1850586135
   54      H       1.2129567239    -0.5085340124     0.5641788317
   55      H      -0.6093412393     0.1727364076    -1.8284084428
   56      H      -0.6991375303    -1.2339457319    -0.6832547996
 ----------------------------------------------------------------
 Molecular Point Group                 C1    NOp =  1
 Largest Abelian Subgroup              C1    NOp =  1
 Nuclear Repulsion Energy =  3069.5562690294 hartrees
 There are      113 alpha and      113 beta electrons
 Applying Cartesian multipole field
    Component          Value
    ---------          -----
     (2,0,0)        1.00000E-12
     (0,2,0)        2.00000E-11
     (0,0,2)       -3.00000E-11
 Nucleus-field energy     =     0.0000000271 hartrees
 Requested basis set is STO-3G
 There are 86 shells and 176 basis functions
 A cutoff of  1.0D-12 yielded   2044 shell pairs
 There are      9568 function pairs
 Smallest overlap matrix eigenvalue = 2.13E-01
 Guess MOs from SCF MO coefficient file
 Reading MOs from coefficient file
 Reading MOs from coefficient file
 A restricted hybrid HF-DFT SCF calculation will be
 performed using Pulay DIIS extrapolation
[...]
      6  O        -0.7339381412    0.6086688076   -0.9448039871
      7  C        -0.1324017325    0.1989096077   -2.2417598846
      8  C         0.7540900125    1.3796184429   -2.8059124636
      9  O         2.1969868899    1.0795324259   -2.9061885393
     10  C         2.9352373500    0.9766443262   -1.6727836622
     11  C         2.1908844774    0.9292062196   -0.2790212829
     12  C         2.1304150693   -0.5507690121    0.3051147391
     13  C         2.4457811378   -1.6449682899   -0.7556945096
     14  O         1.6172556831   -2.0823460078   -1.6039160037
     15  O        -1.9796850109   -1.6824564747    0.0933076691
     16  O         3.7825269012   -2.1034204753   -0.6654306498
     17  O         4.1771672900    0.8758252781   -1.7890725210
     18  C         4.0559673616   -3.1096611014   -1.7216189165
     19  C         3.0974569794    1.6234461665    0.8223733672
     20  C         2.2614369560    1.7363346071    2.1604150545
     21  C         2.3252834784    0.2569003572    2.6937719070
     22  C         3.1336144546   -0.4403463973    1.5289008898
     23  O         4.1136382095    0.5901464658    1.1205581513
     24  H         1.1754471332    1.3575078116   -0.3278901859
     25  H         1.1118074804   -0.7735957448    0.6895132682
     26  H         3.5859332468    2.5587620882    0.4870610646
     27  H         2.7408155940    2.4426344171    2.8566118622
     28  H         1.2291027681    2.0722417466    1.9712065618
     29  H         2.8767096503    0.1925100821    3.6449689250
     30  H         1.3248849221   -0.1936679628    2.8135794429
     31  H         3.6477448854   -1.3832560667    1.7959665724
     32  O        -2.7912220449    0.5166132456   -2.1280956591
     33  C        -1.0822105297   -2.8006873676   -0.2940327082
     34  C        -3.8154359854   -0.2595039071    1.9669434168
     35  C        -4.5443873334    0.9219016414    2.7205986921
     36  C        -4.9198973485    1.8638125975    1.5158542126
     37  C        -4.3345172998    1.0486985032    0.2975773409
     38  O        -4.5491771675   -0.3648154613    0.6880734559
     39  H        -1.8856267502    0.8282248164    2.3347468813
     40  H        -2.4320644428    2.2272627670    0.4916336713
     41  H        -0.8270274870   -3.4271759417    0.5840187877
     42  H        -3.8165668624   -1.2313579194    2.4975324541
     43  H        -5.4431498055    0.5499448447    3.2376992509
     44  H        -3.8885634995    1.4106451938    3.4585682731
     45  H        -6.0113418217    1.9743934576    1.4154435230
     46  H        -4.4701385151    2.8659219414    1.6020306453
     47  H        -4.7940315741    1.2498503235   -0.6896040048
     48  H        -0.1394597029   -2.4404654132   -0.7707113627
     49  H        -1.6576966898   -3.4000475032   -1.0224974112
     50  H         5.1157179750   -3.3968699877   -1.5957541403
     51  H         3.9008789756   -2.6820881872   -2.7326738326
     52  H         3.4082427512   -4.0025981675   -1.6071088193
     53  H         0.4585697652    1.5942743359   -3.8533404633
     54  H         0.5654501850    2.2977698916   -2.2063428172
     55  H        -0.9628310002   -0.0291578480   -2.9416009412
     56  H         0.4927639804   -0.7145562991   -2.0639648964
   Point Group: c1    Number of degrees of freedom:   162


   Energy is  -1510.292787824

 Hessian Updated using BFGS Update

162 Hessian modes will be used to form the next step
  Hessian Eigenvalues:
     0.001067    0.002130    0.002657    0.003134    0.004438    0.004889
     0.006041    0.007100    0.007765    0.010547    0.013901    0.018568
     0.020964    0.021887    0.022248    0.023743    0.028022    0.028743
     0.030581    0.031602    0.031926    0.034257    0.035480    0.036897
     0.038772    0.042141    0.043111    0.044190    0.045362    0.046067
     0.046911    0.049786    0.051234    0.051397    0.052138    0.052971
     0.055339    0.056238    0.056477    0.056705    0.057263    0.057481
     0.059741    0.061105    0.061909    0.063272    0.064240    0.064345
     0.064555    0.064780    0.066048    0.066623    0.069325    0.070926
     0.072100    0.072563    0.073667    0.078394    0.085375    0.090864
     0.093281    0.094626    0.097114    0.100349    0.102666    0.103881
     0.104902    0.107749    0.109460    0.111716    0.118022    0.122502
     0.130397    0.134139    0.139409    0.147757    0.149897    0.156621
     0.160154    0.160407    0.160862    0.162540    0.164810    0.168764
     0.173951    0.186777    0.202518    0.209431    0.217013    0.224545
     0.231319    0.234294    0.237553    0.239650    0.241201    0.241876
     0.245454    0.246799    0.249131    0.249510    0.251642    0.253208
     0.253977    0.256902    0.259652    0.261594    0.265005    0.265772
     0.273335    0.282008    0.286444    0.294200    0.297357    0.299362
     0.306498    0.307569    0.308925    0.321354    0.323574    0.325096
     0.326344    0.326934    0.327151    0.327486    0.328310    0.329178
     0.329447    0.330098    0.330473    0.330827    0.331010    0.332256
     0.333203    0.333565    0.334691    0.334929    0.335071    0.335201
     0.335433    0.335711    0.336727    0.337393    0.340147    0.345051
     0.348769    0.356979    0.367216    0.373555    0.387949    0.406629
     0.418574    0.433842    0.472251    0.503468    0.727958    0.810947
     0.820832    0.837307    0.839074    1.379539    1.632009    5.097702

 Minimum Search - Taking Simple RFO Step
 Searching for Lamda that Minimizes Along All modes
 Value Taken    Lamda =   0.00000000
 Step Taken.  Stepsize is  0.012215

                             Maximum     Tolerance    Cnvgd?
         Gradient           0.000292      0.000300     YES
         Displacement       0.004924      0.001200      NO
         Energy change      0.000000      0.000001     YES

 Final energy is   -1510.29278782408     


 ******************************
 **  OPTIMIZATION CONVERGED  **
 ******************************

                       Coordinates (Angstroms)
     ATOM                X               Y               Z
      1  O        -0.3229012412   -1.1942369773    1.7151294670
      2  C        -1.4137928866   -0.9232131051    1.1541741153
      3  C        -2.3721809748    0.2524981813    1.5281239034
      4  C        -2.7567402746    1.1867600842    0.3045855654
      5  C        -2.1587889267    0.7242407967   -1.0701353147
      6  O        -0.7339381412    0.6086688076   -0.9448039871
      7  C        -0.1324017325    0.1989096077   -2.2417598846
      8  C         0.7540900125    1.3796184429   -2.8059124636
      9  O         2.1969868899    1.0795324259   -2.9061885393
     10  C         2.9352373500    0.9766443262   -1.6727836622
     11  C         2.1908844774    0.9292062196   -0.2790212829
     12  C         2.1304150693   -0.5507690121    0.3051147391
     13  C         2.4457811378   -1.6449682899   -0.7556945096
     14  O         1.6172556831   -2.0823460078   -1.6039160037
     15  O        -1.9796850109   -1.6824564747    0.0933076691
     16  O         3.7825269012   -2.1034204753   -0.6654306498
     17  O         4.1771672900    0.8758252781   -1.7890725210
     18  C         4.0559673616   -3.1096611014   -1.7216189165
     19  C         3.0974569794    1.6234461665    0.8223733672
     20  C         2.2614369560    1.7363346071    2.1604150545
     21  C         2.3252834784    0.2569003572    2.6937719070
     22  C         3.1336144546   -0.4403463973    1.5289008898
     23  O         4.1136382095    0.5901464658    1.1205581513
     24  H         1.1754471332    1.3575078116   -0.3278901859
     25  H         1.1118074804   -0.7735957448    0.6895132682
     26  H         3.5859332468    2.5587620882    0.4870610646
     27  H         2.7408155940    2.4426344171    2.8566118622
     28  H         1.2291027681    2.0722417466    1.9712065618
     29  H         2.8767096503    0.1925100821    3.6449689250
     30  H         1.3248849221   -0.1936679628    2.8135794429
     31  H         3.6477448854   -1.3832560667    1.7959665724
     32  O        -2.7912220449    0.5166132456   -2.1280956591
     33  C        -1.0822105297   -2.8006873676   -0.2940327082
     34  C        -3.8154359854   -0.2595039071    1.9669434168
     35  C        -4.5443873334    0.9219016414    2.7205986921
     36  C        -4.9198973485    1.8638125975    1.5158542126
     37  C        -4.3345172998    1.0486985032    0.2975773409
     38  O        -4.5491771675   -0.3648154613    0.6880734559
     39  H        -1.8856267502    0.8282248164    2.3347468813
     40  H        -2.4320644428    2.2272627670    0.4916336713
     41  H        -0.8270274870   -3.4271759417    0.5840187877
     42  H        -3.8165668624   -1.2313579194    2.4975324541
     43  H        -5.4431498055    0.5499448447    3.2376992509
     44  H        -3.8885634995    1.4106451938    3.4585682731
     45  H        -6.0113418217    1.9743934576    1.4154435230
     46  H        -4.4701385151    2.8659219414    1.6020306453
     47  H        -4.7940315741    1.2498503235   -0.6896040048
     48  H        -0.1394597029   -2.4404654132   -0.7707113627
     49  H        -1.6576966898   -3.4000475032   -1.0224974112
     50  H         5.1157179750   -3.3968699877   -1.5957541403
     51  H         3.9008789756   -2.6820881872   -2.7326738326
     52  H         3.4082427512   -4.0025981675   -1.6071088193
     53  H         0.4585697652    1.5942743359   -3.8533404633
     54  H         0.5654501850    2.2977698916   -2.2063428172
     55  H        -0.9628310002   -0.0291578480   -2.9416009412
     56  H         0.4927639804   -0.7145562991   -2.0639648964

Z-matrix Print:
$molecule
0 1
O 
C  1 1.435014
O  2 1.249944 1 124.258748
C  1 1.487227 2 110.342376 3 -0.485506 0
H  4 1.109687 1 107.693422 2 -6.673019 0
H  4 1.121099 1 108.163969 2 -126.089689 0
C  2 1.568862 1 109.005008 3 -178.313754 0
H  7 1.105915 2 108.281416 1 68.251576 0
C  4 1.580572 1 109.408547 2 113.317020 0
H  9 1.109286 4 109.399959 1 -128.350829 0
H  9 1.112686 4 109.207642 1 -10.709300 0
O  9 1.477179 4 114.855187 1 115.658890 0
C  12 1.441141 9 117.179812 4 -70.947192 0
O  13 1.251430 12 115.759900 9 -172.080059 0
C  13 1.580786 12 121.032533 9 10.625361 0
H  15 1.103152 13 112.502594 12 -21.906543 0
C  7 1.583821 2 110.493825 1 -168.700246 0
H  17 1.107313 7 113.672444 2 -34.141151 0
O  17 1.482089 7 103.076632 2 85.328536 0
C  19 1.478166 17 95.054900 7 57.280250 0
H  20 1.107261 19 110.581773 17 -179.877016 0
C  17 1.578379 7 108.725033 2 -165.162104 0
H  22 1.101618 17 110.422194 7 167.534129 0
H  22 1.101786 17 112.252026 7 46.095106 0
C  22 1.574679 17 101.138287 7 -74.340586 0
H  25 1.101598 22 111.502614 17 -117.372841 0
H  25 1.101623 22 112.898773 17 119.875413 0
C  15 1.586478 13 109.262430 12 -147.945815 0
H  28 1.107185 15 114.300940 13 42.347699 0
O  28 1.479610 15 103.106736 13 -77.464395 0
C  30 1.479563 28 94.997071 15 -58.189006 0
H  31 1.106676 30 110.628093 28 178.535088 0
C  31 1.580024 30 103.590925 28 -56.713726 0
H  33 1.101359 31 110.780381 30 -81.397797 0
H  33 1.103704 31 111.320802 30 156.318134 0
C  33 1.573935 31 100.702857 30 36.780659 0
H  36 1.101523 33 111.769609 31 -120.082334 0
H  36 1.101974 33 112.501402 31 117.282773 0
C  31 1.586271 30 104.741854 28 54.213174 0
H  39 1.111294 31 109.073372 30 -146.152879 0
C  39 1.556292 31 116.529164 30 93.557123 0
O  41 1.263817 39 124.607683 31 162.626983 0
O  41 1.416056 39 112.053085 31 -17.389061 0
C  43 1.484191 41 110.368146 39 -178.051919 0
H  44 1.105171 43 105.771902 41 178.816260 0
H  44 1.108649 43 111.206777 41 59.700161 0
H  44 1.109052 43 111.394300 41 -61.907000 0
C  7 1.586751 2 114.187448 1 -55.474588 0
H  48 1.104009 7 111.293845 2 124.156020 0
C  48 1.562256 7 114.029701 2 2.638365 0
O  50 1.256252 48 126.028673 7 126.782828 0
O  50 1.422013 48 109.649164 7 -54.926160 0
C  52 1.485238 50 110.859672 48 179.396654 0
H  53 1.105024 52 105.402376 50 172.947935 0
H  53 1.108414 52 110.981661 50 54.365786 0
H  53 1.116137 52 112.258344 50 -67.946870 0
$end

 
 --------------------------------------------------------------
 
                    Orbital Energies (a.u.)
 --------------------------------------------------------------
 
 Alpha MOs
 -- Occupied --
-18.955 -18.948 -18.935 -18.925 -18.895 -18.886 -18.886 -18.885
-18.879 -18.867 -10.113 -10.112 -10.108 -10.091 -10.073 -10.070
-10.068 -10.064 -10.057 -10.053 -10.051 -10.050 -10.047 -10.046
-10.029 -10.027 -10.025 -10.023 -10.013 -10.006  -1.025  -1.024
 -1.014  -0.999  -0.977  -0.962  -0.947  -0.946  -0.943  -0.928
 -0.772  -0.757  -0.732  -0.714  -0.714  -0.700  -0.699  -0.666
 -0.663  -0.618  -0.596  -0.588  -0.552  -0.543  -0.542  -0.531
 -0.519  -0.513  -0.489  -0.478  -0.476  -0.467  -0.453  -0.442
 -0.438  -0.429  -0.425  -0.419  -0.417  -0.415  -0.412  -0.396
 -0.392  -0.385  -0.381  -0.374  -0.372  -0.369  -0.361  -0.354
 -0.347  -0.339  -0.338  -0.333  -0.328  -0.324  -0.317  -0.311
 -0.311  -0.306  -0.304  -0.298  -0.295  -0.288  -0.283  -0.280
 -0.273  -0.262  -0.255  -0.251  -0.240  -0.235  -0.225  -0.192
 -0.189  -0.179  -0.169  -0.166  -0.161  -0.158  -0.150  -0.141
 -0.133
 -- Virtual --
  0.077   0.084   0.101   0.103   0.220   0.237   0.240   0.244
  0.253   0.263   0.280   0.292   0.295   0.301   0.323   0.327
  0.329   0.337   0.341   0.347   0.349   0.356   0.363   0.368
  0.372   0.378   0.387   0.391   0.404   0.407   0.410   0.412
  0.418   0.419   0.421   0.424   0.427   0.431   0.432   0.433
  0.434   0.437   0.440   0.444   0.455   0.462   0.463   0.475
  0.482   0.487   0.495   0.499   0.503   0.505   0.528   0.532
  0.546   0.557   0.564   0.621   0.631   0.635   0.639
 --------------------------------------------------------------
 
          Ground-State Mulliken Net Atomic Charges

     Atom                 Charge (a.u.)
  ----------------------------------------
      1 O                    -0.222756
      2 C                     0.219958
      3 C                    -0.079732
      4 C                    -0.078282
      5 C                     0.215756
      6 O                    -0.186289
      7 C                    -0.080451
      8 C                    -0.051885
      9 O                    -0.173160
     10 C                     0.197302
     11 C                    -0.089341
     12 C                    -0.094666
     13 C                     0.215563
     14 O                    -0.226371
     15 O                    -0.162137
     16 O                    -0.151509
     17 O                    -0.197836
     18 C                    -0.126133
     19 C                     0.026449
     20 C                    -0.144825
     21 C                    -0.148831
     22 C                     0.025765
     23 O                    -0.185205
     24 H                     0.089053
     25 H                     0.107261
     26 H                     0.082179
     27 H                     0.074998
     28 H                     0.068919
     29 H                     0.072968
     30 H                     0.087445
     31 H                     0.085158
     32 O                    -0.208425
     33 C                    -0.139584
     34 C                     0.026648
     35 C                    -0.143629
     36 C                    -0.144228
     37 C                     0.025115
     38 O                    -0.184526
     39 H                     0.084938
     40 H                     0.083961
     41 H                     0.085624
     42 H                     0.083961
     43 H                     0.079503
     44 H                     0.074102
     45 H                     0.079752
     46 H                     0.073478
     47 H                     0.092305
     48 H                     0.103898
     49 H                     0.091865
     50 H                     0.097336
     51 H                     0.096787
     52 H                     0.090424
     53 H                     0.091969
     54 H                     0.080647
     55 H                     0.098246
     56 H                     0.110467
  ----------------------------------------
  Sum of atomic charges =    -0.000000

 -----------------------------------------------------------------
                    Cartesian Multipole Moments
 -----------------------------------------------------------------
    Charge (ESU x 10^10)
                -0.0000
    Dipole Moment (Debye)
         X      -2.7260      Y       0.4155      Z       2.1603
       Tot       3.5029
    Quadrupole Moments (Debye-Ang)
        XX    -179.9229     XY     -13.1140     YY    -146.6882
        XZ      -4.7631     YZ       3.6081     ZZ    -160.9944
    Octopole Moments (Debye-Ang^2)
       XXX    -110.9005    XXY     -15.5853    XYY       7.5507
       YYY     -16.4367    XXZ      32.7620    XYZ      16.1115
       YYZ     -14.2466    XZZ     -28.3865    YZZ      -1.8707
       ZZZ      -3.4708
    Hexadecapole Moments (Debye-Ang^3)
      XXXX   -8992.0705   XXXY      99.3407   XXYY   -1631.5940
      XYYY     374.5325   YYYY   -2016.6455   XXXZ     598.2512
      XXYZ      34.7254   XYYZ     192.4513   YYYZ    -145.9857
      XXZZ   -1907.4433   XYZZ     108.4760   YYZZ    -810.2830
      XZZZ     692.8618   YZZZ    -161.2374   ZZZZ   -2841.5428
 -----------------------------------------------------------------
Archival summary:
1\1\vega02.cac.cornell.edu\OPT\ProcedureUnspecified\STO-3G\102026\jj585\SunJan1405:12:212018SunJan1405:12:212018\0\\#,OPT,ProcedureUnspecified,STO-3G,\\0,1\O\C,1,1.43501\O,2,1.24994,1,124.259\C,1,1.48723,2,110.342,3,-0.485506,0\H,4,1.10969,1,107.693,2,-6.67302,0\H,4,1.1211,1,108.164,2,-126.09,0\C,2,1.56886,1,109.005,3,-178.314,0\H,7,1.10591,2,108.281,1,68.2516,0\C,4,1.58057,1,109.409,2,113.317,0\H,9,1.10929,4,109.4,1,-128.351,0\H,9,1.11269,4,109.208,1,-10.7093,0\O,9,1.47718,4,114.855,1,115.659,0\C,12,1.44114,9,117.18,4,-70.9472,0\O,13,1.25143,12,115.76,9,-172.08,0\C,13,1.58079,12,121.033,9,10.6254,0\H,15,1.10315,13,112.503,12,-21.9065,0\C,7,1.58382,2,110.494,1,-168.7,0\H,17,1.10731,7,113.672,2,-34.1412,0\O,17,1.48209,7,103.077,2,85.3285,0\C,19,1.47817,17,95.0549,7,57.2803,0\H,20,1.10726,19,110.582,17,-179.877,0\C,17,1.57838,7,108.725,2,-165.162,0\H,22,1.10162,17,110.422,7,167.534,0\H,22,1.10179,17,112.252,7,46.0951,0\C,22,1.57468,17,101.138,7,-74.3406,0\H,25,1.1016,22,111.503,17,-117.373,0\H,25,1.10162,22,112.899,17,119.875,0\C,15,1.58648,13,109.262,12,-147.946,0\H,28,1.10719,15,114.301,13,42.3477,0\O,28,1.47961,15,103.107,13,-77.4644,0\C,30,1.47956,28,94.9971,15,-58.189,0\H,31,1.10668,30,110.628,28,178.535,0\C,31,1.58002,30,103.591,28,-56.7137,0\H,33,1.10136,31,110.78,30,-81.3978,0\H,33,1.1037,31,111.321,30,156.318,0\C,33,1.57394,31,100.703,30,36.7807,0\H,36,1.10152,33,111.77,31,-120.082,0\H,36,1.10197,33,112.501,31,117.283,0\C,31,1.58627,30,104.742,28,54.2132,0\H,39,1.11129,31,109.073,30,-146.153,0\C,39,1.55629,31,116.529,30,93.5571,0\O,41,1.26382,39,124.608,31,162.627,0\O,41,1.41606,39,112.053,31,-17.3891,0\C,43,1.48419,41,110.368,39,-178.052,0\H,44,1.10517,43,105.772,41,178.816,0\H,44,1.10865,43,111.207,41,59.7002,0\H,44,1.10905,43,111.394,41,-61.907,0\C,7,1.58675,2,114.187,1,-55.4746,0\H,48,1.10401,7,111.294,2,124.156,0\C,48,1.56226,7,114.03,2,2.63836,0\O,50,1.25625,48,126.029,7,126.783,0\O,50,1.42201,48,109.649,7,-54.9262,0\C,52,1.48524,50,110.86,48,179.397,0\H,53,1.10502,52,105.402,50,172.948,0\H,53,1.10841,52,110.982,50,54.3658,0\H,53,1.11614,52,112.258,50,-67.9469,0\\\@

 Total job time:  262.12s(wall), 12497.43s(cpu) 
 Sun Jan 14 05:12:21 2018

        *************************************************************
        *                                                           *
        *  Thank you very much for using Q-Chem.  Have a nice day.  *
        *                                                           *
        *************************************************************


0 sent ACK to 0 
now end server 0 ... 
