mFile = /opt/software/qchem/qchem-5.0.1//bin/mpi/machines
Process 0 of 1 is on vega02.cac.cornell.edu - thread support 0
initial socket setup ...start
initial socket setup ...done 
now start server 0 ... 
vega02.cac.cornell.edu 10.84.3
Q-Chem Developer Version! Running on 10.84.3.*
                  Welcome to Q-Chem
     A Quantum Leap Into The Future Of Chemistry


 Q-Chem 5.0, Q-Chem, Inc., Pleasanton, CA (2017)

 Yihan Shao,  Zhengting Gan,  E. Epifanovsky,  A. T. B. Gilbert,  M. Wormit,  
 J. Kussmann,  A. W. Lange,  A. Behn,  Jia Deng,  Xintian Feng,  D. Ghosh,  
 M. Goldey,  P. R. Horn,  L. D. Jacobson,  I. Kaliman,  T. Kus,  A. Landau,  
 Jie Liu,  E. I. Proynov,  R. M. Richard,  R. P. Steele,  E. J. Sundstrom,  
 H. L. Woodcock III,  P. M. Zimmerman,  D. Zuev,  B. Albrecht,  E. Alguire,  
 S. A. Baeppler,  Z. Benda,  Y. A. Bernard,  E. J. Berquist,  K. B. Bravaya,  
 D. Casanova,  Chun-Min Chang,  Yunqing Chen,  A. Chien,  K. D. Closser,  
 M. P. Coons,  S. Dasgupta,  M. Diedenhofen,  Hainam Do,  R. G. Edgar,  
 Po-Tung Fang,  S. Fatehi,  Qingguo Feng,  Qinghui Ge,  A. Ghysels,  
 J. Gomes,  J. Gonthier,  A. Gunina,  M. W. D. Hanson-Heine,  
 P. H. P. Harbach,  A. W. Hauser,  J. E. Herr,  E. G. Hohenstein,  
 Z. C. Holden,  Kerwin Hui,  T.-C. Jagau,  Hyunjun Ji,  B. Kaduk,  
 K. Khistyaev,  Jaehoon Kim,  P. Klunzinger,  K. Koh,  D. Kosenkov,  
 T. Kowalczyk,  C. M. Krauter,  A. Kunitsa,  Ka Un Lao,  A. Laurent,  
 K. V. Lawler,  Joonho Lee,  D. Lefrancois,  S. Lehtola,  D. S. Levine,  
 Yi-Pei Li,  You-Sheng Lin,  Fenglai Liu,  E. Livshits,  A. Luenser,  
 P. Manohar,  E. Mansoor,  S. F. Manzer,  Shan-Ping Mao,  Yuezhi Mao,  
 N. Mardirossian,  A. V. Marenich,  L. A. Martinez-Martinez,  S. A. Maurer,  
 N. J. Mayhall,  S. C. McKenzie,  J.-M. Mewes,  A. F. Morrison,  K. Nanda,  
 T. S. Nguyen-Beck,  R. Olivares-Amaya,  J. A. Parkhill,  T. M. Perrine,  
 F. Plasser,  S. Prager,  A. Prociuk,  D. R. Rehn,  F. Rob,  M. Schneider,  
 N. Sergueev,  S. M. Sharada,  S. Sharma,  D. W. Small,  T. Stauch,  
 T. Stein,  Yu-Chuan Su,  A. J. W. Thom,  T. Tsuchimochi,  L. Vogt,  
 O. Vydrov,  M. A. Watson,  J. Wenzel,  M. de Wergifosse,  T. A. Wesolowski,  
 A. White,  J. Witte,  A. Yamada,  Jun Yang,  K. Yao,  S. Yeganeh,  
 S. R. Yost,  Zhi-Qiang You,  A. Zech,  Igor Ying Zhang,  Xing Zhang,  
 Yan Zhao,  Ying Zhu,  B. R. Brooks,  G. K. L. Chan,  C. J. Cramer,  
 M. S. Gordon,  W. J. Hehre,  A. Klamt,  M. W. Schmidt,  C. D. Sherrill,  
 D. G. Truhlar,  A. Aspuru-Guzik,  R. Baer,  A. T. Bell,  N. A. Besley,  
 Jeng-Da Chai,  A. Dreuw,  B. D. Dunietz,  T. R. Furlani,  Chao-Ping Hsu,  
 Yousung Jung,  Jing Kong,  D. S. Lambrecht,  WanZhen Liang,  C. Ochsenfeld,  
 V. A. Rassolov,  L. V. Slipchenko,  J. E. Subotnik,  T. Van Voorhis,  
 J. M. Herbert,  A. I. Krylov,  P. M. W. Gill,  M. Head-Gordon

 Contributors to earlier versions of Q-Chem not listed above: 
 R. D. Adamson,  B. Austin,  J. Baker,  G. J. O. Beran,  K. Brandhorst,  
 S. T. Brown,  E. F. C. Byrd,  A. K. Chakraborty,  C.-L. Cheng,  
 Siu Hung Chien,  D. M. Chipman,  D. L. Crittenden,  H. Dachsel,  
 R. A. DiStasio Jr.,  R. J. Doerksen,  A. D. Dutoi,  L. Fusti-Molnar,  
 W. A. Goddard III,  A. Golubeva-Zadorozhnaya,  S. R. Gwaltney,  G. Hawkins,  
 A. Heyden,  S. Hirata,  G. Kedziora,  F. J. Keil,  C. Kelley,  Jihan Kim,  
 R. A. King,  R. Z. Khaliullin,  P. P. Korambath,  W. Kurlancheek,  
 A. M. Lee,  M. S. Lee,  S. V. Levchenko,  Ching Yeh Lin,  D. Liotard,  
 R. C. Lochan,  I. Lotan,  P. E. Maslen,  N. Nair,  D. P. O'Neill,  
 D. Neuhauser,  E. Neuscamman,  C. M. Oana,  R. Olson,  B. Peters,  
 R. Peverati,  P. A. Pieniazek,  Y. M. Rhee,  J. Ritchie,  M. A. Rohrdanz,  
 E. Rosta,  N. J. Russ,  H. F. Schaefer III,  N. E. Schultz,  N. Shenvi,  
 A. C. Simmonett,  A. Sodt,  D. Stuck,  K. S. Thanthiriwatte,  V. Vanovschi,  
 Tao Wang,  A. Warshel,  C. F. Williams,  Q. Wu,  X. Xu,  W. Zhang

 Please cite Q-Chem as follows:
 Y. Shao et al., Mol. Phys. 113, 184-215 (2015)
 DOI: 10.1080/00268976.2014.952696

 Q-Chem 5.0.1 for Intel X86 EM64T Linux

 Parts of Q-Chem use Armadillo 5.200.1 (Boston Tea Smuggler).
 http://arma.sourceforge.net/

 Q-Chem begins on Sun Jan 14 08:18:30 2018  

Host: vega02.cac.cornell.edu
0

     Scratch files written to /scratch/jj585/SOT1001/0371c.save//
 Parallel job on  1  processors

Checking the input file for inconsistencies... 	...done.

--------------------------------------------------------------
User input:
--------------------------------------------------------------
$molecule
0  1
O -3.94934 -3.66094 2.70899
C -3.26408 -4.56952 2.26188
C -3.36658 -6.02376 2.66595
C -2.05424 -6.81773 2.77194
C -0.77335 -6.02476 2.63554
O 0.16784 -6.51174 3.49718
C 1.50244 -6.12934 3.14811
C 1.90716 -6.77857 1.8287
O 3.28738 -7.17254 1.8802
C 3.50903 -8.50024 2.04517
C 4.90213 -8.80704 2.54096
C 5.20298 -10.2992 2.74401
C 4.2277 -11.26359 2.09944
O 4.06388 -11.40779 0.89656
O -2.67088 -4.34125 1.06056
O 3.56164 -12.08846 2.95012
O 2.61054 -9.32787 1.96169
C 2.6573 -13.05036 2.55142
C 6.02313 -8.44057 1.54462
C 7.32805 -8.22074 2.30888
C 7.65077 -9.64075 2.73439
C 6.54293 -10.40602 1.9997
O 6.29757 -9.63279 0.84882
H 5.04464 -8.21854 3.47607
H 5.2649 -10.54971 3.82678
H 5.7875 -7.5521 0.91926
H 8.08531 -7.89406 1.56017
H 7.2883 -7.47643 3.13304
H 8.65497 -9.90661 2.33617
H 7.61009 -9.82923 3.82919
H 6.84059 -11.46366 1.82466
O -0.50066 -5.34938 1.65259
C -2.60193 -3.11191 0.43687
C -3.94401 -6.219 4.08252
C -4.58973 -7.59729 4.1915
C -3.36319 -8.48112 4.18428
C -2.25395 -7.42117 4.18869
O -2.8111 -6.34776 4.90536
H -4.05244 -6.48597 1.92015
H -1.99942 -7.60884 1.99146
H -2.05486 -2.38896 1.07914
H -4.67748 -5.43834 4.37969
H -5.06413 -7.65694 5.1975
H -5.34896 -7.83093 3.41439
H -3.35073 -9.06727 5.13032
H -3.27452 -9.16586 3.31321
H -1.34106 -7.8778 4.62568
H -3.62344 -2.72988 0.22506
H -2.05622 -3.22148 -0.52262
H 2.26452 -13.57393 3.447
H 3.15417 -13.79343 1.89163
H 1.80873 -12.57697 2.01259
H 1.21954 -7.63345 1.65049
H 1.73228 -6.10779 0.96236
H 2.1318 -6.57727 3.94693
H 1.68501 -5.03213 3.16776
$end

$opt
CONSTRAINT
tors           1           2           3           4    -142.105
tors           3           4           5           6    +142.105
tors           4           5           6           7    +161.053
tors           5           6           7           8     -66.316
tors           6           7           8           9    -142.105
tors           7           8           9          10    +104.211
tors           8           9          10          11    -161.053
tors           9          10          11          12    -180.000
tors          11          12          13          14     +66.316
ENDCONSTRAINT
$end

$rem
JOBTYPE                   OPT
METHOD                    B3LYP
DFT_D                     d3_op
BASIS                     STO-3G
GEOM_OPT_MAX_CYCLES       100
GEOM_OPT_TOL_GRADIENT     300
GEOM_OPT_TOL_DISPLACEMENT 1200
GEOM_OPT_TOL_ENERGY       100
SYMMETRY                  False
THRESH                    12
SCF_CONVERGENCE           8
MAX_SUB_FILE_NUM          128
MEM_STATIC                400
MEM_TOTAL                 4000
$end
--------------------------------------------------------------
 Adding empirical dispersion correction 
 ----------------------------------------------------------------
 Doing -D3(op) with
 s6 =   1.00000
 s8 =   0.78311
 a1 =   0.30000
 a2 =   4.25000
 n  =  10.00000
 -D3 energy without 3body term =     -0.0647664593 hartrees
 ----------------------------------------------------------------
             Standard Nuclear Orientation (Angstroms)
    I     Atom           X                Y                Z
 ----------------------------------------------------------------
    1      O      -6.4499771496     1.2880761064     0.1643975825
    2      C      -5.3868207445     0.9690643746    -0.3483754759
    3      C      -4.8318404410    -0.4368992975    -0.4104706284
    4      C      -3.3140200545    -0.6017942256    -0.2291161314
    5      C      -2.5440396112     0.6372590412     0.1708372311
    6      O      -1.5570289277     0.3051182184     1.0545249646
    7      C      -0.5312879102     1.2988257958     1.1526952272
    8      C       0.2339007500     1.3961589200    -0.1630377232
    9      O       1.6294853604     1.6138651561     0.0973839527
   10      C       2.4303101172     0.5330364483    -0.0747210352
   11      C       3.7609192192     0.6690431413     0.6264516762
   12      C       4.7051151149    -0.5307896128     0.4615973065
   13      C       4.3470481966    -1.5067879956    -0.6410834606
   14      O       4.3665611692    -1.2615867327    -1.8386002711
   15      O      -4.8740161936     1.8363799824    -1.2604929598
   16      O       4.0762698285    -2.7775491288    -0.2416487092
   17      O       2.0310822678    -0.4989581115    -0.5989623537
   18      C       3.7597923838    -3.8109065127    -1.0984209541
   19      C       4.6578887590     1.7948828004     0.0682712724
   20      C       5.6437917854     2.2392307117     1.1479864844
   21      C       6.5557570425     1.0286979318     1.2155521361
   22      C       5.9953313305     0.1975904208     0.0545610246
   23      O       5.5112464792     1.1592374660    -0.8529122556
   24      H       3.5370755827     0.8837772029     1.6964308216
   25      H       4.7894262734    -1.1052347429     1.4112733778
   26      H       4.0864440366     2.6677991775    -0.3157124450
   27      H       6.2189183381     3.0932987723     0.7231025116
   28      H       5.1956573452     2.5496795915     2.1162912715
   29      H       7.5964584826     1.3614208336     1.0059946710
   30      H       6.5197913608     0.4597909486     2.1699199515
   31      H       6.7645841088    -0.5033328186    -0.3388848069
   32      O      -2.5395604652     1.6690086716    -0.4865525470
   33      C      -5.3360950275     3.1192529655    -1.4743625806
   34      C      -5.3634388612    -1.3475961909     0.7148066332
   35      C      -5.2987760920    -2.8065399605     0.2722955190
   36      C      -3.8055778541    -3.0411516304     0.3026987345
   37      C      -3.3225797777    -1.6995651493     0.8690779364
   38      O      -4.3713374876    -1.2869769306     1.7093869673
   39      H      -5.1608108113    -0.8369538117    -1.3963684654
   40      H      -2.8343055804    -0.9610009811    -1.1665881709
   41      H      -5.2426136781     3.7180976585    -0.5431809059
   42      H      -6.3974075924    -1.1015357053     1.0405077015
   43      H      -5.7697991217    -3.4134918500     1.0787669641
   44      H      -5.7964036858    -3.0339246291    -0.6949587314
   45      H      -3.5974323721    -3.8678483783     1.0182172185
   46      H      -3.3383339740    -3.2647243702    -0.6807607552
   47      H      -2.3405292157    -1.8649477321     1.3600613007
   48      H      -6.3971754267     3.0964652448    -1.8028168136
   49      H      -4.7271116285     3.5969392805    -2.2689574794
   50      H       3.5857699572    -4.7332758324    -0.5073065467
   51      H       4.5969099041    -3.9919526624    -1.8061018249
   52      H       2.8347856127    -3.5684118561    -1.6641644657
   53      H       0.0407816017     0.4619755008    -0.7334816001
   54      H      -0.1631989406     2.1984110612    -0.8186116367
   55      H       0.1678177176     0.8940779608     1.9157674374
   56      H      -0.8833672961     2.2859127045     1.5259073013
 ----------------------------------------------------------------
 Molecular Point Group                 C1    NOp =  1
 Largest Abelian Subgroup              C1    NOp =  1
 Nuclear Repulsion Energy =  3083.3694119269 hartrees
 There are      113 alpha and      113 beta electrons
 Requested basis set is STO-3G
 There are 86 shells and 176 basis functions

 Total QAlloc Memory Limit   4000 MB
 Mega-Array Size       392 MB
 MEM_STATIC part       400 MB
 A cutoff of  1.0D-12 yielded   2027 shell pairs
 There are      9446 function pairs
 
 -------------------------------------------------------
 OpenMP Integral Computing Module                       
 Release: version 1.0, May 2013, Q-Chem Inc. Pittsburgh 
 -------------------------------------------------------
 Integral Job Info:
 Integral job number is                      11
 Integral operator is                         1
 short-range coefficients                     0
 long-range coefficients              100000000
 Omega coefficients                           0
 if combine SR and LR in K                    0
 Integral screening is                        0
 Integral computing path is                   2
 max size of driver memory is            800000
 size of driver memory is                 45569
 size of scratch memory is              1046100
 max col of scratch BK array                289
 max len of scratch array in speh3           22
 max len of scratch index in speh4            8
 max int batch size is                      520
 min int batch size is                       52
 fixed nKL is                                52
 max L of basis functions is                  1
 order of int derivative is                   0
 number of shells is                         86
 number of basis is                         176
 number of cartesian basis is               176
 number of contracted shell pairs          2027
 number of primitive shell pairs          10585
 maxK2 (contraction) of shell pair            9
 max number of K2 of shell pair               1
 max number of CS2 of shell pair            284
 max number of PS2 of shell pair           1212
 mem total for path MDJ                   51530
 -------------------------------------------------------
 Smallest overlap matrix eigenvalue = 1.94E-01

 Scale SEOQF with 1.000000e-02/1.000000e-01/1.000000e-01

 Standard Electronic Orientation quadrupole field applied
 Nucleus-field energy     =     0.0000000479 hartrees
 Guess from superposition of atomic densities
 Warning:  Energy on first SCF cycle will be non-variational
 A restricted hybrid HF-DFT SCF calculation will be
 performed using Pulay DIIS extrapolation
 Exchange:     0.2000 Hartree-Fock + 0.0800 Slater + 0.7200 B88
 Correlation:  0.1900 VWN1RPA + 0.8100 LYP
 Using SG-1 standard quadrature grid
 Dispersion:   Grimme D3
 SCF converges when DIIS error is below 1.0E-08
 using 48 threads for integral computing
 -------------------------------------------------------
 OpenMP Integral computing Module                
 Release: version 1.0, May 2013, Q-Chem Inc. Pittsburgh 
 -------------------------------------------------------
 -------------------------------------------------------
 OpenMP BLAS3 based DFT computing Module                
 Release: version 1.0, May 2013, Q-Chem Inc. Pittsburgh 
 -------------------------------------------------------
 ---------------------------------------
  Cycle       Energy         DIIS Error
 ---------------------------------------
    1   -1509.4641728956      8.30E-02
    2   -1509.5902021668      1.04E-02
    3   -1507.6588656363      2.47E-02
    4   -1510.0846745542      3.45E-03
    5   -1510.1318598935      1.19E-03
    6   -1510.1380265489      2.92E-04
    7   -1510.1383460514      1.17E-04
    8   -1510.1384029461      2.85E-05
    9   -1510.1384063335      9.08E-06
   10   -1510.1384066274      3.87E-06
   11   -1510.1384066921      7.87E-07
   12   -1510.1384066948      1.86E-07
   13   -1510.1384066949      1.05E-07
   14   -1510.1384066949      3.74E-08
   15   -1510.1384066949      6.86E-09 Convergence criterion met
 ---------------------------------------
 SCF time:  CPU 110.10 s  wall 2.35 s
 SCF   energy in the final basis set = -1510.13840669
 Total energy in the final basis set = -1510.13840669
 
 --------------------------------------------------------------
 
                    Orbital Energies (a.u.)
 --------------------------------------------------------------
 
 Alpha MOs
 -- Occupied --
-18.952 -18.950 -18.922 -18.918 -18.900 -18.897 -18.874 -18.873
-18.850 -18.838 -10.118 -10.115 -10.106 -10.100 -10.089 -10.082
-10.074 -10.073 -10.070 -10.069 -10.066 -10.064 -10.043 -10.041
-10.040 -10.038 -10.018 -10.017 -10.015 -10.014  -1.056  -1.050
 -1.037  -1.032  -1.023  -1.023  -0.961  -0.956  -0.938  -0.931
 -0.785  -0.783  -0.750  -0.742  -0.737  -0.725  -0.712  -0.676
 -0.675  -0.641  -0.609  -0.593  -0.555  -0.553  -0.539  -0.536
 -0.531  -0.525  -0.503  -0.489  -0.483  -0.479  -0.468  -0.465
 -0.453  -0.449  -0.444  -0.422  -0.420  -0.420  -0.419  -0.412
 -0.409  -0.397  -0.387  -0.383  -0.383  -0.372  -0.365  -0.356
 -0.350  -0.349  -0.347  -0.344  -0.336  -0.330  -0.323  -0.317
 -0.315  -0.307  -0.307  -0.303  -0.297  -0.288  -0.288  -0.282
 -0.278  -0.257  -0.245  -0.236  -0.235  -0.219  -0.215  -0.202
 -0.177  -0.170  -0.165  -0.155  -0.154  -0.151  -0.142  -0.134
 -0.126
 -- Virtual --
  0.097   0.106   0.117   0.131   0.230   0.244   0.251   0.285
  0.297   0.306   0.324   0.327   0.339   0.341   0.342   0.353
  0.365   0.370   0.380   0.382   0.387   0.391   0.395   0.401
  0.405   0.406   0.411   0.411   0.414   0.418   0.419   0.425
  0.433   0.435   0.443   0.443   0.447   0.451   0.452   0.454
  0.464   0.466   0.472   0.475   0.478   0.479   0.483   0.490
  0.492   0.499   0.502   0.510   0.524   0.543   0.552   0.565
  0.566   0.575   0.584   0.674   0.679   0.696   0.711
 --------------------------------------------------------------
 
          Ground-State Mulliken Net Atomic Charges

     Atom                 Charge (a.u.)
  ----------------------------------------
      1 O                    -0.238503
      2 C                     0.234033
      3 C                    -0.080351
      4 C                    -0.080271
      5 C                     0.229494
      6 O                    -0.183895
      7 C                    -0.037824
      8 C                    -0.045383
      9 O                    -0.194143
     10 C                     0.238245
     11 C                    -0.081886
     12 C                    -0.080964
     13 C                     0.242969
     14 O                    -0.238148
     15 O                    -0.205236
     16 O                    -0.215578
     17 O                    -0.226150
     18 C                    -0.097285
     19 C                     0.039476
     20 C                    -0.141485
     21 C                    -0.144240
     22 C                     0.042196
     23 O                    -0.204059
     24 H                     0.086967
     25 H                     0.085659
     26 H                     0.087686
     27 H                     0.075553
     28 H                     0.071386
     29 H                     0.076641
     30 H                     0.071760
     31 H                     0.085379
     32 O                    -0.222286
     33 C                    -0.095563
     34 C                     0.038617
     35 C                    -0.142429
     36 C                    -0.144382
     37 C                     0.037326
     38 O                    -0.213151
     39 H                     0.089219
     40 H                     0.088572
     41 H                     0.085749
     42 H                     0.093038
     43 H                     0.075205
     44 H                     0.072082
     45 H                     0.074771
     46 H                     0.070792
     47 H                     0.090692
     48 H                     0.083688
     49 H                     0.094549
     50 H                     0.090108
     51 H                     0.083646
     52 H                     0.088761
     53 H                     0.101233
     54 H                     0.101500
     55 H                     0.092328
     56 H                     0.093892
  ----------------------------------------
  Sum of atomic charges =    -0.000000

 -----------------------------------------------------------------
                    Cartesian Multipole Moments
 -----------------------------------------------------------------
    Charge (ESU x 10^10)
                 0.0000
    Dipole Moment (Debye)
         X       0.9273      Y      -0.6168      Z       1.3510
       Tot       1.7508
    Quadrupole Moments (Debye-Ang)
        XX    -166.5897     XY       4.1124     YY    -149.3807
        XZ      21.7932     YZ       2.8080     ZZ    -164.5357
    Octopole Moments (Debye-Ang^2)
       XXX     107.3977    XXY     -34.9061    XYY      -8.8214
       YYY      -2.2418    XXZ       0.9865    XYZ      15.1924
       YYZ     -16.5310    XZZ     -16.5514    YZZ       9.9251
       ZZZ      -7.5142
    Hexadecapole Moments (Debye-Ang^3)
      XXXX  -18549.4121   XXXY      28.5279   XXYY   -3395.1541
      XYYY    -276.3404   YYYY   -3151.9278   XXXZ     484.8114
      XXYZ      -6.6728   XYYZ     -32.9680   YYYZ     -12.9305
      XXZZ   -3296.7717   XYZZ     -72.2191   YYZZ    -676.2370
      XZZZ      21.0114   YZZZ     -14.2983   ZZZZ    -920.5389
 -----------------------------------------------------------------
 Calculating analytic gradient of the SCF energy
 Gradient of SCF Energy
            1           2           3           4           5           6
    1   0.0606715   0.0294928  -0.0021277  -0.0038497   0.0048288  -0.0071080
    2  -0.0063658  -0.0171808   0.0050777   0.0305792   0.0099590   0.0360519
    3  -0.0554468   0.0086035   0.0388165   0.0186632   0.0249116  -0.0465228
            7           8           9          10          11          12
    1  -0.0150130   0.0145846   0.0004847  -0.0083356   0.0061707   0.0041104
    2  -0.0151476  -0.0003214  -0.0704291   0.0277224  -0.0158721   0.0333046
    3  -0.0338783   0.0436162  -0.0182251  -0.0035028  -0.0296136  -0.0529217
           13          14          15          16          17          18
    1   0.0103382  -0.0066606  -0.0975891  -0.0072297   0.0179922   0.0104133
    2   0.0003307  -0.0259690   0.0528553   0.0045213   0.0534835   0.0232469
    3   0.0304017   0.0665823   0.0553255  -0.1257175   0.0289438   0.0519024
           19          20          21          22          23          24
    1   0.0411989  -0.0053471  -0.0345621  -0.0480467  -0.0139658  -0.0019937
    2  -0.0548751  -0.0454218   0.0092700   0.0497471  -0.0138106   0.0045734
    3  -0.0136731  -0.0259088  -0.0308255  -0.0093740   0.0840823   0.0053858
           25          26          27          28          29          30
    1  -0.0021815  -0.0021751   0.0067496  -0.0013949   0.0053952  -0.0022647
    2  -0.0048594   0.0075854   0.0028295   0.0028231   0.0112113  -0.0073888
    3   0.0046333   0.0102205  -0.0086408   0.0077777  -0.0042013   0.0050387
           31          32          33          34          35          36
    1   0.0053889   0.0006775   0.0335698   0.0695881   0.0387003  -0.0247348
    2  -0.0064534  -0.0578121  -0.0440074  -0.0083963   0.0350479   0.0395491
    3   0.0103120   0.0186775  -0.0107118   0.0153301   0.0109652   0.0155256
           37          38          39          40          41          42
    1  -0.0697799   0.0021861  -0.0044688   0.0024683   0.0051922  -0.0078652
    2   0.0211736  -0.0231795  -0.0019346  -0.0008900  -0.0074286  -0.0099667
    3   0.0054280  -0.0828926  -0.0036149  -0.0041880   0.0011847  -0.0073912
           43          44          45          46          47          48
    1   0.0016172  -0.0031034  -0.0073706   0.0048171   0.0047306   0.0044271
    2  -0.0031056  -0.0032349  -0.0067847   0.0013148  -0.0136293  -0.0077649
    3   0.0112502  -0.0070794   0.0091401  -0.0072673  -0.0073152  -0.0012096
           49          50          51          52          53          54
    1  -0.0018111  -0.0008183   0.0029024   0.0005452  -0.0098293  -0.0038620
    2   0.0035247  -0.0022530   0.0049390   0.0052311   0.0054748  -0.0060888
    3  -0.0005347  -0.0025302   0.0072546   0.0071795  -0.0017994  -0.0046356
           55          56
    1   0.0004732   0.0037735
    2  -0.0014167   0.0005608
    3  -0.0014129   0.0038823
 Max gradient component =       1.257E-01
 RMS gradient           =       2.778E-02
 Gradient time:  CPU 31.48 s  wall 0.68 s
 Geometry Optimization Parameters
   NAtoms,    NIC,     NZ,  NCons,   NDum,   NFix, NCnnct, MaxDiis
       56     458       0       9       0       0       0       0


** CONSTRAINED OPTIMIZATION IN DELOCALIZED INTERNAL COORDINATES **
   Searching for a Minimum

   Optimization Cycle:   1

                       Coordinates (Angstroms)
     ATOM                X               Y               Z
      1  O        -6.4499771496    1.2880761064    0.1643975825
      2  C        -5.3868207445    0.9690643746   -0.3483754759
      3  C        -4.8318404410   -0.4368992975   -0.4104706284
      4  C        -3.3140200545   -0.6017942256   -0.2291161314
      5  C        -2.5440396112    0.6372590412    0.1708372311
      6  O        -1.5570289277    0.3051182184    1.0545249646
      7  C        -0.5312879102    1.2988257958    1.1526952272
      8  C         0.2339007500    1.3961589200   -0.1630377232
      9  O         1.6294853604    1.6138651561    0.0973839527
     10  C         2.4303101172    0.5330364483   -0.0747210352
     11  C         3.7609192192    0.6690431413    0.6264516762
     12  C         4.7051151149   -0.5307896128    0.4615973065
     13  C         4.3470481966   -1.5067879956   -0.6410834606
     14  O         4.3665611692   -1.2615867327   -1.8386002711
     15  O        -4.8740161936    1.8363799824   -1.2604929598
     16  O         4.0762698285   -2.7775491288   -0.2416487092
     17  O         2.0310822678   -0.4989581115   -0.5989623537
     18  C         3.7597923838   -3.8109065127   -1.0984209541
     19  C         4.6578887590    1.7948828004    0.0682712724
     20  C         5.6437917854    2.2392307117    1.1479864844
     21  C         6.5557570425    1.0286979318    1.2155521361
     22  C         5.9953313305    0.1975904208    0.0545610246
     23  O         5.5112464792    1.1592374660   -0.8529122556
     24  H         3.5370755827    0.8837772029    1.6964308216
     25  H         4.7894262734   -1.1052347429    1.4112733778
     26  H         4.0864440366    2.6677991775   -0.3157124450
     27  H         6.2189183381    3.0932987723    0.7231025116
     28  H         5.1956573452    2.5496795915    2.1162912715
     29  H         7.5964584826    1.3614208336    1.0059946710
     30  H         6.5197913608    0.4597909486    2.1699199515
     31  H         6.7645841088   -0.5033328186   -0.3388848069
     32  O        -2.5395604652    1.6690086716   -0.4865525470
     33  C        -5.3360950275    3.1192529655   -1.4743625806
     34  C        -5.3634388612   -1.3475961909    0.7148066332
     35  C        -5.2987760920   -2.8065399605    0.2722955190
     36  C        -3.8055778541   -3.0411516304    0.3026987345
     37  C        -3.3225797777   -1.6995651493    0.8690779364
     38  O        -4.3713374876   -1.2869769306    1.7093869673
     39  H        -5.1608108113   -0.8369538117   -1.3963684654
     40  H        -2.8343055804   -0.9610009811   -1.1665881709
     41  H        -5.2426136781    3.7180976585   -0.5431809059
     42  H        -6.3974075924   -1.1015357053    1.0405077015
     43  H        -5.7697991217   -3.4134918500    1.0787669641
     44  H        -5.7964036858   -3.0339246291   -0.6949587314
     45  H        -3.5974323721   -3.8678483783    1.0182172185
     46  H        -3.3383339740   -3.2647243702   -0.6807607552
     47  H        -2.3405292157   -1.8649477321    1.3600613007
     48  H        -6.3971754267    3.0964652448   -1.8028168136
     49  H        -4.7271116285    3.5969392805   -2.2689574794
     50  H         3.5857699572   -4.7332758324   -0.5073065467
     51  H         4.5969099041   -3.9919526624   -1.8061018249
     52  H         2.8347856127   -3.5684118561   -1.6641644657
     53  H         0.0407816017    0.4619755008   -0.7334816001
     54  H        -0.1631989406    2.1984110612   -0.8186116367
     55  H         0.1678177176    0.8940779608    1.9157674374
     56  H        -0.8833672961    2.2859127045    1.5259073013
   Point Group: c1    Number of degrees of freedom:   162


   Energy is  -1510.138406695

              Constraints and their Current Values
                                        Value     Constraint
   Dihedral:        1   2   3   4     -142.105     -142.105
   Dihedral:        3   4   5   6      142.105      142.105
   Dihedral:        4   5   6   7      161.053      161.053
   Dihedral:        5   6   7   8      -66.315      -66.316
   Dihedral:        6   7   8   9     -142.106     -142.105
   Dihedral:        7   8   9  10      104.211      104.211
   Dihedral:        8   9  10  11     -161.053     -161.053
   Dihedral:        9  10  11  12     -180.000     -180.000
   Dihedral:       11  12  13  14       66.316       66.316

 Attempting to Generate Delocalized Internal Coordinates

   Using Lagrange Multiplier Algorithm


171 Hessian modes will be used to form the next step
  Hessian Eigenvalues:
    -0.977753   -0.977753   -0.977753   -0.977753   -0.977753   -0.977753
    -0.977753   -0.977753   -0.977753    0.045000    0.045000    0.045000
     0.045000    0.045098    0.045346    0.045577    0.045609    0.046781
     0.046926    0.048863    0.048873    0.054049    0.059914    0.059943
     0.062217    0.062622    0.066940    0.067044    0.067831    0.067904
     0.068908    0.070587    0.071929    0.073929    0.074017    0.075642
     0.075787    0.076988    0.077331    0.082438    0.082567    0.083078
     0.083259    0.084240    0.084413    0.085195    0.085447    0.085521
     0.085808    0.086696    0.086910    0.088523    0.088714    0.089027
     0.089271    0.089740    0.089950    0.093780    0.093898    0.096645
     0.096739    0.111573    0.111615    0.114608    0.114654    0.115893
     0.115926    0.116720    0.117262    0.118217    0.119256    0.119325
     0.123270    0.124671    0.131235    0.131562    0.131768    0.139610
     0.141961    0.160000    0.160000    0.160000    0.160000    0.160000
     0.160000    0.171141    0.172276    0.172303    0.173864    0.218926
     0.220239    0.233109    0.239468    0.240556    0.243115    0.247113
     0.249589    0.250000    0.250000    0.250000    0.250000    0.250000
     0.250000    0.250000    0.250000    0.258254    0.258596    0.266964
     0.267094    0.277429    0.279382    0.280687    0.285087    0.294583
     0.296394    0.298741    0.308058    0.310698    0.310864    0.313318
     0.321766    0.321926    0.321964    0.322146    0.322745    0.322868
     0.323201    0.323280    0.323357    0.323400    0.324160    0.324259
     0.324282    0.324388    0.324433    0.324661    0.324694    0.324708
     0.324856    0.324881    0.324927    0.324957    0.325648    0.326490
     0.326781    0.326800    0.367983    0.369623    0.382608    0.385069
     0.401015    0.407723    0.490612    0.492587    0.517921    0.530888
     0.531291    0.537343    0.934479    0.938959    0.941950    0.942762
     1.022753    1.022753    1.022753    1.022753    1.022753    1.022753
     1.022753    1.022753    1.022753

 Minimum Search - Taking P-RFO Step
 Searching for Lamda that Maximizes Along the Constraint modes Only
 Value Taken    Lamda =   0.00072525
 Searching for Lamda that Minimizes Along All other modes
 Value Taken    Lamda =  -0.16988762
 Calculated Step too Large.  Step scaled by  0.524469
 Step Taken.  Stepsize is  0.300000

                             Maximum     Tolerance    Cnvgd?
         Gradient            0.115335       0.000300      NO
         Displacement        0.103861       0.001200      NO
         Energy change     *********       0.000001      NO


 New Cartesian Coordinates Obtained by Inverse Iteration

 Displacement from previous Coordinates is:  1.112648
 Adding empirical dispersion correction 
 ----------------------------------------------------------------
 Doing -D3(op) with
 s6 =   1.00000
 s8 =   0.78311
 a1 =   0.30000
 a2 =   4.25000
 n  =  10.00000
 -D3 energy without 3body term =     -0.0642789376 hartrees
 ----------------------------------------------------------------
             Standard Nuclear Orientation (Angstroms)
    I     Atom           X                Y                Z
 ----------------------------------------------------------------
    1      O      -6.5779110107     1.2811263472     0.1587162383
    2      C      -5.4923267608     0.9782604878    -0.3633669076
    3      C      -4.9065901350    -0.4388746985    -0.4124101611
    4      C      -3.3634356488    -0.6016287545    -0.2330074764
    5      C      -2.5731487108     0.6603012135     0.1599105948
    6      O      -1.5659850029     0.3192139572     1.0563754854
    7      C      -0.5174065248     1.3177028333     1.1469324030
    8      C       0.2735059470     1.4275362587    -0.1796294811
    9      O       1.6803749645     1.6419713605     0.0888992418
   10      C       2.4759732095     0.5274273708    -0.0994763546
   11      C       3.8183748412     0.6666727931     0.6241675471
   12      C       4.7718254039    -0.5483245790     0.4606256364
   13      C       4.4086087199    -1.5231080032    -0.6685918380
   14      O       4.4364339964    -1.2662739466    -1.8814966734
   15      O      -4.9473962874     1.8224732215    -1.3091625904
   16      O       4.1274690428    -2.7972534041    -0.2186567506
   17      O       2.0705130159    -0.5109584899    -0.6433642170
   18      C       3.8028555634    -3.8174144954    -1.1313026473
   19      C       4.7324510881     1.8143005721     0.0777417160
   20      C       5.7150539087     2.2456331083     1.1966320506
   21      C       6.6363254949     1.0117308444     1.2627812928
   22      C       6.0882979263     0.1862579750     0.0639809606
   23      O       5.6111159901     1.1761545578    -0.8593902795
   24      H       3.5849908235     0.8722855816     1.6901032314
   25      H       4.8474681585    -1.1277349483     1.4038423852
   26      H       4.1668587901     2.6858687298    -0.3121717033
   27      H       6.2952725633     3.1034674606     0.8004266133
   28      H       5.2507124120     2.5412108981     2.1566912277
   29      H       7.6792914331     1.3348808188     1.0783977271
   30      H       6.5821530183     0.4341751375     2.2056800045
   31      H       6.8552917240    -0.5105260507    -0.3346035670
   32      O      -2.5642750955     1.7138962142    -0.4902957410
   33      C      -5.4692968655     3.1134766689    -1.5109416342
   34      C      -5.4377099367    -1.3473168473     0.7397521554
   35      C      -5.3637261042    -2.8292047079     0.2968590303
   36      C      -3.8448565033    -3.0594447786     0.3222752563
   37      C      -3.3564860550    -1.6959481029     0.8903894615
   38      O      -4.4222434847    -1.2698015438     1.7507670583
   39      H      -5.2320443514    -0.8488919750    -1.3920431925
   40      H      -2.8903538179    -0.9674943681    -1.1680148021
   41      H      -5.3980717850     3.7242199319    -0.5838134315
   42      H      -6.4666175881    -1.0937459200     1.0700513375
   43      H      -5.8311474541    -3.4342486604     1.0997403629
   44      H      -5.8617411467    -3.0595382995    -0.6641872473
   45      H      -3.6212970352    -3.8782592372     1.0338680670
   46      H      -3.3853185111    -3.2839549859    -0.6594067101
   47      H      -2.3719913943    -1.8396166865     1.3795418572
   48      H      -6.5330234024     3.0720633884    -1.8360556506
   49      H      -4.8749021969     3.6072137721    -2.3060681615
   50      H       3.6142306585    -4.7489256667    -0.5600105810
   51      H       4.6377166725    -4.0007902128    -1.8438803590
   52      H       2.8859663799    -3.5622210719    -1.7078350305
   53      H       0.0969519967     0.4949924332    -0.7601940185
   54      H      -0.1160138533     2.2392843668    -0.8282941810
   55      H       0.1751095677     0.9110429532     1.9151034668
   56      H      -0.8718424441     2.3052964184     1.5155324228
 ----------------------------------------------------------------
 Molecular Point Group                 C1    NOp =  1
 Largest Abelian Subgroup              C1    NOp =  1
 Nuclear Repulsion Energy =  3043.5668436860 hartrees
 There are      113 alpha and      113 beta electrons
 Applying Cartesian multipole field
    Component          Value
    ---------          -----
     (2,0,0)        1.00000E-12
     (0,2,0)        2.00000E-11
     (0,0,2)       -3.00000E-11
 Nucleus-field energy     =     0.0000000479 hartrees
 Requested basis set is STO-3G
 There are 86 shells and 176 basis functions
 A cutoff of  1.0D-12 yielded   2010 shell pairs
 There are      9369 function pairs
 Smallest overlap matrix eigenvalue = 2.02E-01
 Guess MOs from SCF MO coefficient file
 Reading MOs from coefficient file
 Reading MOs from coefficient file
 A restricted hybrid HF-DFT SCF calculation will be
 performed using Pulay DIIS extrapolation
 Exchange:     0.2000 Hartree-Fock + 0.0800 Slater + 0.7200 B88
 Correlation:  0.1900 VWN1RPA + 0.8100 LYP
 Using SG-1 standard quadrature grid
 Dispersion:   Grimme D3
 SCF converges when DIIS error is below 1.0E-08
 Geometry optimization detected.  Setting ReadMinima to 0
 Setting SaveMinima to 0
 using 48 threads for integral computing
 -------------------------------------------------------
 OpenMP Integral computing Module                
 Release: version 1.0, May 2013, Q-Chem Inc. Pittsburgh 
 -------------------------------------------------------
 -------------------------------------------------------
 OpenMP BLAS3 based DFT computing Module                
 Release: version 1.0, May 2013, Q-Chem Inc. Pittsburgh 
 -------------------------------------------------------
 ---------------------------------------
  Cycle       Energy         DIIS Error
 ---------------------------------------
    1   -1510.0316270445      3.11E-03
    2   -1510.2049969065      9.35E-04
    3   -1510.2000014515      1.44E-03
    4   -1510.2085930553      2.98E-04
    5   -1510.2090063182      5.39E-05
    6   -1510.2090197596      1.32E-05
    7   -1510.2090202055      9.58E-06
    8   -1510.2090205822      2.65E-06
    9   -1510.2090206158      4.96E-07
   10   -1510.2090206165      3.26E-07
   11   -1510.2090206169      1.16E-07
   12   -1510.2090206170      1.78E-08
   13   -1510.2090206170      8.61E-09 Convergence criterion met
 ---------------------------------------
 SCF time:  CPU 88.69 s  wall 1.85 s
 SCF   energy in the final basis set = -1510.20902062
 Total energy in the final basis set = -1510.20902062
 
 --------------------------------------------------------------
 
                    Orbital Energies (a.u.)
 --------------------------------------------------------------
 
 Alpha MOs
 -- Occupied --
-18.948 -18.947 -18.928 -18.923 -18.898 -18.895 -18.877 -18.874
-18.854 -18.842 -10.114 -10.109 -10.101 -10.095 -10.085 -10.080
-10.071 -10.068 -10.066 -10.066 -10.062 -10.061 -10.042 -10.041
-10.040 -10.037 -10.018 -10.017 -10.015 -10.014  -1.041  -1.036
 -1.026  -1.019  -1.004  -1.002  -0.953  -0.948  -0.933  -0.926
 -0.776  -0.773  -0.740  -0.733  -0.728  -0.717  -0.705  -0.670
 -0.669  -0.634  -0.604  -0.590  -0.551  -0.550  -0.538  -0.535
 -0.525  -0.519  -0.496  -0.483  -0.476  -0.471  -0.462  -0.458
 -0.446  -0.443  -0.438  -0.417  -0.415  -0.414  -0.414  -0.407
 -0.404  -0.392  -0.381  -0.378  -0.377  -0.366  -0.359  -0.353
 -0.346  -0.345  -0.344  -0.340  -0.334  -0.331  -0.321  -0.318
 -0.312  -0.306  -0.305  -0.302  -0.295  -0.285  -0.284  -0.279
 -0.275  -0.256  -0.246  -0.236  -0.235  -0.227  -0.224  -0.199
 -0.175  -0.171  -0.166  -0.155  -0.153  -0.150  -0.143  -0.139
 -0.129
 -- Virtual --
  0.093   0.099   0.109   0.123   0.223   0.242   0.247   0.275
  0.288   0.295   0.309   0.314   0.328   0.337   0.339   0.348
  0.354   0.360   0.369   0.371   0.374   0.379   0.384   0.388
  0.396   0.399   0.401   0.402   0.408   0.410   0.414   0.414
  0.427   0.428   0.432   0.433   0.435   0.441   0.442   0.446
  0.452   0.457   0.461   0.463   0.467   0.470   0.471   0.480
  0.482   0.484   0.490   0.492   0.501   0.523   0.534   0.546
  0.557   0.560   0.563   0.649   0.655   0.668   0.687
 --------------------------------------------------------------
 
          Ground-State Mulliken Net Atomic Charges

     Atom                 Charge (a.u.)
  ----------------------------------------
      1 O                    -0.229228
      2 C                     0.221418
      3 C                    -0.078938
      4 C                    -0.077779
      5 C                     0.219182
      6 O                    -0.179597
      7 C                    -0.041237
      8 C                    -0.048317
      9 O                    -0.187793
     10 C                     0.227533
     11 C                    -0.080401
     12 C                    -0.080198
     13 C                     0.229913
     14 O                    -0.228887
     15 O                    -0.191205
     16 O                    -0.201709
     17 O                    -0.217334
     18 C                    -0.105733
     19 C                     0.034814
     20 C                    -0.142615
     21 C                    -0.145040
     22 C                     0.036878
     23 O                    -0.195098
     24 H                     0.086640
     25 H                     0.085280
     26 H                     0.087589
     27 H                     0.076055
     28 H                     0.072333
     29 H                     0.076853
     30 H                     0.072490
     31 H                     0.084905
     32 O                    -0.216097
     33 C                    -0.104023
     34 C                     0.033070
     35 C                    -0.143487
     36 C                    -0.145229
     37 C                     0.031992
     38 O                    -0.203610
     39 H                     0.088041
     40 H                     0.088070
     41 H                     0.086479
     42 H                     0.092545
     43 H                     0.075487
     44 H                     0.072594
     45 H                     0.075287
     46 H                     0.071458
     47 H                     0.091143
     48 H                     0.084343
     49 H                     0.094440
     50 H                     0.089747
     51 H                     0.084097
     52 H                     0.089120
     53 H                     0.099947
     54 H                     0.099571
     55 H                     0.091329
     56 H                     0.092911
  ----------------------------------------
  Sum of atomic charges =    -0.000000

 -----------------------------------------------------------------
                    Cartesian Multipole Moments
 -----------------------------------------------------------------
    Charge (ESU x 10^10)
                 0.0000
    Dipole Moment (Debye)
         X       0.8399      Y      -0.6580      Z       1.2346
       Tot       1.6318
    Quadrupole Moments (Debye-Ang)
        XX    -165.7034     XY       3.4159     YY    -148.9662
        XZ      22.2485     YZ       3.0142     ZZ    -164.5204
    Octopole Moments (Debye-Ang^2)
       XXX     100.4183    XXY     -32.8680    XYY     -10.9934
       YYY      -2.7750    XXZ       1.1591    XYZ      17.2844
       YYZ     -17.5227    XZZ     -16.0653    YZZ       9.6925
       ZZZ      -7.0532
    Hexadecapole Moments (Debye-Ang^3)
      XXXX  -19067.2058   XXXY       4.7037   XXYY   -3470.2081
      XYYY    -276.3850   YYYY   -3170.3223   XXXZ     518.2029
      XXYZ      -2.6320   XYYZ     -33.9058   YYYZ      -7.2074
      XXZZ   -3393.5103   XYZZ     -73.4737   YYZZ    -684.1376
      XZZZ      15.6084   YZZZ     -12.5563   ZZZZ    -956.3565
 -----------------------------------------------------------------
 Calculating analytic gradient of the SCF energy
 Gradient of SCF Energy
            1           2           3           4           5           6
    1   0.0216994   0.0390236  -0.0062507   0.0018846  -0.0026974  -0.0034767
    2  -0.0026995  -0.0129915   0.0021594   0.0175857   0.0008535   0.0237925
    3  -0.0304534   0.0037220   0.0214765   0.0062893   0.0271681  -0.0294096
            7           8           9          10          11          12
    1  -0.0106023   0.0153436  -0.0035351  -0.0002961   0.0020281   0.0018271
    2  -0.0088489   0.0028894  -0.0452025   0.0289945  -0.0122985   0.0200858
    3  -0.0212904   0.0316134  -0.0137185  -0.0009553  -0.0138932  -0.0331634
           13          14          15          16          17          18
    1   0.0069090  -0.0043347  -0.0689615  -0.0045814   0.0089211   0.0077284
    2  -0.0059550  -0.0107007   0.0371325   0.0030840   0.0229088   0.0162075
    3   0.0366508   0.0278482   0.0351527  -0.0867240   0.0142645   0.0403708
           19          20          21          22          23          24
    1   0.0253149  -0.0053417  -0.0169737  -0.0282601  -0.0086310  -0.0013866
    2  -0.0336472  -0.0243850   0.0035615   0.0307539  -0.0086567   0.0037229
    3  -0.0143800  -0.0127139  -0.0157198  -0.0111611   0.0502021   0.0028256
           25          26          27          28          29          30
    1  -0.0020771  -0.0018336   0.0040304   0.0002908   0.0024301  -0.0009325
    2  -0.0033007   0.0056703   0.0009867   0.0029911   0.0081236  -0.0051542
    3   0.0026380   0.0095278  -0.0061745   0.0044564  -0.0026069   0.0021735
           31          32          33          34          35          36
    1   0.0036431   0.0025432   0.0274913   0.0418404   0.0199771  -0.0112011
    2  -0.0053828  -0.0301575  -0.0329735  -0.0009320   0.0201311   0.0207428
    3   0.0096428   0.0045113  -0.0086313   0.0141102   0.0031652   0.0077798
           37          38          39          40          41          42
    1  -0.0419588   0.0013883  -0.0038346   0.0017304   0.0031798  -0.0064305
    2   0.0161856  -0.0139151  -0.0004242  -0.0001753  -0.0028804  -0.0088209
    3   0.0075902  -0.0491387  -0.0019577  -0.0022319   0.0014217  -0.0072518
           43          44          45          46          47          48
    1   0.0017698  -0.0024135  -0.0058798   0.0035349   0.0038998   0.0013803
    2  -0.0009147  -0.0031013  -0.0038063   0.0008010  -0.0117620  -0.0037890
    3   0.0074773  -0.0032307   0.0057230  -0.0036912  -0.0072822  -0.0015478
           49          50          51          52          53          54
    1  -0.0014900  -0.0008762   0.0025041  -0.0009727  -0.0078387  -0.0031743
    2   0.0034554  -0.0025713   0.0017689   0.0024944   0.0043810  -0.0054111
    3  -0.0007406  -0.0022536   0.0032642   0.0034047  -0.0023485  -0.0048367
           55          56
    1   0.0006623   0.0032666
    2  -0.0008897   0.0002836
    3  -0.0008363   0.0038731
 Max gradient component =       8.672E-02
 RMS gradient           =       1.779E-02
 Gradient time:  CPU 29.20 s  wall 0.62 s
 Geometry Optimization Parameters
   NAtoms,    NIC,     NZ,  NCons,   NDum,   NFix, NCnnct, MaxDiis
       56     458       0       9       0       0       0       0

 Cartesian Hessian Update
 Hessian Updated using BFGS Update


** CONSTRAINED OPTIMIZATION IN DELOCALIZED INTERNAL COORDINATES **
   Searching for a Minimum

   Optimization Cycle:   2

                       Coordinates (Angstroms)
     ATOM                X               Y               Z
      1  O        -6.5779110107    1.2811263472    0.1587162383
      2  C        -5.4923267608    0.9782604878   -0.3633669076
      3  C        -4.9065901350   -0.4388746985   -0.4124101611
      4  C        -3.3634356488   -0.6016287545   -0.2330074764
      5  C        -2.5731487108    0.6603012135    0.1599105948
      6  O        -1.5659850029    0.3192139572    1.0563754854
      7  C        -0.5174065248    1.3177028333    1.1469324030
      8  C         0.2735059470    1.4275362587   -0.1796294811
      9  O         1.6803749645    1.6419713605    0.0888992418
     10  C         2.4759732095    0.5274273708   -0.0994763546
     11  C         3.8183748412    0.6666727931    0.6241675471
     12  C         4.7718254039   -0.5483245790    0.4606256364
     13  C         4.4086087199   -1.5231080032   -0.6685918380
     14  O         4.4364339964   -1.2662739466   -1.8814966734
     15  O        -4.9473962874    1.8224732215   -1.3091625904
     16  O         4.1274690428   -2.7972534041   -0.2186567506
     17  O         2.0705130159   -0.5109584899   -0.6433642170
     18  C         3.8028555634   -3.8174144954   -1.1313026473
     19  C         4.7324510881    1.8143005721    0.0777417160
     20  C         5.7150539087    2.2456331083    1.1966320506
     21  C         6.6363254949    1.0117308444    1.2627812928
     22  C         6.0882979263    0.1862579750    0.0639809606
     23  O         5.6111159901    1.1761545578   -0.8593902795
     24  H         3.5849908235    0.8722855816    1.6901032314
     25  H         4.8474681585   -1.1277349483    1.4038423852
     26  H         4.1668587901    2.6858687298   -0.3121717033
     27  H         6.2952725633    3.1034674606    0.8004266133
     28  H         5.2507124120    2.5412108981    2.1566912277
     29  H         7.6792914331    1.3348808188    1.0783977271
     30  H         6.5821530183    0.4341751375    2.2056800045
     31  H         6.8552917240   -0.5105260507   -0.3346035670
     32  O        -2.5642750955    1.7138962142   -0.4902957410
     33  C        -5.4692968655    3.1134766689   -1.5109416342
     34  C        -5.4377099367   -1.3473168473    0.7397521554
     35  C        -5.3637261042   -2.8292047079    0.2968590303
     36  C        -3.8448565033   -3.0594447786    0.3222752563
     37  C        -3.3564860550   -1.6959481029    0.8903894615
     38  O        -4.4222434847   -1.2698015438    1.7507670583
     39  H        -5.2320443514   -0.8488919750   -1.3920431925
     40  H        -2.8903538179   -0.9674943681   -1.1680148021
     41  H        -5.3980717850    3.7242199319   -0.5838134315
     42  H        -6.4666175881   -1.0937459200    1.0700513375
     43  H        -5.8311474541   -3.4342486604    1.0997403629
     44  H        -5.8617411467   -3.0595382995   -0.6641872473
     45  H        -3.6212970352   -3.8782592372    1.0338680670
     46  H        -3.3853185111   -3.2839549859   -0.6594067101
     47  H        -2.3719913943   -1.8396166865    1.3795418572
     48  H        -6.5330234024    3.0720633884   -1.8360556506
     49  H        -4.8749021969    3.6072137721   -2.3060681615
     50  H         3.6142306585   -4.7489256667   -0.5600105810
     51  H         4.6377166725   -4.0007902128   -1.8438803590
     52  H         2.8859663799   -3.5622210719   -1.7078350305
     53  H         0.0969519967    0.4949924332   -0.7601940185
     54  H        -0.1160138533    2.2392843668   -0.8282941810
     55  H         0.1751095677    0.9110429532    1.9151034668
     56  H        -0.8718424441    2.3052964184    1.5155324228
   Point Group: c1    Number of degrees of freedom:   162


   Energy is  -1510.209020617

              Constraints and their Current Values
                                        Value     Constraint
   Dihedral:        1   2   3   4     -142.161     -142.105
   Dihedral:        3   4   5   6      142.131      142.105
   Dihedral:        4   5   6   7      161.015      161.053
   Dihedral:        5   6   7   8      -66.315      -66.316
   Dihedral:        6   7   8   9     -142.091     -142.105
   Dihedral:        7   8   9  10      104.206      104.211
   Dihedral:        8   9  10  11     -161.024     -161.053
   Dihedral:        9  10  11  12     -179.999     -180.000
   Dihedral:       11  12  13  14       66.301       66.316
 Hessian Updated using BFGS Update

   Using Lagrange Multiplier Algorithm


159 Hessian modes will be used to form the next step
  Hessian Eigenvalues:
    -0.977753   -0.977753   -0.977753   -0.977753   -0.977753   -0.977753
    -0.977753   -0.977753   -0.977515    0.044999    0.045000    0.045098
     0.045346    0.045577    0.045609    0.046693    0.046916    0.048864
     0.048873    0.054041    0.059816    0.059938    0.062264    0.062633
     0.066939    0.067042    0.067827    0.067893    0.068904    0.070586
     0.071934    0.073919    0.074003    0.075638    0.075785    0.076941
     0.077304    0.082437    0.082568    0.083123    0.083259    0.084239
     0.084435    0.085205    0.085372    0.085521    0.085769    0.086675
     0.086905    0.088428    0.088701    0.089040    0.089290    0.089747
     0.089967    0.093781    0.093926    0.096641    0.096747    0.111580
     0.111671    0.114619    0.114675    0.115894    0.115926    0.116722
     0.117273    0.118204    0.119216    0.119304    0.123305    0.124651
     0.131252    0.131566    0.131770    0.139572    0.142601    0.159624
     0.161569    0.171001    0.172160    0.172329    0.173906    0.218993
     0.220670    0.226946    0.233624    0.239498    0.240576    0.243980
     0.247238    0.249673    0.253632    0.258518    0.261114    0.267005
     0.267417    0.278279    0.279553    0.282494    0.287946    0.295271
     0.297294    0.302100    0.308364    0.310605    0.312661    0.320151
     0.321794    0.321944    0.322113    0.322378    0.322758    0.323042
     0.323232    0.323290    0.323398    0.323661    0.324165    0.324279
     0.324292    0.324415    0.324431    0.324642    0.324691    0.324700
     0.324867    0.324904    0.324944    0.325637    0.326487    0.326717
     0.326792    0.330246    0.367986    0.369624    0.383561    0.400472
     0.402941    0.426067    0.475116    0.491700    0.519292    0.527127
     0.531385    0.538411    0.935622    0.938865    0.942406    0.994543
     1.022753    1.022753    1.022753    1.022753    1.022753    1.022753
     1.022753    1.022753    1.026128

 Minimum Search - Taking P-RFO Step
 Searching for Lamda that Maximizes Along the Constraint modes Only
 Value Taken    Lamda =   0.00002051
 Searching for Lamda that Minimizes Along All other modes
 Value Taken    Lamda =  -0.07758548
 Calculated Step too Large.  Step scaled by  0.626997
 Step Taken.  Stepsize is  0.300000

                             Maximum     Tolerance    Cnvgd?
         Gradient            0.066480       0.000300      NO
         Displacement        0.097340       0.001200      NO
         Energy change     -0.070614       0.000001      NO


 New Cartesian Coordinates Obtained by Inverse Iteration

 Displacement from previous Coordinates is:  0.584856
 Adding empirical dispersion correction 
 ----------------------------------------------------------------
 Doing -D3(op) with
 s6 =   1.00000
 s8 =   0.78311
 a1 =   0.30000
 a2 =   4.25000
 n  =  10.00000
 -D3 energy without 3body term =     -0.0641691001 hartrees
 ----------------------------------------------------------------
             Standard Nuclear Orientation (Angstroms)
    I     Atom           X                Y                Z
 ----------------------------------------------------------------
    1      O      -6.6006427732     1.3006881165     0.1116195700
    2      C      -5.5059741011     0.9799122925    -0.3993695095
    3      C      -4.9148421582    -0.4549139626    -0.4306223012
    4      C      -3.3641688828    -0.6255285552    -0.2355390561
    5      C      -2.5674405861     0.6535686508     0.1583606159
    6      O      -1.5583934007     0.3012836739     1.0807286772
    7      C      -0.5158720848     1.3261975726     1.1498822068
    8      C       0.2835801572     1.4333620988    -0.1891134784
    9      O       1.6977937742     1.6788711247     0.0808313424
   10      C       2.4821492636     0.5293283790    -0.1082215555
   11      C       3.8377857547     0.6821963558     0.6214920472
   12      C       4.7886563405    -0.5503654922     0.4719860268
   13      C       4.3995712146    -1.5348871471    -0.6638518657
   14      O       4.4185983609    -1.3012039813    -1.8889107262
   15      O      -4.8915175997     1.8009219842    -1.3513213553
   16      O       4.1005897251    -2.8015857412    -0.1441427533
   17      O       2.0589699833    -0.5122428821    -0.6503358794
   18      C       3.7503781227    -3.7827480327    -1.1336721301
   19      C       4.7624152633     1.8340246900     0.0622279342
   20      C       5.7488160330     2.2613442891     1.1993694464
   21      C       6.6692496541     1.0078290230     1.2753801817
   22      C       6.1244526858     0.1748614592     0.0625012082
   23      O       5.6522145000     1.1771185912    -0.8859028958
   24      H       3.6053040664     0.8956601610     1.6831956720
   25      H       4.8639570370    -1.1205204757     1.4172324632
   26      H       4.2024690315     2.6970774937    -0.3497894242
   27      H       6.3364211791     3.1158584607     0.8176170004
   28      H       5.2733951716     2.5547875712     2.1508542494
   29      H       7.7161550767     1.3123849013     1.1038554009
   30      H       6.5992527438     0.4376161976     2.2178119300
   31      H       6.8809823136    -0.5251279380    -0.3451267295
   32      O      -2.5544057787     1.7297991020    -0.4704382317
   33      C      -5.4751744046     3.1063054568    -1.4939434006
   34      C      -5.4677184472    -1.3556297472     0.7338453338
   35      C      -5.3884163679    -2.8527062051     0.2903355570
   36      C      -3.8533879084    -3.0863837585     0.3298800987
   37      C      -3.3602279915    -1.7123877689     0.9075933698
   38      O      -4.4474152030    -1.2709132763     1.7728426416
   39      H      -5.2243016510    -0.8706853899    -1.4104374082
   40      H      -2.8875702956    -0.9983679062    -1.1637576004
   41      H      -5.4280663831     3.6825642093    -0.5449214200
   42      H      -6.4901082268    -1.0791547491     1.0611536615
   43      H      -5.8680652504    -3.4597608078     1.0791430388
   44      H      -5.8734702376    -3.0753667591    -0.6754412755
   45      H      -3.6256516451    -3.9030167248     1.0367419582
   46      H      -3.3923740093    -3.3092007514    -0.6477670892
   47      H      -2.3820628123    -1.8299488066     1.4129927678
   48      H      -6.5368176115     3.0482264211    -1.8201065087
   49      H      -4.8899855013     3.6411397949    -2.2665839681
   50      H       3.5381452384    -4.7279159639    -0.5973893967
   51      H       4.5804445381    -3.9554001974    -1.8528448851
   52      H       2.8458048206    -3.4814147609    -1.7052488213
   53      H       0.1444959669     0.4843780359    -0.7549117076
   54      H      -0.1186590291     2.2360636048    -0.8410292486
   55      H       0.1797848594     0.9484399017     1.9293296893
   56      H      -0.8950683308     2.3142054081     1.4900499763
 ----------------------------------------------------------------
 Molecular Point Group                 C1    NOp =  1
 Largest Abelian Subgroup              C1    NOp =  1
 Nuclear Repulsion Energy =  3028.0058824972 hartrees
 There are      113 alpha and      113 beta electrons
 Applying Cartesian multipole field
    Component          Value
    ---------          -----
     (2,0,0)        1.00000E-12
     (0,2,0)        2.00000E-11
     (0,0,2)       -3.00000E-11
 Nucleus-field energy     =     0.0000000480 hartrees
 Requested basis set is STO-3G
 There are 86 shells and 176 basis functions
 A cutoff of  1.0D-12 yielded   2002 shell pairs
 There are      9340 function pairs
 Smallest overlap matrix eigenvalue = 2.07E-01
 Guess MOs from SCF MO coefficient file
 Reading MOs from coefficient file
 Reading MOs from coefficient file
 A restricted hybrid HF-DFT SCF calculation will be
 performed using Pulay DIIS extrapolation
 Exchange:     0.2000 Hartree-Fock + 0.0800 Slater + 0.7200 B88
 Correlation:  0.1900 VWN1RPA + 0.8100 LYP
 Using SG-1 standard quadrature grid
 Dispersion:   Grimme D3
 SCF converges when DIIS error is below 1.0E-08
 Geometry optimization detected.  Setting ReadMinima to 0
 Setting SaveMinima to 0
 using 48 threads for integral computing
 -------------------------------------------------------
 OpenMP Integral computing Module                
 Release: version 1.0, May 2013, Q-Chem Inc. Pittsburgh 
 -------------------------------------------------------
 -------------------------------------------------------
 OpenMP BLAS3 based DFT computing Module                
 Release: version 1.0, May 2013, Q-Chem Inc. Pittsburgh 
 -------------------------------------------------------
 ---------------------------------------
  Cycle       Energy         DIIS Error
 ---------------------------------------
    1   -1510.0991107124      2.74E-03
    2   -1510.2428532798      8.66E-04
    3   -1510.2376942402      1.40E-03
    4   -1510.2459668157      2.66E-04
    5   -1510.2462903126      5.17E-05
    6   -1510.2463025500      1.35E-05
    7   -1510.2463031997      7.91E-06
    8   -1510.2463034353      3.21E-06
    9   -1510.2463034837      5.15E-07
   10   -1510.2463034845      3.79E-07
   11   -1510.2463034849      1.14E-07
   12   -1510.2463034850      2.29E-08
   13   -1510.2463034851      1.04E-08
   14   -1510.2463034851      3.65E-09 Convergence criterion met
 ---------------------------------------
 SCF time:  CPU 96.68 s  wall 2.02 s
 SCF   energy in the final basis set = -1510.24630349
 Total energy in the final basis set = -1510.24630349
 
 --------------------------------------------------------------
 
                    Orbital Energies (a.u.)
 --------------------------------------------------------------
 
 Alpha MOs
 -- Occupied --
-18.945 -18.943 -18.933 -18.926 -18.896 -18.892 -18.882 -18.876
-18.861 -18.849 -10.111 -10.105 -10.098 -10.091 -10.081 -10.075
-10.065 -10.064 -10.064 -10.062 -10.059 -10.059 -10.042 -10.041
-10.038 -10.036 -10.019 -10.018 -10.016 -10.015  -1.032  -1.026
 -1.018  -1.011  -0.988  -0.986  -0.949  -0.943  -0.932  -0.924
 -0.771  -0.769  -0.734  -0.728  -0.721  -0.712  -0.699  -0.665
 -0.663  -0.628  -0.601  -0.586  -0.550  -0.548  -0.537  -0.534
 -0.520  -0.516  -0.490  -0.477  -0.470  -0.465  -0.459  -0.454
 -0.441  -0.439  -0.434  -0.414  -0.412  -0.410  -0.410  -0.404
 -0.400  -0.388  -0.376  -0.375  -0.370  -0.359  -0.355  -0.351
 -0.342  -0.341  -0.340  -0.337  -0.333  -0.331  -0.322  -0.318
 -0.311  -0.306  -0.304  -0.301  -0.294  -0.283  -0.282  -0.277
 -0.273  -0.257  -0.248  -0.240  -0.237  -0.236  -0.234  -0.197
 -0.175  -0.173  -0.169  -0.158  -0.151  -0.149  -0.144  -0.143
 -0.134
 -- Virtual --
  0.090   0.095   0.104   0.118   0.219   0.240   0.245   0.268
  0.281   0.287   0.297   0.303   0.317   0.330   0.335   0.341
  0.346   0.351   0.359   0.361   0.365   0.366   0.369   0.378
  0.387   0.388   0.395   0.401   0.401   0.405   0.414   0.415
  0.417   0.423   0.426   0.427   0.430   0.437   0.441   0.442
  0.444   0.448   0.450   0.455   0.457   0.460   0.462   0.468
  0.469   0.477   0.481   0.488   0.493   0.517   0.520   0.541
  0.550   0.553   0.555   0.636   0.641   0.653   0.674
 --------------------------------------------------------------
 
          Ground-State Mulliken Net Atomic Charges

     Atom                 Charge (a.u.)
  ----------------------------------------
      1 O                    -0.222875
      2 C                     0.213005
      3 C                    -0.079123
      4 C                    -0.076925
      5 C                     0.212325
      6 O                    -0.175224
      7 C                    -0.044929
      8 C                    -0.052792
      9 O                    -0.181618
     10 C                     0.220867
     11 C                    -0.079776
     12 C                    -0.080499
     13 C                     0.221001
     14 O                    -0.222179
     15 O                    -0.175549
     16 O                    -0.187241
     17 O                    -0.211505
     18 C                    -0.116182
     19 C                     0.030735
     20 C                    -0.143272
     21 C                    -0.145607
     22 C                     0.031946
     23 O                    -0.188401
     24 H                     0.086574
     25 H                     0.085107
     26 H                     0.087678
     27 H                     0.076819
     28 H                     0.073231
     29 H                     0.077222
     30 H                     0.073185
     31 H                     0.084370
     32 O                    -0.210740
     33 C                    -0.114381
     34 C                     0.028229
     35 C                    -0.144133
     36 C                    -0.145757
     37 C                     0.027536
     38 O                    -0.196284
     39 H                     0.086746
     40 H                     0.087696
     41 H                     0.087592
     42 H                     0.091501
     43 H                     0.076092
     44 H                     0.073129
     45 H                     0.075991
     46 H                     0.072134
     47 H                     0.091723
     48 H                     0.085846
     49 H                     0.093145
     50 H                     0.088267
     51 H                     0.085248
     52 H                     0.090315
     53 H                     0.099770
     54 H                     0.098070
     55 H                     0.089658
     56 H                     0.092235
  ----------------------------------------
  Sum of atomic charges =     0.000000

 -----------------------------------------------------------------
                    Cartesian Multipole Moments
 -----------------------------------------------------------------
    Charge (ESU x 10^10)
                 0.0000
    Dipole Moment (Debye)
         X       0.7849      Y      -0.6410      Z       1.1407
       Tot       1.5258
    Quadrupole Moments (Debye-Ang)
        XX    -164.5370     XY       3.5476     YY    -149.3845
        XZ      21.9562     YZ       3.3111     ZZ    -164.5034
    Octopole Moments (Debye-Ang^2)
       XXX      94.1515    XXY     -29.6141    XYY     -13.4789
       YYY      -0.7218    XXZ       2.7612    XYZ      16.9098
       YYZ     -17.4160    XZZ     -14.8097    YZZ       9.9056
       ZZZ      -6.6610
    Hexadecapole Moments (Debye-Ang^3)
      XXXX  -19092.1919   XXXY     -25.2620   XXYY   -3490.6199
      XYYY    -287.8500   YYYY   -3193.1542   XXXZ     505.5631
      XXYZ       8.3825   XYYZ     -37.0375   YYYZ      -2.3139
      XXZZ   -3405.5838   XYZZ     -81.0107   YYZZ    -689.3713
      XZZZ       4.0715   YZZZ      -7.2719   ZZZZ    -966.0976
 -----------------------------------------------------------------
 Calculating analytic gradient of the SCF energy
 Gradient of SCF Energy
            1           2           3           4           5           6
    1   0.0046365   0.0311295  -0.0040675   0.0032530  -0.0070127   0.0002756
    2  -0.0014078  -0.0033466  -0.0004681   0.0075723  -0.0000053   0.0115861
    3  -0.0179881   0.0061806   0.0100638  -0.0007052   0.0238000  -0.0154528
            7           8           9          10          11          12
    1  -0.0097656   0.0135255  -0.0028956   0.0015246   0.0003488  -0.0004589
    2  -0.0045629   0.0018605  -0.0244586   0.0208141  -0.0080141   0.0099716
    3  -0.0148612   0.0216752  -0.0079894  -0.0031464  -0.0035561  -0.0160270
           13          14          15          16          17          18
    1   0.0038974  -0.0033717  -0.0375252  -0.0021631   0.0032208   0.0054792
    2  -0.0076742  -0.0035289   0.0187121   0.0025724   0.0086170   0.0111803
    3   0.0237554   0.0099515   0.0181106  -0.0466515   0.0060034   0.0233427
           19          20          21          22          23          24
    1   0.0134649  -0.0050070  -0.0071860  -0.0140140  -0.0039059  -0.0004152
    2  -0.0185820  -0.0121635   0.0003078   0.0171144  -0.0035999   0.0028274
    3  -0.0116251  -0.0036765  -0.0056649  -0.0098608   0.0247274   0.0010152
           25          26          27          28          29          30
    1  -0.0016649  -0.0014583   0.0021649   0.0012254   0.0003833  -0.0000976
    2  -0.0016421   0.0038318  -0.0006172   0.0028966   0.0054133  -0.0032109
    3   0.0012435   0.0077267  -0.0042871   0.0019209  -0.0017675   0.0002792
           31          32          33          34          35          36
    1   0.0019448   0.0022052   0.0160589   0.0224836   0.0089863  -0.0038439
    2  -0.0041295  -0.0126683  -0.0205522   0.0021475   0.0101250   0.0090354
    3   0.0079622  -0.0035404  -0.0037234   0.0112948  -0.0017061   0.0022469
           37          38          39          40          41          42
    1  -0.0225462   0.0010514  -0.0022805   0.0009166   0.0014046  -0.0045659
    2   0.0113764  -0.0069111   0.0003356   0.0004128  -0.0007125  -0.0066202
    3   0.0067640  -0.0236507  -0.0009858  -0.0011414   0.0007902  -0.0063705
           43          44          45          46          47          48
    1   0.0018560  -0.0019155  -0.0043470   0.0023769   0.0030619   0.0002076
    2   0.0004667  -0.0025652  -0.0014454   0.0004752  -0.0087564  -0.0013057
    3   0.0045468  -0.0006313   0.0031811  -0.0011562  -0.0062273  -0.0011336
           49          50          51          52          53          54
    1  -0.0008972  -0.0005050   0.0013718  -0.0008652  -0.0060848  -0.0027535
    2   0.0018718  -0.0012843   0.0002384   0.0007972   0.0022907  -0.0041671
    3  -0.0003051  -0.0012764   0.0011376   0.0012326  -0.0024356  -0.0041047
           55          56
    1   0.0004252   0.0027339
    2  -0.0008794   0.0004289
    3  -0.0005603   0.0032565
 Max gradient component =       4.665E-02
 RMS gradient           =       1.003E-02
 Gradient time:  CPU 30.70 s  wall 0.65 s
 Geometry Optimization Parameters
   NAtoms,    NIC,     NZ,  NCons,   NDum,   NFix, NCnnct, MaxDiis
       56     458       0       9       0       0       0       0

 Cartesian Hessian Update
 Hessian Updated using BFGS Update


** CONSTRAINED OPTIMIZATION IN DELOCALIZED INTERNAL COORDINATES **
   Searching for a Minimum

   Optimization Cycle:   3

                       Coordinates (Angstroms)
     ATOM                X               Y               Z
      1  O        -6.6006427732    1.3006881165    0.1116195700
      2  C        -5.5059741011    0.9799122925   -0.3993695095
      3  C        -4.9148421582   -0.4549139626   -0.4306223012
      4  C        -3.3641688828   -0.6255285552   -0.2355390561
      5  C        -2.5674405861    0.6535686508    0.1583606159
      6  O        -1.5583934007    0.3012836739    1.0807286772
      7  C        -0.5158720848    1.3261975726    1.1498822068
      8  C         0.2835801572    1.4333620988   -0.1891134784
      9  O         1.6977937742    1.6788711247    0.0808313424
     10  C         2.4821492636    0.5293283790   -0.1082215555
     11  C         3.8377857547    0.6821963558    0.6214920472
     12  C         4.7886563405   -0.5503654922    0.4719860268
     13  C         4.3995712146   -1.5348871471   -0.6638518657
     14  O         4.4185983609   -1.3012039813   -1.8889107262
     15  O        -4.8915175997    1.8009219842   -1.3513213553
     16  O         4.1005897251   -2.8015857412   -0.1441427533
     17  O         2.0589699833   -0.5122428821   -0.6503358794
     18  C         3.7503781227   -3.7827480327   -1.1336721301
     19  C         4.7624152633    1.8340246900    0.0622279342
     20  C         5.7488160330    2.2613442891    1.1993694464
     21  C         6.6692496541    1.0078290230    1.2753801817
     22  C         6.1244526858    0.1748614592    0.0625012082
     23  O         5.6522145000    1.1771185912   -0.8859028958
     24  H         3.6053040664    0.8956601610    1.6831956720
     25  H         4.8639570370   -1.1205204757    1.4172324632
     26  H         4.2024690315    2.6970774937   -0.3497894242
     27  H         6.3364211791    3.1158584607    0.8176170004
     28  H         5.2733951716    2.5547875712    2.1508542494
     29  H         7.7161550767    1.3123849013    1.1038554009
     30  H         6.5992527438    0.4376161976    2.2178119300
     31  H         6.8809823136   -0.5251279380   -0.3451267295
     32  O        -2.5544057787    1.7297991020   -0.4704382317
     33  C        -5.4751744046    3.1063054568   -1.4939434006
     34  C        -5.4677184472   -1.3556297472    0.7338453338
     35  C        -5.3884163679   -2.8527062051    0.2903355570
     36  C        -3.8533879084   -3.0863837585    0.3298800987
     37  C        -3.3602279915   -1.7123877689    0.9075933698
     38  O        -4.4474152030   -1.2709132763    1.7728426416
     39  H        -5.2243016510   -0.8706853899   -1.4104374082
     40  H        -2.8875702956   -0.9983679062   -1.1637576004
     41  H        -5.4280663831    3.6825642093   -0.5449214200
     42  H        -6.4901082268   -1.0791547491    1.0611536615
     43  H        -5.8680652504   -3.4597608078    1.0791430388
     44  H        -5.8734702376   -3.0753667591   -0.6754412755
     45  H        -3.6256516451   -3.9030167248    1.0367419582
     46  H        -3.3923740093   -3.3092007514   -0.6477670892
     47  H        -2.3820628123   -1.8299488066    1.4129927678
     48  H        -6.5368176115    3.0482264211   -1.8201065087
     49  H        -4.8899855013    3.6411397949   -2.2665839681
     50  H         3.5381452384   -4.7279159639   -0.5973893967
     51  H         4.5804445381   -3.9554001974   -1.8528448851
     52  H         2.8458048206   -3.4814147609   -1.7052488213
     53  H         0.1444959669    0.4843780359   -0.7549117076
     54  H        -0.1186590291    2.2360636048   -0.8410292486
     55  H         0.1797848594    0.9484399017    1.9293296893
     56  H        -0.8950683308    2.3142054081    1.4900499763
   Point Group: c1    Number of degrees of freedom:   162


   Energy is  -1510.246303485

              Constraints and their Current Values
                                        Value     Constraint
   Dihedral:        1   2   3   4     -142.115     -142.105
   Dihedral:        3   4   5   6      142.112      142.105
   Dihedral:        4   5   6   7      161.042      161.053
   Dihedral:        5   6   7   8      -66.324      -66.316
   Dihedral:        6   7   8   9     -142.101     -142.105
   Dihedral:        7   8   9  10      104.211      104.211
   Dihedral:        8   9  10  11     -161.041     -161.053
   Dihedral:        9  10  11  12      179.994     -180.000
   Dihedral:       11  12  13  14       66.316       66.316
 Hessian Updated using BFGS Update

   Using Lagrange Multiplier Algorithm


162 Hessian modes will be used to form the next step
  Hessian Eigenvalues:
    -0.977754   -0.977753   -0.977753   -0.977753   -0.977753   -0.977753
    -0.977753   -0.977733   -0.977605    0.044991    0.045000    0.045003
     0.045087    0.045345    0.045577    0.045608    0.046790    0.047081
     0.048853    0.048872    0.054006    0.058953    0.059929    0.062181
     0.062630    0.066922    0.067035    0.067819    0.067869    0.068876
     0.070602    0.071934    0.073731    0.074008    0.075633    0.075771
     0.076900    0.077565    0.082441    0.082568    0.083141    0.083259
     0.084306    0.084453    0.085000    0.085373    0.085526    0.085631
     0.086736    0.086935    0.088473    0.088700    0.089046    0.089300
     0.089782    0.089975    0.093727    0.093834    0.096638    0.096732
     0.111575    0.111675    0.114619    0.114668    0.115894    0.115926
     0.116721    0.117275    0.118156    0.119209    0.119511    0.123300
     0.124633    0.131209    0.131564    0.131701    0.139583    0.142269
     0.159831    0.160003    0.161597    0.171154    0.172262    0.172893
     0.173965    0.218994    0.220644    0.229745    0.239226    0.240549
     0.243659    0.245268    0.247327    0.249747    0.253379    0.256647
     0.259025    0.264199    0.267020    0.267693    0.278342    0.279559
     0.282839    0.288536    0.295350    0.297509    0.302384    0.308424
     0.310522    0.312546    0.318491    0.321788    0.321943    0.322112
     0.322270    0.322733    0.322998    0.323218    0.323287    0.323382
     0.323538    0.324161    0.324258    0.324282    0.324367    0.324503
     0.324624    0.324691    0.324699    0.324867    0.324903    0.324944
     0.325637    0.326471    0.326755    0.326793    0.331247    0.367985
     0.369596    0.383541    0.386567    0.403986    0.407743    0.460306
     0.491620    0.514096    0.524348    0.531264    0.537039    0.935507
     0.939777    0.942402    1.005187    1.022753    1.022753    1.022753
     1.022753    1.022753    1.022753    1.022753    1.022839    1.025853

 Minimum Search - Taking P-RFO Step
 Searching for Lamda that Maximizes Along the Constraint modes Only
 Value Taken    Lamda =   0.00001378
 Searching for Lamda that Minimizes Along All other modes
 Value Taken    Lamda =  -0.03048562
 Calculated Step too Large.  Step scaled by  0.759980
 Step Taken.  Stepsize is  0.300000

                             Maximum     Tolerance    Cnvgd?
         Gradient            0.031232       0.000300      NO
         Displacement        0.065834       0.001200      NO
         Energy change     -0.037283       0.000001      NO


 New Cartesian Coordinates Obtained by Inverse Iteration

 Displacement from previous Coordinates is:  1.170941
 Adding empirical dispersion correction 
 ----------------------------------------------------------------
 Doing -D3(op) with
 s6 =   1.00000
 s8 =   0.78311
 a1 =   0.30000
 a2 =   4.25000
 n  =  10.00000
 -D3 energy without 3body term =     -0.0637875004 hartrees
 ----------------------------------------------------------------
             Standard Nuclear Orientation (Angstroms)
    I     Atom           X                Y                Z
 ----------------------------------------------------------------
    1      O      -6.7083145318     1.2630124817     0.0580213338
    2      C      -5.6004716126     0.9666916785    -0.4454798821
    3      C      -4.9496233831    -0.4591490577    -0.4412630976
    4      C      -3.3813617477    -0.6029501957    -0.2433487226
    5      C      -2.5706854627     0.6901387427     0.1420256145
    6      O      -1.5495426561     0.3215060138     1.0741752976
    7      C      -0.4880052879     1.3472965128     1.1376864502
    8      C       0.3229740453     1.4597985852    -0.2077500253
    9      O       1.7492514505     1.6993182722     0.0748022985
   10      C       2.5222329146     0.5193374483    -0.1257128489
   11      C       3.8807028799     0.6687063274     0.6230346701
   12      C       4.8298635883    -0.5777285275     0.4772171231
   13      C       4.4331853603    -1.5499631800    -0.6852118863
   14      O       4.4605432943    -1.3163323781    -1.9123032811
   15      O      -4.9707035505     1.7882708809    -1.4161103420
   16      O       4.1023234026    -2.8202383439    -0.1338472372
   17      O       2.0909407753    -0.5117588347    -0.6889109169
   18      C       3.7297768535    -3.7641347974    -1.1909533063
   19      C       4.8194948532     1.8317139879     0.0845113106
   20      C       5.7965502728     2.2367651014     1.2506811778
   21      C       6.7124743710     0.9663445071     1.3252574384
   22      C       6.1842307595     0.1456640793     0.0853595775
   23      O       5.7262041180     1.1718268477    -0.8707724752
   24      H       3.6346617734     0.8676903371     1.6829117465
   25      H       4.8950187981    -1.1572708247     1.4150924734
   26      H       4.2696371792     2.6900509427    -0.3483845766
   27      H       6.3943468785     3.0980528185     0.9074868502
   28      H       5.2966158198     2.5076152139     2.1944021960
   29      H       7.7671547963     1.2523112983     1.1833002830
   30      H       6.6154459140     0.3903454028     2.2598601099
   31      H       6.9352779760    -0.5460510682    -0.3434508722
   32      O      -2.5612650824     1.7934299684    -0.4436292539
[...]
     15  O        -4.7454702924    1.5484065242   -1.6685691428
     16  O         4.1180929410   -2.7466398980   -0.3326344568
     17  O         2.0762737508   -0.4436067460   -0.7533304963
     18  C         3.6666274298   -3.6068734850   -1.4499331689
     19  C         4.7686150892    1.9055177497    0.1931000181
     20  C         5.7455558172    2.2313460375    1.3897807695
     21  C         6.7230499713    1.0000909885    1.3154219585
     22  C         6.1888761339    0.2544657567    0.0280665993
     23  O         5.6740083076    1.3450162767   -0.8336870849
     24  H         3.6353741061    0.7485253620    1.7134297449
     25  H         4.9712129670   -1.1794014228    1.2883446717
     26  H         4.1974204222    2.7650987916   -0.2079149701
     27  H         6.2758493758    3.1790284614    1.2033116332
     28  H         5.2184756748    2.3036467998    2.3545642977
     29  H         7.7681213457    1.3178615456    1.1745422465
     30  H         6.6660131543    0.3613592832    2.2113468000
     31  H         6.9447253378   -0.3418735150   -0.5184514675
     32  O        -2.7371473573    1.7669447837   -0.0408189047
     33  C        -5.2767345452    2.8964588751   -1.9698127539
     34  C        -5.4758163446   -1.2234796870    0.9409096497
     35  C        -5.5791603911   -2.7590022429    0.5995833925
     36  C        -4.0528348395   -3.1231863737    0.4685768977
     37  C        -3.3642708092   -1.7817306257    0.9458233893
     38  O        -4.3394622831   -1.1823211836    1.8911256427
     39  H        -5.2698198201   -1.0612588142   -1.2534563228
     40  H        -2.9125338849   -1.0617202157   -1.1608832824
     41  H        -5.1110797431    3.5933786583   -1.1231961629
     42  H        -6.3789624367   -0.7569574963    1.3813857912
     43  H        -6.0522220962   -3.3053365945    1.4314654168
     44  H        -6.1491222661   -2.9519296427   -0.3234090686
     45  H        -3.7737366626   -3.9578941491    1.1305915761
     46  H        -3.7687649817   -3.3840262984   -0.5638786850
     47  H        -2.3769436886   -1.8989069806    1.4305151449
     48  H        -6.3619022458    2.8672904145   -2.1983614807
     49  H        -4.7180031455    3.2536348167   -2.8542242166
     50  H         3.4242727387   -4.5888637464   -1.0035769754
     51  H         4.4581736142   -3.7321781574   -2.2168585001
     52  H         2.7645958760   -3.1872479844   -1.9405652856
     53  H         0.2065227693    0.5253756501   -0.7087491104
     54  H        -0.1299360289    2.3080520209   -0.6082450372
     55  H         0.2166914070    0.8136376631    2.0509930283
     56  H        -0.9350824491    2.1462133966    1.6491029928
   Point Group: c1    Number of degrees of freedom:   162


   Energy is  -1510.269068456

              Constraints and their Current Values
                                        Value     Constraint
   Dihedral:        1   2   3   4     -142.105     -142.105
   Dihedral:        3   4   5   6      142.105      142.105
   Dihedral:        4   5   6   7      161.053      161.053
   Dihedral:        5   6   7   8      -66.316      -66.316
   Dihedral:        6   7   8   9     -142.105     -142.105
   Dihedral:        7   8   9  10      104.211      104.211
   Dihedral:        8   9  10  11     -161.053     -161.053
   Dihedral:        9  10  11  12      180.000     -180.000
   Dihedral:       11  12  13  14       66.316       66.316
 Hessian Updated using BFGS Update

153 Hessian modes will be used to form the next step
  Hessian Eigenvalues:
     0.002182    0.004048    0.014493    0.023185    0.044077    0.045017
     0.045032    0.045344    0.045818    0.046141    0.047238    0.048466
     0.048845    0.054187    0.058066    0.060344    0.062891    0.066297
     0.066606    0.067259    0.067718    0.068752    0.068959    0.071848
     0.072711    0.074419    0.075646    0.076040    0.077544    0.079386
     0.082420    0.082590    0.083094    0.083487    0.083853    0.084557
     0.084655    0.085580    0.085731    0.085908    0.087057    0.087622
     0.088889    0.088990    0.089333    0.089506    0.090343    0.090634
     0.093542    0.093880    0.096659    0.096766    0.111609    0.111651
     0.114630    0.114705    0.115883    0.115940    0.116653    0.117477
     0.118484    0.120813    0.122910    0.123137    0.125470    0.130934
     0.131950    0.132255    0.153765    0.157549    0.159985    0.160010
     0.160068    0.160133    0.160258    0.161642    0.171596    0.173774
     0.185531    0.197549    0.218681    0.221372    0.237738    0.239572
     0.240556    0.243646    0.246893    0.248949    0.249268    0.249995
     0.251908    0.252798    0.256672    0.261405    0.266277    0.266811
     0.275351    0.278120    0.281270    0.282474    0.294551    0.296415
     0.299185    0.301133    0.307888    0.308426    0.315108    0.321376
     0.321923    0.322001    0.322301    0.322569    0.322739    0.323010
     0.323204    0.323250    0.323542    0.323783    0.324166    0.324267
     0.324302    0.324408    0.324534    0.324680    0.324707    0.324826
     0.324916    0.324978    0.325092    0.326425    0.326788    0.326808
     0.328944    0.331658    0.337435    0.357904    0.368424    0.368860
     0.382219    0.392232    0.410899    0.438835    0.454522    0.489477
     0.494561    0.521246    0.531228    0.535524    0.597979    0.937561
     0.942123    0.944284    1.017683

 Minimum Search - Taking Simple RFO Step
 Searching for Lamda that Minimizes Along All modes
 Value Taken    Lamda =  -0.00000144
 Step Taken.  Stepsize is  0.008460

                             Maximum     Tolerance    Cnvgd?
         Gradient           0.000124      0.000300     YES
         Displacement       0.002636      0.001200      NO
         Energy change     -0.000001      0.000001     YES

 Final energy is   -1510.26906845626     


 ******************************
 **  OPTIMIZATION CONVERGED  **
 ******************************

                       Coordinates (Angstroms)
     ATOM                X               Y               Z
      1  O        -6.5254509656    1.4474222214   -0.1096158750
      2  C        -5.4807089067    0.9582260329   -0.5925845343
      3  C        -4.9351317059   -0.4952813187   -0.3626793351
      4  C        -3.3707425345   -0.7034863784   -0.2204868216
      5  C        -2.5719175001    0.5698210665    0.2723900288
      6  O        -1.5245562341    0.1391181330    1.1621541774
      7  C        -0.4916170641    1.1943163976    1.2870434440
      8  C         0.2835976259    1.4326190896   -0.0694740906
      9  O         1.7151087809    1.6953121169    0.2095693379
     10  C         2.5028845348    0.5364629438   -0.1024248266
     11  C         3.8750275735    0.6649717853    0.6370640024
     12  C         4.8638794519   -0.5452785250    0.3914702343
     13  C         4.4658712456   -1.4477828487   -0.8333497026
     14  O         4.4582479848   -1.1347180726   -2.0423876829
     15  O        -4.7454702924    1.5484065242   -1.6685691428
     16  O         4.1180929410   -2.7466398980   -0.3326344568
     17  O         2.0762737508   -0.4436067460   -0.7533304963
     18  C         3.6666274298   -3.6068734850   -1.4499331689
     19  C         4.7686150892    1.9055177497    0.1931000181
     20  C         5.7455558172    2.2313460375    1.3897807695
     21  C         6.7230499713    1.0000909885    1.3154219585
     22  C         6.1888761339    0.2544657567    0.0280665993
     23  O         5.6740083076    1.3450162767   -0.8336870849
     24  H         3.6353741061    0.7485253620    1.7134297449
     25  H         4.9712129670   -1.1794014228    1.2883446717
     26  H         4.1974204222    2.7650987916   -0.2079149701
     27  H         6.2758493758    3.1790284614    1.2033116332
     28  H         5.2184756748    2.3036467998    2.3545642977
     29  H         7.7681213457    1.3178615456    1.1745422465
     30  H         6.6660131543    0.3613592832    2.2113468000
     31  H         6.9447253378   -0.3418735150   -0.5184514675
     32  O        -2.7371473573    1.7669447837   -0.0408189047
     33  C        -5.2767345452    2.8964588751   -1.9698127539
     34  C        -5.4758163446   -1.2234796870    0.9409096497
     35  C        -5.5791603911   -2.7590022429    0.5995833925
     36  C        -4.0528348395   -3.1231863737    0.4685768977
     37  C        -3.3642708092   -1.7817306257    0.9458233893
     38  O        -4.3394622831   -1.1823211836    1.8911256427
     39  H        -5.2698198201   -1.0612588142   -1.2534563228
     40  H        -2.9125338849   -1.0617202157   -1.1608832824
     41  H        -5.1110797431    3.5933786583   -1.1231961629
     42  H        -6.3789624367   -0.7569574963    1.3813857912
     43  H        -6.0522220962   -3.3053365945    1.4314654168
     44  H        -6.1491222661   -2.9519296427   -0.3234090686
     45  H        -3.7737366626   -3.9578941491    1.1305915761
     46  H        -3.7687649817   -3.3840262984   -0.5638786850
     47  H        -2.3769436886   -1.8989069806    1.4305151449
     48  H        -6.3619022458    2.8672904145   -2.1983614807
     49  H        -4.7180031455    3.2536348167   -2.8542242166
     50  H         3.4242727387   -4.5888637464   -1.0035769754
     51  H         4.4581736142   -3.7321781574   -2.2168585001
     52  H         2.7645958760   -3.1872479844   -1.9405652856
     53  H         0.2065227693    0.5253756501   -0.7087491104
     54  H        -0.1299360289    2.3080520209   -0.6082450372
     55  H         0.2166914070    0.8136376631    2.0509930283
     56  H        -0.9350824491    2.1462133966    1.6491029928

Z-matrix Print:
$molecule
0 1
O 
C  1 1.440191
O  2 1.248401 1 122.549566
C  1 1.481892 2 110.244841 3 -17.174118 0
H  4 1.109160 1 104.998115 2 175.160705 0
H  4 1.110791 1 111.062840 2 57.563581 0
C  4 1.580470 1 112.143364 2 -66.316013 0
H  7 1.108001 4 110.696531 1 98.512231 0
H  7 1.112521 4 109.648880 1 -22.802420 0
O  7 1.481923 4 109.811218 1 -142.105007 0
C  10 1.435570 7 110.247042 4 104.210959 0
O  11 1.251484 10 123.927558 7 12.776004 0
C  11 1.564012 10 108.200873 7 -161.053000 0
H  13 1.105883 11 106.038337 10 58.448563 0
C  2 1.581885 1 108.603362 3 178.227127 0
H  15 1.105727 2 108.451815 1 -91.670589 0
C  13 1.582040 11 114.337664 10 180.000000 0
H  17 1.103638 13 111.973633 11 -108.502725 0
C  17 1.572612 13 113.686752 11 15.761283 0
O  19 1.248936 17 127.709243 13 66.315996 0
O  19 1.434815 17 108.002358 13 -114.608713 0
C  21 1.480601 19 109.664492 17 176.983160 0
H  22 1.105565 21 106.154872 19 179.480557 0
H  22 1.109243 21 111.702542 19 60.078825 0
H  22 1.109264 21 111.219416 19 -61.304696 0
C  15 1.584576 2 114.881651 1 142.104946 0
H  26 1.107172 15 107.666055 2 142.647084 0
C  26 1.569457 15 118.556536 2 24.442191 0
O  28 1.250623 26 126.590234 15 -142.105000 0
O  28 1.430605 26 108.275216 15 50.046760 0
C  30 1.479944 28 110.143805 26 176.932929 0
H  31 1.105414 30 106.005544 28 -175.669036 0
H  31 1.109008 30 111.309249 28 65.457474 0
H  31 1.109358 30 111.662202 28 -56.171293 0
C  26 1.588067 15 101.666738 2 -103.021642 0
H  35 1.107852 26 114.257187 15 146.136229 0
O  35 1.481859 26 104.628126 15 24.534922 0
C  37 1.484549 35 94.830540 26 -52.833985 0
H  38 1.106106 37 110.493466 35 -178.483363 0
C  35 1.576392 26 106.932142 15 -83.704819 0
H  40 1.101813 35 112.696842 26 -51.980034 0
H  40 1.101951 35 110.341825 26 -173.921509 0
C  40 1.574631 35 100.355440 26 68.518789 0
H  43 1.101316 40 111.772973 35 125.064489 0
H  43 1.102133 40 112.489498 35 -112.492539 0
C  17 1.589739 13 99.880980 11 131.412641 0
H  46 1.107073 17 114.262068 13 -160.179485 0
O  46 1.482231 17 102.328659 13 -41.001960 0
C  48 1.479253 46 95.038776 17 59.293068 0
H  49 1.107229 48 111.008780 46 -178.207129 0
C  49 1.578804 48 103.037415 46 57.348646 0
H  51 1.101748 49 112.411364 48 -158.767991 0
H  51 1.101855 49 110.305949 48 79.632153 0
C  51 1.573853 49 100.780899 48 -38.250960 0
H  54 1.101363 51 111.694934 49 121.771575 0
H  54 1.101777 51 112.517242 49 -115.665847 0
$end

 
 --------------------------------------------------------------
 
                    Orbital Energies (a.u.)
 --------------------------------------------------------------
 
 Alpha MOs
 -- Occupied --
-18.938 -18.934 -18.929 -18.924 -18.890 -18.890 -18.883 -18.882
-18.870 -18.862 -10.109 -10.103 -10.096 -10.090 -10.076 -10.071
-10.062 -10.060 -10.059 -10.056 -10.056 -10.056 -10.043 -10.041
-10.035 -10.035 -10.022 -10.021 -10.019 -10.018  -1.021  -1.015
 -1.005  -1.000  -0.971  -0.968  -0.946  -0.939  -0.930  -0.925
 -0.765  -0.762  -0.728  -0.723  -0.714  -0.705  -0.693  -0.658
 -0.657  -0.622  -0.598  -0.582  -0.547  -0.543  -0.539  -0.536
 -0.514  -0.510  -0.484  -0.471  -0.461  -0.457  -0.455  -0.450
 -0.435  -0.434  -0.430  -0.411  -0.406  -0.404  -0.404  -0.402
 -0.395  -0.386  -0.370  -0.369  -0.364  -0.355  -0.352  -0.348
 -0.341  -0.337  -0.335  -0.333  -0.332  -0.327  -0.322  -0.317
 -0.311  -0.308  -0.305  -0.302  -0.297  -0.283  -0.280  -0.276
 -0.273  -0.258  -0.251  -0.247  -0.245  -0.235  -0.232  -0.194
 -0.177  -0.171  -0.170  -0.162  -0.151  -0.148  -0.147  -0.142
 -0.140
 -- Virtual --
  0.087   0.095   0.104   0.111   0.210   0.239   0.240   0.253
  0.266   0.270   0.281   0.286   0.300   0.317   0.326   0.329
  0.335   0.338   0.341   0.348   0.352   0.353   0.361   0.368
  0.375   0.381   0.385   0.389   0.401   0.404   0.404   0.412
  0.415   0.419   0.419   0.427   0.429   0.431   0.432   0.436
  0.437   0.439   0.442   0.443   0.443   0.448   0.449   0.452
  0.465   0.469   0.485   0.485   0.491   0.505   0.509   0.537
  0.538   0.550   0.557   0.630   0.633   0.649   0.664
 --------------------------------------------------------------
 
          Ground-State Mulliken Net Atomic Charges

     Atom                 Charge (a.u.)
  ----------------------------------------
      1 O                    -0.215391
      2 C                     0.210912
      3 C                    -0.080856
      4 C                    -0.074652
      5 C                     0.211065
      6 O                    -0.173077
      7 C                    -0.050172
      8 C                    -0.059256
      9 O                    -0.175597
     10 C                     0.213971
     11 C                    -0.078227
     12 C                    -0.080577
     13 C                     0.212975
     14 O                    -0.212708
     15 O                    -0.165095
     16 O                    -0.172691
     17 O                    -0.205830
     18 C                    -0.128548
     19 C                     0.026051
     20 C                    -0.142414
     21 C                    -0.145258
     22 C                     0.026248
     23 O                    -0.184735
     24 H                     0.085582
     25 H                     0.085259
     26 H                     0.088313
     27 H                     0.078732
     28 H                     0.073365
     29 H                     0.078474
     30 H                     0.073575
     31 H                     0.084060
     32 O                    -0.207668
     33 C                    -0.126349
     34 C                     0.022228
     35 C                    -0.141755
     36 C                    -0.146108
     37 C                     0.021806
     38 O                    -0.192669
     39 H                     0.083454
     40 H                     0.087136
     41 H                     0.090653
     42 H                     0.090069
     43 H                     0.077828
     44 H                     0.072897
     45 H                     0.077929
     46 H                     0.072666
     47 H                     0.093366
     48 H                     0.087871
     49 H                     0.089697
     50 H                     0.086758
     51 H                     0.086811
     52 H                     0.091901
     53 H                     0.100801
     54 H                     0.094659
     55 H                     0.089710
     56 H                     0.092809
  ----------------------------------------
  Sum of atomic charges =     0.000000

 -----------------------------------------------------------------
                    Cartesian Multipole Moments
 -----------------------------------------------------------------
    Charge (ESU x 10^10)
                 0.0000
    Dipole Moment (Debye)
         X       0.7936      Y      -1.1257      Z       0.8594
       Tot       1.6235
    Quadrupole Moments (Debye-Ang)
        XX    -163.0063     XY       5.0846     YY    -151.4528
        XZ      21.7514     YZ       2.6940     ZZ    -163.1230
    Octopole Moments (Debye-Ang^2)
       XXX      81.5558    XXY     -45.7003    XYY     -13.5185
       YYY      -5.0280    XXZ       9.6905    XYZ      25.3811
       YYZ     -21.7957    XZZ     -17.8249    YZZ       8.9381
       ZZZ      -9.4098
    Hexadecapole Moments (Debye-Ang^3)
      XXXX  -19042.3971   XXXY     -70.8354   XXYY   -3553.2626
      XYYY    -342.3724   YYYY   -3058.3617   XXXZ     466.5811
      XXYZ      19.5050   XYYZ     -19.6289   YYYZ       3.5868
      XXZZ   -3410.5478   XYZZ    -145.8953   YYZZ    -686.5341
      XZZZ      31.5782   YZZZ      -6.1959   ZZZZ   -1204.3524
 -----------------------------------------------------------------
Archival summary:
1\1\vega02.cac.cornell.edu\OPT\ProcedureUnspecified\STO-3G\102026\jj585\SunJan1408:19:262018SunJan1408:19:262018\0\\#,OPT,ProcedureUnspecified,STO-3G,\\0,1\O\C,1,1.44019\O,2,1.2484,1,122.55\C,1,1.48189,2,110.245,3,-17.1741,0\H,4,1.10916,1,104.998,2,175.161,0\H,4,1.11079,1,111.063,2,57.5636,0\C,4,1.58047,1,112.143,2,-66.316,0\H,7,1.108,4,110.697,1,98.5122,0\H,7,1.11252,4,109.649,1,-22.8024,0\O,7,1.48192,4,109.811,1,-142.105,0\C,10,1.43557,7,110.247,4,104.211,0\O,11,1.25148,10,123.928,7,12.776,0\C,11,1.56401,10,108.201,7,-161.053,0\H,13,1.10588,11,106.038,10,58.4486,0\C,2,1.58189,1,108.603,3,178.227,0\H,15,1.10573,2,108.452,1,-91.6706,0\C,13,1.58204,11,114.338,10,180,0\H,17,1.10364,13,111.974,11,-108.503,0\C,17,1.57261,13,113.687,11,15.7613,0\O,19,1.24894,17,127.709,13,66.316,0\O,19,1.43482,17,108.002,13,-114.609,0\C,21,1.4806,19,109.664,17,176.983,0\H,22,1.10557,21,106.155,19,179.481,0\H,22,1.10924,21,111.703,19,60.0788,0\H,22,1.10926,21,111.219,19,-61.3047,0\C,15,1.58458,2,114.882,1,142.105,0\H,26,1.10717,15,107.666,2,142.647,0\C,26,1.56946,15,118.557,2,24.4422,0\O,28,1.25062,26,126.59,15,-142.105,0\O,28,1.43061,26,108.275,15,50.0468,0\C,30,1.47994,28,110.144,26,176.933,0\H,31,1.10541,30,106.006,28,-175.669,0\H,31,1.10901,30,111.309,28,65.4575,0\H,31,1.10936,30,111.662,28,-56.1713,0\C,26,1.58807,15,101.667,2,-103.022,0\H,35,1.10785,26,114.257,15,146.136,0\O,35,1.48186,26,104.628,15,24.5349,0\C,37,1.48455,35,94.8305,26,-52.834,0\H,38,1.10611,37,110.493,35,-178.483,0\C,35,1.57639,26,106.932,15,-83.7048,0\H,40,1.10181,35,112.697,26,-51.98,0\H,40,1.10195,35,110.342,26,-173.922,0\C,40,1.57463,35,100.355,26,68.5188,0\H,43,1.10132,40,111.773,35,125.064,0\H,43,1.10213,40,112.489,35,-112.493,0\C,17,1.58974,13,99.881,11,131.413,0\H,46,1.10707,17,114.262,13,-160.179,0\O,46,1.48223,17,102.329,13,-41.002,0\C,48,1.47925,46,95.0388,17,59.2931,0\H,49,1.10723,48,111.009,46,-178.207,0\C,49,1.5788,48,103.037,46,57.3486,0\H,51,1.10175,49,112.411,48,-158.768,0\H,51,1.10185,49,110.306,48,79.6322,0\C,51,1.57385,49,100.781,48,-38.251,0\H,54,1.10136,51,111.695,49,121.772,0\H,54,1.10178,51,112.517,49,-115.666,0\\\@

 Total job time:  56.44s(wall), 2682.88s(cpu) 
 Sun Jan 14 08:19:26 2018

        *************************************************************
        *                                                           *
        *  Thank you very much for using Q-Chem.  Have a nice day.  *
        *                                                           *
        *************************************************************


0 sent ACK to 0 
now end server 0 ... 
