mFile = /opt/software/qchem/qchem-5.0.1//bin/mpi/machines
Process 0 of 1 is on vega02.cac.cornell.edu - thread support 0
initial socket setup ...start
initial socket setup ...done 
now start server 0 ... 
vega02.cac.cornell.edu 10.84.3
Q-Chem Developer Version! Running on 10.84.3.*
                  Welcome to Q-Chem
     A Quantum Leap Into The Future Of Chemistry


 Q-Chem 5.0, Q-Chem, Inc., Pleasanton, CA (2017)

 Yihan Shao,  Zhengting Gan,  E. Epifanovsky,  A. T. B. Gilbert,  M. Wormit,  
 J. Kussmann,  A. W. Lange,  A. Behn,  Jia Deng,  Xintian Feng,  D. Ghosh,  
 M. Goldey,  P. R. Horn,  L. D. Jacobson,  I. Kaliman,  T. Kus,  A. Landau,  
 Jie Liu,  E. I. Proynov,  R. M. Richard,  R. P. Steele,  E. J. Sundstrom,  
 H. L. Woodcock III,  P. M. Zimmerman,  D. Zuev,  B. Albrecht,  E. Alguire,  
 S. A. Baeppler,  Z. Benda,  Y. A. Bernard,  E. J. Berquist,  K. B. Bravaya,  
 D. Casanova,  Chun-Min Chang,  Yunqing Chen,  A. Chien,  K. D. Closser,  
 M. P. Coons,  S. Dasgupta,  M. Diedenhofen,  Hainam Do,  R. G. Edgar,  
 Po-Tung Fang,  S. Fatehi,  Qingguo Feng,  Qinghui Ge,  A. Ghysels,  
 J. Gomes,  J. Gonthier,  A. Gunina,  M. W. D. Hanson-Heine,  
 P. H. P. Harbach,  A. W. Hauser,  J. E. Herr,  E. G. Hohenstein,  
 Z. C. Holden,  Kerwin Hui,  T.-C. Jagau,  Hyunjun Ji,  B. Kaduk,  
 K. Khistyaev,  Jaehoon Kim,  P. Klunzinger,  K. Koh,  D. Kosenkov,  
 T. Kowalczyk,  C. M. Krauter,  A. Kunitsa,  Ka Un Lao,  A. Laurent,  
 K. V. Lawler,  Joonho Lee,  D. Lefrancois,  S. Lehtola,  D. S. Levine,  
 Yi-Pei Li,  You-Sheng Lin,  Fenglai Liu,  E. Livshits,  A. Luenser,  
 P. Manohar,  E. Mansoor,  S. F. Manzer,  Shan-Ping Mao,  Yuezhi Mao,  
 N. Mardirossian,  A. V. Marenich,  L. A. Martinez-Martinez,  S. A. Maurer,  
 N. J. Mayhall,  S. C. McKenzie,  J.-M. Mewes,  A. F. Morrison,  K. Nanda,  
 T. S. Nguyen-Beck,  R. Olivares-Amaya,  J. A. Parkhill,  T. M. Perrine,  
 F. Plasser,  S. Prager,  A. Prociuk,  D. R. Rehn,  F. Rob,  M. Schneider,  
 N. Sergueev,  S. M. Sharada,  S. Sharma,  D. W. Small,  T. Stauch,  
 T. Stein,  Yu-Chuan Su,  A. J. W. Thom,  T. Tsuchimochi,  L. Vogt,  
 O. Vydrov,  M. A. Watson,  J. Wenzel,  M. de Wergifosse,  T. A. Wesolowski,  
 A. White,  J. Witte,  A. Yamada,  Jun Yang,  K. Yao,  S. Yeganeh,  
 S. R. Yost,  Zhi-Qiang You,  A. Zech,  Igor Ying Zhang,  Xing Zhang,  
 Yan Zhao,  Ying Zhu,  B. R. Brooks,  G. K. L. Chan,  C. J. Cramer,  
 M. S. Gordon,  W. J. Hehre,  A. Klamt,  M. W. Schmidt,  C. D. Sherrill,  
 D. G. Truhlar,  A. Aspuru-Guzik,  R. Baer,  A. T. Bell,  N. A. Besley,  
 Jeng-Da Chai,  A. Dreuw,  B. D. Dunietz,  T. R. Furlani,  Chao-Ping Hsu,  
 Yousung Jung,  Jing Kong,  D. S. Lambrecht,  WanZhen Liang,  C. Ochsenfeld,  
 V. A. Rassolov,  L. V. Slipchenko,  J. E. Subotnik,  T. Van Voorhis,  
 J. M. Herbert,  A. I. Krylov,  P. M. W. Gill,  M. Head-Gordon

 Contributors to earlier versions of Q-Chem not listed above: 
 R. D. Adamson,  B. Austin,  J. Baker,  G. J. O. Beran,  K. Brandhorst,  
 S. T. Brown,  E. F. C. Byrd,  A. K. Chakraborty,  C.-L. Cheng,  
 Siu Hung Chien,  D. M. Chipman,  D. L. Crittenden,  H. Dachsel,  
 R. A. DiStasio Jr.,  R. J. Doerksen,  A. D. Dutoi,  L. Fusti-Molnar,  
 W. A. Goddard III,  A. Golubeva-Zadorozhnaya,  S. R. Gwaltney,  G. Hawkins,  
 A. Heyden,  S. Hirata,  G. Kedziora,  F. J. Keil,  C. Kelley,  Jihan Kim,  
 R. A. King,  R. Z. Khaliullin,  P. P. Korambath,  W. Kurlancheek,  
 A. M. Lee,  M. S. Lee,  S. V. Levchenko,  Ching Yeh Lin,  D. Liotard,  
 R. C. Lochan,  I. Lotan,  P. E. Maslen,  N. Nair,  D. P. O'Neill,  
 D. Neuhauser,  E. Neuscamman,  C. M. Oana,  R. Olson,  B. Peters,  
 R. Peverati,  P. A. Pieniazek,  Y. M. Rhee,  J. Ritchie,  M. A. Rohrdanz,  
 E. Rosta,  N. J. Russ,  H. F. Schaefer III,  N. E. Schultz,  N. Shenvi,  
 A. C. Simmonett,  A. Sodt,  D. Stuck,  K. S. Thanthiriwatte,  V. Vanovschi,  
 Tao Wang,  A. Warshel,  C. F. Williams,  Q. Wu,  X. Xu,  W. Zhang

 Please cite Q-Chem as follows:
 Y. Shao et al., Mol. Phys. 113, 184-215 (2015)
 DOI: 10.1080/00268976.2014.952696

 Q-Chem 5.0.1 for Intel X86 EM64T Linux

 Parts of Q-Chem use Armadillo 5.200.1 (Boston Tea Smuggler).
 http://arma.sourceforge.net/

 Q-Chem begins on Sun Jan 14 10:29:02 2018  

Host: vega02.cac.cornell.edu
0

     Scratch files written to /scratch/jj585/SOT1001/0396c.save//
 Parallel job on  1  processors

Checking the input file for inconsistencies... 	...done.

--------------------------------------------------------------
User input:
--------------------------------------------------------------
$molecule
0  1
O -3.94934 -3.66094 2.70899
C -3.26408 -4.56952 2.26188
C -3.36658 -6.02376 2.66595
C -2.81032 -6.4104 4.04614
C -2.37514 -5.27123 4.94114
O -3.44978 -4.78625 5.6306
C -3.1289 -3.66021 6.4542
C -4.23147 -3.42992 7.48251
O -3.70355 -2.72368 8.61627
C -3.40615 -1.41784 8.40305
C -1.92355 -1.16749 8.262
C -1.47115 0.25699 8.61479
C -2.47259 1.09761 9.38108
O -3.1721 1.97854 8.90233
O -2.41966 -4.29782 1.23184
O -2.7338 0.70863 10.65937
O -4.20781 -0.68396 7.84008
C -3.6675 1.30245 11.48253
C -1.00488 -1.97589 9.21324
C 0.38544 -2.10084 8.59013
C 0.88244 -0.67306 8.71415
C -0.26635 -0.05201 9.51797
O -0.75211 -1.11773 10.29898
H -1.65075 -1.42125 7.21545
H -1.21572 0.83057 7.69609
H -1.39044 -2.98533 9.47064
H 0.98525 -2.74469 9.27315
H 0.42085 -2.52917 7.56523
H 1.82659 -0.67987 9.30253
H 1.03439 -0.13803 7.75163
H 0.07796 0.84708 10.07515
O -1.31488 -4.67381 4.79838
C -2.22567 -3.04189 0.69589
C -4.81723 -6.52141 2.76675
C -4.86207 -8.03841 2.58739
C -4.2589 -8.49535 3.89954
C -4.05851 -7.14655 4.59952
O -5.13201 -6.36598 4.12755
H -2.8267 -6.60038 1.87995
H -1.95275 -7.11782 3.99855
H -1.83593 -2.35064 1.47356
H -5.49927 -6.02419 2.04261
H -5.93326 -8.34184 2.56509
H -4.35378 -8.41519 1.6738
H -5.02108 -9.09573 4.44469
H -3.31307 -9.07266 3.8143
H -4.00526 -7.29401 5.70091
H -3.18072 -2.64795 0.28714
H -1.48515 -3.10803 -0.12736
H -3.66671 0.78643 12.46442
H -4.68093 1.21842 11.03512
H -3.41268 2.37231 11.63984
H -5.14083 -2.96133 7.0463
H -4.52574 -4.42929 7.86917
H -2.91863 -2.75196 5.8495
H -2.22456 -3.92526 7.05274
$end

$opt
CONSTRAINT
tors           1           2           3           4     -73.743
tors           3           4           5           6     +85.075
tors           4           5           6           7    -177.174
tors           5           6           7           8    -163.428
tors           6           7           8           9    +155.943
tors           7           8           9          10     +71.761
tors           8           9          10          11    -103.997
tors           9          10          11          12    -155.087
tors          11          12          13          14    -102.371
ENDCONSTRAINT
$end

$rem
JOBTYPE                   OPT
METHOD                    B3LYP
DFT_D                     d3_op
BASIS                     STO-3G
GEOM_OPT_MAX_CYCLES       100
GEOM_OPT_TOL_GRADIENT     300
GEOM_OPT_TOL_DISPLACEMENT 1200
GEOM_OPT_TOL_ENERGY       100
SYMMETRY                  False
THRESH                    12
SCF_CONVERGENCE           8
MAX_SUB_FILE_NUM          128
MEM_STATIC                400
MEM_TOTAL                 4000
$end
--------------------------------------------------------------
 Adding empirical dispersion correction 
 ----------------------------------------------------------------
 Doing -D3(op) with
 s6 =   1.00000
 s8 =   0.78311
 a1 =   0.30000
 a2 =   4.25000
 n  =  10.00000
 -D3 energy without 3body term =     -0.0674347891 hartrees
 ----------------------------------------------------------------
             Standard Nuclear Orientation (Angstroms)
    I     Atom           X                Y                Z
 ----------------------------------------------------------------
    1      O      -3.1993107355     1.1803832688     1.7379867058
    2      C      -3.9969445526     1.4466489344     0.8503555182
    3      C      -4.6941739558     0.4351378148    -0.0324293972
    4      C      -3.8510326953    -0.2443229093    -1.1238899107
    5      C      -2.3639344837     0.0311978627    -1.0966477622
    6      O      -1.7478293863    -0.8318224427    -0.2358212507
    7      C      -0.3426760249    -0.5908648527    -0.1064748669
    8      C       0.3427088729    -1.8010355891     0.5195042665
    9      O       1.7310724512    -1.8215203008     0.1521990085
   10      C       2.5040413168    -0.8755207700     0.7410382519
   11      C       2.8508601587     0.2631097025    -0.1884295114
   12      C       4.1404273966     1.0179921376     0.1657436985
   13      C       5.0628277962     0.3253235304     1.1486537277
   14      O       5.1717901478     0.6022353185     2.3344026619
   15      O      -4.3981040781     2.7373476192     0.7053852856
   16      O       5.6756262548    -0.8068736626     0.7057440370
   17      O       2.4348815692    -0.6821959880     1.9476932518
   18      C       6.4874353934    -1.6105437690     1.4784603825
   19      C       3.1725318289    -0.1296790258    -1.6528635379
   20      C       2.9041611793     1.0646248499    -2.5685511069
   21      C       4.0394596831     1.9888475151    -2.1712408237
   22      C       4.8146047575     1.0749011552    -1.2144752704
   23      O       4.5752340301    -0.2206308342    -1.7104561525
   24      H       1.9790330403     0.9515434848    -0.1959980689
   25      H       3.9088076359     2.0158400803     0.6003699300
   26      H       2.6121836733    -1.0153413954    -2.0209565953
   27      H       3.0815206798     0.7144586197    -3.6110281559
   28      H       1.8865097360     1.5065524011    -2.5035430578
   29      H       4.6385220750     2.2196982659    -3.0798049681
   30      H       3.7308962317     2.9298482976    -1.6661697618
   31      H       5.8808862285     1.3840066447    -1.1447660361
   32      O      -1.8673076148     1.0725346361    -1.5094695387
   33      C      -3.9107278795     3.7914119706     1.4494601956
   34      C      -5.2287399595    -0.7779176828     0.7453476484
   35      C      -6.3774856305    -1.4270899914    -0.0256441365
   36      C      -5.6213351178    -2.0693638468    -1.1702255149
   37      C      -4.1797588887    -1.7213727348    -0.7827338969
   38      O      -4.2038426089    -1.7320126601     0.6257242041
   39      H      -5.5425525266     0.9768498230    -0.5105077793
   40      H      -4.1938271937    -0.0168749744    -2.1577629871
   41      H      -2.8153451430     3.8943264763     1.2944127056
   42      H      -5.5490822065    -0.5249373798     1.7798363340
   43      H      -6.7992851028    -2.2329161561     0.6168077828
   44      H      -7.1906868106    -0.7310767279    -0.3243713671
   45      H      -5.7731808030    -3.1705111349    -1.1156310375
   46      H      -5.8878025277    -1.7007878979    -2.1842738234
   47      H      -3.4738128111    -2.4315630581    -1.2674088255
   48      H      -4.1243708604     3.6304309522     2.5278050277
   49      H      -4.4076658343     4.7278183742     1.1228401580
   50      H       6.8516521561    -2.4582110441     0.8626750489
   51      H       5.9163139964    -2.0147818091     2.3414140722
   52      H       7.3622098038    -1.0312412306     1.8437799522
   53      H       0.1676940365    -1.8805777996     1.6148737045
   54      H      -0.1003886884    -2.7034087084     0.0459765585
   55      H      -0.1334644148     0.3479914097     0.4499180214
   56      H       0.0840602220    -0.5156009566    -1.1353402571
 ----------------------------------------------------------------
 Molecular Point Group                 C1    NOp =  1
 Largest Abelian Subgroup              C1    NOp =  1
 Nuclear Repulsion Energy =  3141.2590203607 hartrees
 There are      113 alpha and      113 beta electrons
 Requested basis set is STO-3G
 There are 86 shells and 176 basis functions

 Total QAlloc Memory Limit   4000 MB
 Mega-Array Size       392 MB
 MEM_STATIC part       400 MB
 A cutoff of  1.0D-12 yielded   2109 shell pairs
 There are      9837 function pairs
 
 -------------------------------------------------------
 OpenMP Integral Computing Module                       
 Release: version 1.0, May 2013, Q-Chem Inc. Pittsburgh 
 -------------------------------------------------------
 Integral Job Info:
 Integral job number is                      11
 Integral operator is                         1
 short-range coefficients                     0
 long-range coefficients              100000000
 Omega coefficients                           0
 if combine SR and LR in K                    0
 Integral screening is                        0
 Integral computing path is                   2
 max size of driver memory is            800000
 size of driver memory is                 45569
 size of scratch memory is              1046100
 max col of scratch BK array                289
 max len of scratch array in speh3           22
 max len of scratch index in speh4            8
 max int batch size is                      520
 min int batch size is                       52
 fixed nKL is                                52
 max L of basis functions is                  1
 order of int derivative is                   0
 number of shells is                         86
 number of basis is                         176
 number of cartesian basis is               176
 number of contracted shell pairs          2109
 number of primitive shell pairs          11008
 maxK2 (contraction) of shell pair            9
 max number of K2 of shell pair               1
 max number of CS2 of shell pair            310
 max number of PS2 of shell pair           1230
 mem total for path MDJ                   50314
 -------------------------------------------------------
 Smallest overlap matrix eigenvalue = 1.94E-01

 Scale SEOQF with 1.000000e-02/1.000000e-01/1.000000e-01

 Standard Electronic Orientation quadrupole field applied
 Nucleus-field energy     =     0.0000000082 hartrees
 Guess from superposition of atomic densities
 Warning:  Energy on first SCF cycle will be non-variational
 A restricted hybrid HF-DFT SCF calculation will be
 performed using Pulay DIIS extrapolation
 Exchange:     0.2000 Hartree-Fock + 0.0800 Slater + 0.7200 B88
 Correlation:  0.1900 VWN1RPA + 0.8100 LYP
 Using SG-1 standard quadrature grid
 Dispersion:   Grimme D3
 SCF converges when DIIS error is below 1.0E-08
 using 48 threads for integral computing
 -------------------------------------------------------
 OpenMP Integral computing Module                
 Release: version 1.0, May 2013, Q-Chem Inc. Pittsburgh 
 -------------------------------------------------------
 -------------------------------------------------------
 OpenMP BLAS3 based DFT computing Module                
 Release: version 1.0, May 2013, Q-Chem Inc. Pittsburgh 
 -------------------------------------------------------
 ---------------------------------------
  Cycle       Energy         DIIS Error
 ---------------------------------------
    1   -1509.4486041013      8.29E-02
    2   -1509.5564427175      1.06E-02
    3   -1507.4938510566      2.55E-02
    4   -1510.0577613381      3.67E-03
    5   -1510.1107585084      1.30E-03
    6   -1510.1175408708      4.32E-04
    7   -1510.1182840928      1.41E-04
    8   -1510.1183671195      3.26E-05
    9   -1510.1183714127      1.11E-05
   10   -1510.1183718746      4.41E-06
   11   -1510.1183719614      9.63E-07
   12   -1510.1183719654      2.94E-07
   13   -1510.1183719657      1.72E-07
   14   -1510.1183719659      3.56E-08
   15   -1510.1183719658      7.61E-09 Convergence criterion met
 ---------------------------------------
 SCF time:  CPU 111.28 s  wall 2.38 s
 SCF   energy in the final basis set = -1510.11837197
 Total energy in the final basis set = -1510.11837197
 
 --------------------------------------------------------------
 
                    Orbital Energies (a.u.)
 --------------------------------------------------------------
 
 Alpha MOs
 -- Occupied --
-18.953 -18.932 -18.921 -18.921 -18.900 -18.897 -18.886 -18.873
-18.855 -18.849 -10.119 -10.115 -10.111 -10.102 -10.087 -10.086
-10.082 -10.074 -10.072 -10.068 -10.067 -10.064 -10.043 -10.040
-10.040 -10.038 -10.019 -10.018 -10.015 -10.014  -1.052  -1.047
 -1.043  -1.036  -1.024  -1.020  -0.961  -0.955  -0.946  -0.937
 -0.785  -0.782  -0.749  -0.741  -0.737  -0.725  -0.716  -0.683
 -0.672  -0.634  -0.611  -0.591  -0.558  -0.552  -0.539  -0.536
 -0.531  -0.525  -0.509  -0.495  -0.490  -0.482  -0.464  -0.450
 -0.450  -0.448  -0.442  -0.430  -0.425  -0.423  -0.420  -0.416
 -0.409  -0.402  -0.393  -0.388  -0.384  -0.371  -0.367  -0.357
 -0.355  -0.350  -0.345  -0.340  -0.334  -0.327  -0.326  -0.317
 -0.313  -0.312  -0.307  -0.303  -0.297  -0.291  -0.290  -0.285
 -0.282  -0.255  -0.238  -0.237  -0.228  -0.226  -0.217  -0.190
 -0.175  -0.173  -0.165  -0.158  -0.156  -0.152  -0.147  -0.140
 -0.132
 -- Virtual --
  0.069   0.095   0.116   0.120   0.234   0.240   0.254   0.283
  0.287   0.317   0.334   0.336   0.339   0.342   0.353   0.356
  0.364   0.368   0.373   0.379   0.384   0.388   0.394   0.399
  0.404   0.405   0.407   0.410   0.415   0.418   0.423   0.426
  0.427   0.434   0.436   0.439   0.447   0.451   0.453   0.454
  0.458   0.461   0.466   0.477   0.479   0.480   0.482   0.484
  0.493   0.496   0.508   0.516   0.527   0.541   0.544   0.558
  0.566   0.579   0.586   0.664   0.677   0.695   0.696
 --------------------------------------------------------------
 
          Ground-State Mulliken Net Atomic Charges

     Atom                 Charge (a.u.)
  ----------------------------------------
      1 O                    -0.235619
      2 C                     0.233448
      3 C                    -0.081443
      4 C                    -0.081197
      5 C                     0.230034
      6 O                    -0.177580
      7 C                    -0.039117
      8 C                    -0.031472
      9 O                    -0.215364
     10 C                     0.240490
     11 C                    -0.082567
     12 C                    -0.078977
     13 C                     0.234569
     14 O                    -0.231187
     15 O                    -0.211378
     16 O                    -0.211381
     17 O                    -0.200526
     18 C                    -0.097234
     19 C                     0.036770
     20 C                    -0.143476
     21 C                    -0.144418
     22 C                     0.041383
     23 O                    -0.206666
     24 H                     0.089764
     25 H                     0.089692
     26 H                     0.087498
     27 H                     0.074259
     28 H                     0.072421
     29 H                     0.075328
     30 H                     0.071572
     31 H                     0.082830
     32 O                    -0.228744
     33 C                    -0.098057
     34 C                     0.042085
     35 C                    -0.141993
     36 C                    -0.144470
     37 C                     0.041567
     38 O                    -0.205232
     39 H                     0.088682
     40 H                     0.085115
     41 H                     0.087793
     42 H                     0.086803
     43 H                     0.076226
     44 H                     0.072812
     45 H                     0.075678
     46 H                     0.071342
     47 H                     0.081784
     48 H                     0.086662
     49 H                     0.094362
     50 H                     0.094281
     51 H                     0.087551
     52 H                     0.084291
     53 H                     0.097264
     54 H                     0.097020
     55 H                     0.090246
     56 H                     0.086477
  ----------------------------------------
  Sum of atomic charges =     0.000000

 -----------------------------------------------------------------
                    Cartesian Multipole Moments
 -----------------------------------------------------------------
    Charge (ESU x 10^10)
                -0.0000
    Dipole Moment (Debye)
         X      -2.7074      Y       0.7081      Z      -2.6593
       Tot       3.8605
    Quadrupole Moments (Debye-Ang)
        XX    -145.5010     XY      -0.0577     YY    -153.5075
        XZ      -2.7021     YZ       1.8991     ZZ    -168.5228
    Octopole Moments (Debye-Ang^2)
       XXX     -43.7885    XXY      -3.6683    XYY       1.9689
       YYY      22.8137    XXZ      -4.1077    XYZ     -44.3044
       YYZ      22.5382    XZZ     -29.5680    YZZ      -7.0438
       ZZZ      -3.3903
    Hexadecapole Moments (Debye-Ang^3)
      XXXX  -15303.7985   XXXY    -185.5733   XXYY   -2953.1691
      XYYY    -195.3302   YYYY   -2162.2941   XXXZ      60.4371
      XXYZ     -73.8831   XYYZ     -21.6769   YYYZ      66.7178
      XXZZ   -3106.4731   XYZZ     -63.7469   YYZZ    -668.8335
      XZZZ     -77.7796   YZZZ      -1.4740   ZZZZ   -1793.2588
 -----------------------------------------------------------------
 Calculating analytic gradient of the SCF energy
 Gradient of SCF Energy
            1           2           3           4           5           6
    1  -0.0508977  -0.0170695   0.0398012   0.0194857   0.0218835   0.0082214
    2   0.0279215   0.0017369  -0.0490460   0.0177868  -0.0214956   0.0509256
    3  -0.0457401  -0.0228372   0.0329353   0.0432033  -0.0174642  -0.0299165
            7           8           9          10          11          12
    1  -0.0210051   0.0143362   0.0047772   0.0235495  -0.0043192   0.0029136
    2  -0.0270842   0.0328004   0.0632467  -0.0406501  -0.0122311  -0.0379028
    3   0.0227916  -0.0223253   0.0611639  -0.0118314   0.0203789  -0.0079925
           13          14          15          16          17          18
    1   0.0038603  -0.0041724   0.0838985   0.0288384  -0.0184180  -0.0271671
    2   0.0135015  -0.0354923  -0.0025989   0.0112292  -0.0025620   0.0146605
    3  -0.0317648  -0.0667115   0.0932963   0.1216606  -0.0735902  -0.0484968
           19          20          21          22          23          24
    1   0.0613459   0.0353270  -0.0076238  -0.0472365  -0.0527485  -0.0030147
    2   0.0256544  -0.0078925  -0.0452200  -0.0496046   0.0652129   0.0039391
    3   0.0142947   0.0378564   0.0134480  -0.0105600   0.0229911  -0.0054262
           25          26          27          28          29          30
    1  -0.0040028  -0.0106888   0.0081186  -0.0067278   0.0004129  -0.0008120
    2   0.0055560   0.0061131  -0.0044837   0.0042671  -0.0048195   0.0054527
    3   0.0033605  -0.0071263  -0.0067379  -0.0010968  -0.0120565   0.0074818
           31          32          33          34          35          36
    1   0.0003317  -0.0321326  -0.0341280   0.0390239   0.0515213   0.0171832
    2   0.0127930  -0.0409528  -0.0255375  -0.0324848   0.0023395   0.0241530
    3   0.0024050   0.0307517  -0.0409090  -0.0441488  -0.0100272   0.0381932
           37          38          39          40          41          42
    1  -0.0299426  -0.0475090  -0.0049942   0.0020828  -0.0033367  -0.0125414
    2   0.0286487   0.0450443   0.0029938  -0.0047613  -0.0051318   0.0051321
    3   0.0571445  -0.0574257  -0.0015511  -0.0085670  -0.0066693  -0.0009386
           43          44          45          46          47          48
    1   0.0026198  -0.0061777  -0.0039668   0.0004167  -0.0039264  -0.0052719
    2  -0.0106411   0.0045467  -0.0083109   0.0036826  -0.0014810  -0.0052352
    3   0.0039992  -0.0025356   0.0087853  -0.0075443  -0.0133139  -0.0050700
           49          50          51          52          53          54
    1   0.0013969   0.0020495  -0.0054830  -0.0039584  -0.0014776  -0.0004582
    2   0.0025349  -0.0019279   0.0029278   0.0047404  -0.0034971   0.0016235
    3   0.0021688   0.0025454  -0.0065181  -0.0071898  -0.0015399  -0.0022765
           55          56
    1   0.0005955  -0.0027828
    2  -0.0010879  -0.0090323
    3   0.0002476  -0.0032037
 Max gradient component =       1.217E-01
 RMS gradient           =       2.841E-02
 Gradient time:  CPU 31.97 s  wall 0.69 s
 Geometry Optimization Parameters
   NAtoms,    NIC,     NZ,  NCons,   NDum,   NFix, NCnnct, MaxDiis
       56     458       0       9       0       0       0       0


** CONSTRAINED OPTIMIZATION IN DELOCALIZED INTERNAL COORDINATES **
   Searching for a Minimum

   Optimization Cycle:   1

                       Coordinates (Angstroms)
     ATOM                X               Y               Z
      1  O        -3.1993107355    1.1803832688    1.7379867058
      2  C        -3.9969445526    1.4466489344    0.8503555182
      3  C        -4.6941739558    0.4351378148   -0.0324293972
      4  C        -3.8510326953   -0.2443229093   -1.1238899107
      5  C        -2.3639344837    0.0311978627   -1.0966477622
      6  O        -1.7478293863   -0.8318224427   -0.2358212507
      7  C        -0.3426760249   -0.5908648527   -0.1064748669
      8  C         0.3427088729   -1.8010355891    0.5195042665
      9  O         1.7310724512   -1.8215203008    0.1521990085
     10  C         2.5040413168   -0.8755207700    0.7410382519
     11  C         2.8508601587    0.2631097025   -0.1884295114
     12  C         4.1404273966    1.0179921376    0.1657436985
     13  C         5.0628277962    0.3253235304    1.1486537277
     14  O         5.1717901478    0.6022353185    2.3344026619
     15  O        -4.3981040781    2.7373476192    0.7053852856
     16  O         5.6756262548   -0.8068736626    0.7057440370
     17  O         2.4348815692   -0.6821959880    1.9476932518
     18  C         6.4874353934   -1.6105437690    1.4784603825
     19  C         3.1725318289   -0.1296790258   -1.6528635379
     20  C         2.9041611793    1.0646248499   -2.5685511069
     21  C         4.0394596831    1.9888475151   -2.1712408237
     22  C         4.8146047575    1.0749011552   -1.2144752704
     23  O         4.5752340301   -0.2206308342   -1.7104561525
     24  H         1.9790330403    0.9515434848   -0.1959980689
     25  H         3.9088076359    2.0158400803    0.6003699300
     26  H         2.6121836733   -1.0153413954   -2.0209565953
     27  H         3.0815206798    0.7144586197   -3.6110281559
     28  H         1.8865097360    1.5065524011   -2.5035430578
     29  H         4.6385220750    2.2196982659   -3.0798049681
     30  H         3.7308962317    2.9298482976   -1.6661697618
     31  H         5.8808862285    1.3840066447   -1.1447660361
     32  O        -1.8673076148    1.0725346361   -1.5094695387
     33  C        -3.9107278795    3.7914119706    1.4494601956
     34  C        -5.2287399595   -0.7779176828    0.7453476484
     35  C        -6.3774856305   -1.4270899914   -0.0256441365
     36  C        -5.6213351178   -2.0693638468   -1.1702255149
     37  C        -4.1797588887   -1.7213727348   -0.7827338969
     38  O        -4.2038426089   -1.7320126601    0.6257242041
     39  H        -5.5425525266    0.9768498230   -0.5105077793
     40  H        -4.1938271937   -0.0168749744   -2.1577629871
     41  H        -2.8153451430    3.8943264763    1.2944127056
     42  H        -5.5490822065   -0.5249373798    1.7798363340
     43  H        -6.7992851028   -2.2329161561    0.6168077828
     44  H        -7.1906868106   -0.7310767279   -0.3243713671
     45  H        -5.7731808030   -3.1705111349   -1.1156310375
     46  H        -5.8878025277   -1.7007878979   -2.1842738234
     47  H        -3.4738128111   -2.4315630581   -1.2674088255
     48  H        -4.1243708604    3.6304309522    2.5278050277
     49  H        -4.4076658343    4.7278183742    1.1228401580
     50  H         6.8516521561   -2.4582110441    0.8626750489
     51  H         5.9163139964   -2.0147818091    2.3414140722
     52  H         7.3622098038   -1.0312412306    1.8437799522
     53  H         0.1676940365   -1.8805777996    1.6148737045
     54  H        -0.1003886884   -2.7034087084    0.0459765585
     55  H        -0.1334644148    0.3479914097    0.4499180214
     56  H         0.0840602220   -0.5156009566   -1.1353402571
   Point Group: c1    Number of degrees of freedom:   162


   Energy is  -1510.118371966

              Constraints and their Current Values
                                        Value     Constraint
   Dihedral:        1   2   3   4      -73.743      -73.743
   Dihedral:        3   4   5   6       85.075       85.075
   Dihedral:        4   5   6   7     -177.174     -177.174
   Dihedral:        5   6   7   8     -163.429     -163.428
   Dihedral:        6   7   8   9      155.943      155.943
   Dihedral:        7   8   9  10       71.761       71.761
   Dihedral:        8   9  10  11     -103.997     -103.997
   Dihedral:        9  10  11  12     -155.087     -155.087
   Dihedral:       11  12  13  14     -102.371     -102.371

 Attempting to Generate Delocalized Internal Coordinates

   Using Lagrange Multiplier Algorithm


169 Hessian modes will be used to form the next step
  Hessian Eigenvalues:
    -0.977753   -0.977753   -0.977753   -0.977753   -0.977753   -0.977753
    -0.977753   -0.977753    0.045000    0.045000    0.045000    0.045000
     0.045165    0.045365    0.045557    0.045604    0.046415    0.048767
     0.048860    0.048886    0.054333    0.059883    0.059978    0.062308
     0.062395    0.066947    0.066970    0.067438    0.068189    0.069535
     0.070535    0.071610    0.073829    0.074186    0.075206    0.075875
     0.077186    0.077255    0.082399    0.082498    0.083193    0.083909
     0.084140    0.084356    0.085411    0.085559    0.085668    0.086760
     0.086841    0.086841    0.088371    0.088508    0.089004    0.089271
     0.089758    0.089978    0.093793    0.093826    0.096594    0.096683
     0.111596    0.111598    0.114652    0.114659    0.115891    0.115925
     0.116935    0.117529    0.117537    0.118707    0.119442    0.122629
     0.124781    0.130863    0.131487    0.131696    0.140744    0.141952
     0.160000    0.160000    0.160000    0.160000    0.160000    0.160000
     0.171406    0.172478    0.173184    0.173693    0.220434    0.221376
     0.224105    0.236649    0.239776    0.241591    0.248501    0.249304
     0.250000    0.250000    0.250000    0.250000    0.250000    0.250000
     0.250000    0.250000    0.258416    0.258914    0.266740    0.267189
     0.277476    0.278840    0.282587    0.282861    0.294500    0.295415
     0.298749    0.308047    0.310698    0.310855    0.313314    0.319325
     0.321446    0.321879    0.322260    0.322941    0.323089    0.323143
     0.323367    0.323375    0.323506    0.323775    0.323778    0.324248
     0.324552    0.324555    0.324637    0.324697    0.324720    0.324861
     0.324913    0.324963    0.324965    0.325058    0.325153    0.326772
     0.326820    0.368341    0.368486    0.383152    0.383769    0.401008
     0.407718    0.492460    0.492609    0.517921    0.526544    0.530779
     0.537346    0.930587    0.936331    0.941950    0.942757    1.022753
     1.022753    1.022753    1.022753    1.022753    1.022753    1.022753
     1.022753

 Minimum Search - Taking P-RFO Step
 Searching for Lamda that Maximizes Along the Constraint modes Only
 Value Taken    Lamda =   0.00069745
 Searching for Lamda that Minimizes Along All other modes
 Value Taken    Lamda =  -0.17110166
 Calculated Step too Large.  Step scaled by  0.518813
 Step Taken.  Stepsize is  0.300000

                             Maximum     Tolerance    Cnvgd?
         Gradient            0.108865       0.000300      NO
         Displacement        0.096637       0.001200      NO
         Energy change     *********       0.000001      NO


 New Cartesian Coordinates Obtained by Inverse Iteration

 Displacement from previous Coordinates is:  0.824704
 Adding empirical dispersion correction 
 ----------------------------------------------------------------
 Doing -D3(op) with
 s6 =   1.00000
 s8 =   0.78311
 a1 =   0.30000
 a2 =   4.25000
 n  =  10.00000
 -D3 energy without 3body term =     -0.0669935671 hartrees
 ----------------------------------------------------------------
             Standard Nuclear Orientation (Angstroms)
    I     Atom           X                Y                Z
 ----------------------------------------------------------------
    1      O      -3.1899412089     1.1674134945     1.7439682280
    2      C      -4.0115164960     1.4438034423     0.8564593305
    3      C      -4.7470363914     0.4297626026    -0.0227257194
    4      C      -3.9118727384    -0.2629352425    -1.1367068837
    5      C      -2.4025600946     0.0212730394    -1.1086254149
    6      O      -1.7714173724    -0.8530722578    -0.2354505424
    7      C      -0.3512380563    -0.5942329128    -0.1134180534
    8      C       0.3463004139    -1.8196097681     0.5178484583
    9      O       1.7475281906    -1.8482120765     0.1497175738
   10      C       2.5382310925    -0.8803678902     0.7564898938
   11      C       2.8952812141     0.2755703886    -0.1913706847
   12      C       4.1996757155     1.0411785580     0.1686419853
   13      C       5.1149620251     0.3344194697     1.1760601585
   14      O       5.2139363449     0.6186563373     2.3795370140
   15      O      -4.4382100939     2.7420661303     0.6687890799
   16      O       5.7114040907    -0.8080975038     0.6807066060
   17      O       2.4957344473    -0.6991702795     1.9842910420
   18      C       6.5178815524    -1.6120846610     1.5058423888
   19      C       3.2114490499    -0.1221315698    -1.6740889025
   20      C       2.9339323333     1.0983726595    -2.5899697286
   21      C       4.0910855445     2.0324412680    -2.1870936196
   22      C       4.8855551603     1.0988027934    -1.2305367803
   23      O       4.6404000042    -0.2206008162    -1.7399868180
   24      H       2.0275402227     0.9648884834    -0.1924492489
   25      H       3.9732445082     2.0364380204     0.6018200821
   26      H       2.6538106901    -1.0106110555    -2.0346229707
   27      H       3.0963679683     0.7598072702    -3.6333619928
   28      H       1.9208891866     1.5378266870    -2.5112947552
   29      H       4.6850258645     2.2749601117    -3.0898106417
   30      H       3.7858659695     2.9656570537    -1.6756151077
   31      H       5.9527440254     1.3970493722    -1.1630430551
   32      O      -1.8893730159     1.0658289689    -1.5360936035
   33      C      -3.8915940307     3.7902789867     1.4318814589
   34      C      -5.2882621437    -0.7961167530     0.7731342211
   35      C      -6.4666716168    -1.4315415174    -0.0084561933
   36      C      -5.7125941533    -2.0857627221    -1.1809489351
   37      C      -4.2432998157    -1.7590391589    -0.7936366915
   38      O      -4.2546355847    -1.7792088811     0.6407066555
   39      H      -5.5938171068     0.9780925971    -0.4882415116
   40      H      -4.2628296273    -0.0316929142    -2.1631856320
   41      H      -2.7946902364     3.8768768040     1.2667092776
   42      H      -5.5851626822    -0.5462309683     1.8130256432
   43      H      -6.8995850163    -2.2295301032     0.6276817268
   44      H      -7.2671205429    -0.7230098806    -0.2954042678
   45      H      -5.8764643630    -3.1806747014    -1.1417601525
   46      H      -5.9789761593    -1.7059449876    -2.1859800377
   47      H      -3.5415725086    -2.4701261850    -1.2777113839
   48      H      -4.0822718441     3.6385051504     2.5176378864
   49      H      -4.3730121209     4.7381800754     1.1170258588
   50      H       6.8899990974    -2.4650068389     0.9029043884
   51      H       5.9374995846    -2.0119591122     2.3670075000
   52      H       7.3917428460    -1.0421287401     1.8925025841
   53      H       0.1707594255    -1.8946750635     1.6140321602
   54      H      -0.0949134304    -2.7244591799     0.0470819950
   55      H      -0.1463582529     0.3456239322     0.4436526668
   56      H       0.0714339526    -0.5050761432    -1.1420737939
 ----------------------------------------------------------------
 Molecular Point Group                 C1    NOp =  1
 Largest Abelian Subgroup              C1    NOp =  1
 Nuclear Repulsion Energy =  3107.0441875030 hartrees
 There are      113 alpha and      113 beta electrons
 Applying Cartesian multipole field
    Component          Value
    ---------          -----
     (2,0,0)        1.00000E-12
     (0,2,0)        2.00000E-11
     (0,0,2)       -3.00000E-11
 Nucleus-field energy     =     0.0000000082 hartrees
 Requested basis set is STO-3G
 There are 86 shells and 176 basis functions
 A cutoff of  1.0D-12 yielded   2089 shell pairs
 There are      9739 function pairs
 Smallest overlap matrix eigenvalue = 2.02E-01
 Guess MOs from SCF MO coefficient file
 Reading MOs from coefficient file
 Reading MOs from coefficient file
 A restricted hybrid HF-DFT SCF calculation will be
 performed using Pulay DIIS extrapolation
 Exchange:     0.2000 Hartree-Fock + 0.0800 Slater + 0.7200 B88
 Correlation:  0.1900 VWN1RPA + 0.8100 LYP
 Using SG-1 standard quadrature grid
 Dispersion:   Grimme D3
 SCF converges when DIIS error is below 1.0E-08
 Geometry optimization detected.  Setting ReadMinima to 0
 Setting SaveMinima to 0
 using 48 threads for integral computing
 -------------------------------------------------------
 OpenMP Integral computing Module                
 Release: version 1.0, May 2013, Q-Chem Inc. Pittsburgh 
 -------------------------------------------------------
 -------------------------------------------------------
 OpenMP BLAS3 based DFT computing Module                
 Release: version 1.0, May 2013, Q-Chem Inc. Pittsburgh 
 -------------------------------------------------------
 ---------------------------------------
  Cycle       Energy         DIIS Error
 ---------------------------------------
    1   -1510.0156429454      3.09E-03
    2   -1510.1853257634      9.24E-04
    3   -1510.1792775206      1.52E-03
    4   -1510.1887557118      3.13E-04
    5   -1510.1892033248      5.72E-05
    6   -1510.1892161739      2.51E-05
    7   -1510.1892184491      1.12E-05
    8   -1510.1892190065      2.09E-06
    9   -1510.1892190281      7.58E-07
   10   -1510.1892190299      4.70E-07
   11   -1510.1892190309      1.15E-07
   12   -1510.1892190310      3.10E-08
   13   -1510.1892190310      2.24E-08
   14   -1510.1892190310      6.43E-09 Convergence criterion met
 ---------------------------------------
 SCF time:  CPU 97.20 s  wall 2.03 s
 SCF   energy in the final basis set = -1510.18921903
 Total energy in the final basis set = -1510.18921903
 
 --------------------------------------------------------------
 
                    Orbital Energies (a.u.)
 --------------------------------------------------------------
 
 Alpha MOs
 -- Occupied --
-18.948 -18.936 -18.926 -18.917 -18.899 -18.895 -18.889 -18.872
-18.859 -18.852 -10.114 -10.109 -10.106 -10.097 -10.084 -10.082
-10.078 -10.070 -10.069 -10.065 -10.064 -10.062 -10.042 -10.040
-10.040 -10.037 -10.019 -10.018 -10.016 -10.014  -1.037  -1.032
 -1.030  -1.023  -1.004  -1.000  -0.952  -0.946  -0.940  -0.932
 -0.777  -0.773  -0.740  -0.733  -0.728  -0.717  -0.709  -0.677
 -0.667  -0.627  -0.606  -0.587  -0.554  -0.549  -0.538  -0.535
 -0.527  -0.520  -0.502  -0.489  -0.482  -0.475  -0.457  -0.446
 -0.443  -0.441  -0.436  -0.424  -0.419  -0.417  -0.414  -0.410
 -0.404  -0.396  -0.386  -0.381  -0.377  -0.365  -0.362  -0.354
 -0.351  -0.347  -0.342  -0.341  -0.331  -0.329  -0.327  -0.312
 -0.310  -0.309  -0.305  -0.303  -0.294  -0.288  -0.287  -0.282
 -0.279  -0.254  -0.239  -0.238  -0.234  -0.229  -0.223  -0.186
 -0.175  -0.171  -0.167  -0.157  -0.156  -0.150  -0.145  -0.143
 -0.135
 -- Virtual --
  0.065   0.092   0.109   0.113   0.229   0.235   0.250   0.275
  0.280   0.302   0.319   0.322   0.333   0.340   0.345   0.354
  0.355   0.359   0.362   0.368   0.372   0.375   0.385   0.386
  0.396   0.396   0.399   0.404   0.408   0.410   0.412   0.413
  0.421   0.429   0.433   0.437   0.437   0.439   0.441   0.442
  0.445   0.451   0.457   0.460   0.461   0.470   0.472   0.474
  0.477   0.485   0.497   0.500   0.507   0.521   0.525   0.550
  0.557   0.560   0.563   0.636   0.654   0.671   0.672
 --------------------------------------------------------------
 
          Ground-State Mulliken Net Atomic Charges

     Atom                 Charge (a.u.)
  ----------------------------------------
      1 O                    -0.226370
      2 C                     0.220961
      3 C                    -0.080470
      4 C                    -0.079423
      5 C                     0.219087
      6 O                    -0.172747
      7 C                    -0.042244
      8 C                    -0.034891
      9 O                    -0.209124
     10 C                     0.228522
     11 C                    -0.080498
     12 C                    -0.078554
     13 C                     0.222176
     14 O                    -0.222780
     15 O                    -0.197481
     16 O                    -0.196810
     17 O                    -0.191616
     18 C                    -0.105652
     19 C                     0.032061
     20 C                    -0.144383
     21 C                    -0.145165
     22 C                     0.036137
     23 O                    -0.197103
     24 H                     0.088846
     25 H                     0.088166
     26 H                     0.087875
     27 H                     0.074899
     28 H                     0.073248
     29 H                     0.075819
     30 H                     0.072406
     31 H                     0.082869
     32 O                    -0.223804
     33 C                    -0.106397
     34 C                     0.037027
     35 C                    -0.142996
     36 C                    -0.145180
     37 C                     0.036442
     38 O                    -0.195950
     39 H                     0.088072
     40 H                     0.085193
     41 H                     0.088183
     42 H                     0.086365
     43 H                     0.076513
     44 H                     0.073523
     45 H                     0.076116
     46 H                     0.072062
     47 H                     0.082242
     48 H                     0.087092
     49 H                     0.093963
     50 H                     0.093878
     51 H                     0.088021
     52 H                     0.084642
     53 H                     0.095637
     54 H                     0.096380
     55 H                     0.089159
     56 H                     0.086057
  ----------------------------------------
  Sum of atomic charges =    -0.000000

 -----------------------------------------------------------------
                    Cartesian Multipole Moments
 -----------------------------------------------------------------
    Charge (ESU x 10^10)
                -0.0000
    Dipole Moment (Debye)
         X      -2.6706      Y       0.8501      Z      -2.5156
       Tot       3.7660
    Quadrupole Moments (Debye-Ang)
        XX    -144.7623     XY       0.1333     YY    -153.3712
        XZ      -2.3347     YZ       1.9821     ZZ    -168.1648
    Octopole Moments (Debye-Ang^2)
       XXX     -44.5154    XXY      -4.4752    XYY       2.6793
       YYY      25.1134    XXZ      -1.6067    XYZ     -46.5301
       YYZ      22.2288    XZZ     -30.1703    YZZ      -6.4373
       ZZZ      -2.5568
    Hexadecapole Moments (Debye-Ang^3)
      XXXX  -15582.8539   XXXY    -206.1577   XXYY   -3014.4407
      XYYY    -227.8111   YYYY   -2192.6245   XXXZ      79.0734
      XXYZ     -75.0417   XYYZ     -23.1963   YYYZ      77.2765
      XXZZ   -3163.3503   XYZZ     -74.6823   YYZZ    -677.3556
      XZZZ     -84.5830   YZZZ       6.6797   ZZZZ   -1825.6528
 -----------------------------------------------------------------
 Calculating analytic gradient of the SCF energy
 Gradient of SCF Energy
            1           2           3           4           5           6
    1  -0.0239742  -0.0221032   0.0277050   0.0101338   0.0127363   0.0071140
    2   0.0118439   0.0082230  -0.0338293   0.0200038  -0.0267803   0.0356483
    3  -0.0176312  -0.0293147   0.0231411   0.0263661  -0.0166096  -0.0188736
            7           8           9          10          11          12
    1  -0.0151639   0.0103054  -0.0040786   0.0328814  -0.0106908  -0.0001388
    2  -0.0169364   0.0207303   0.0395641  -0.0365011  -0.0022777  -0.0237646
    3   0.0190557  -0.0168221   0.0435348  -0.0217019   0.0157761  -0.0018516
           13          14          15          16          17          18
    1   0.0060309  -0.0045642   0.0586810   0.0188671  -0.0170800  -0.0197205
    2   0.0075378  -0.0185455  -0.0019650   0.0062242   0.0042952   0.0106514
    3  -0.0386935  -0.0273085   0.0640129   0.0841597  -0.0332326  -0.0382524
           19          20          21          22          23          24
    1   0.0411904   0.0171135  -0.0029830  -0.0255452  -0.0317364  -0.0008265
    2   0.0102775  -0.0044026  -0.0225051  -0.0335588   0.0391696   0.0025937
    3   0.0091641   0.0221950   0.0075109  -0.0081514   0.0143158  -0.0047709
           25          26          27          28          29          30
    1  -0.0019418  -0.0093227   0.0058962  -0.0038986  -0.0008933   0.0006319
    2   0.0024660   0.0060234  -0.0033226   0.0025527  -0.0038787   0.0031576
    3   0.0032508  -0.0055022  -0.0035013  -0.0023855  -0.0078844   0.0047791
           31          32          33          34          35          36
    1  -0.0007915  -0.0180017  -0.0273131   0.0259967   0.0269441   0.0103646
    2   0.0112103  -0.0165361  -0.0177978  -0.0214794   0.0038156   0.0127123
    3   0.0024109   0.0199017  -0.0309254  -0.0234092  -0.0054526   0.0182856
           37          38          39          40          41          42
    1  -0.0159524  -0.0286338  -0.0032631   0.0022308  -0.0007650  -0.0105820
    2   0.0152033   0.0275325   0.0018825  -0.0050726  -0.0020857   0.0047269
    3   0.0390419  -0.0345881  -0.0008893  -0.0059455  -0.0038642  -0.0016993
           43          44          45          46          47          48
    1   0.0027531  -0.0044532  -0.0027224   0.0007940  -0.0040194  -0.0033930
    2  -0.0067590   0.0018224  -0.0046061   0.0013134  -0.0001419  -0.0023726
    3   0.0023130  -0.0006732   0.0066070  -0.0047260  -0.0113049  -0.0014419
           49          50          51          52          53          54
    1   0.0012912   0.0020839  -0.0033691  -0.0007531  -0.0014591  -0.0004606
    2   0.0027807  -0.0021911   0.0005534   0.0028331  -0.0036407   0.0009242
    3   0.0019707   0.0021853  -0.0027449  -0.0037469  -0.0010115  -0.0016829
           55          56
    1   0.0011466  -0.0022978
    2  -0.0001205  -0.0072018
    3  -0.0006115  -0.0027734
 Max gradient component =       8.416E-02
 RMS gradient           =       1.874E-02
 Gradient time:  CPU 31.29 s  wall 0.66 s
 Geometry Optimization Parameters
   NAtoms,    NIC,     NZ,  NCons,   NDum,   NFix, NCnnct, MaxDiis
       56     458       0       9       0       0       0       0

 Cartesian Hessian Update
 Hessian Updated using BFGS Update


** CONSTRAINED OPTIMIZATION IN DELOCALIZED INTERNAL COORDINATES **
   Searching for a Minimum

   Optimization Cycle:   2

                       Coordinates (Angstroms)
     ATOM                X               Y               Z
      1  O        -3.1899412089    1.1674134945    1.7439682280
      2  C        -4.0115164960    1.4438034423    0.8564593305
      3  C        -4.7470363914    0.4297626026   -0.0227257194
      4  C        -3.9118727384   -0.2629352425   -1.1367068837
      5  C        -2.4025600946    0.0212730394   -1.1086254149
      6  O        -1.7714173724   -0.8530722578   -0.2354505424
      7  C        -0.3512380563   -0.5942329128   -0.1134180534
      8  C         0.3463004139   -1.8196097681    0.5178484583
      9  O         1.7475281906   -1.8482120765    0.1497175738
     10  C         2.5382310925   -0.8803678902    0.7564898938
     11  C         2.8952812141    0.2755703886   -0.1913706847
     12  C         4.1996757155    1.0411785580    0.1686419853
     13  C         5.1149620251    0.3344194697    1.1760601585
     14  O         5.2139363449    0.6186563373    2.3795370140
     15  O        -4.4382100939    2.7420661303    0.6687890799
     16  O         5.7114040907   -0.8080975038    0.6807066060
     17  O         2.4957344473   -0.6991702795    1.9842910420
     18  C         6.5178815524   -1.6120846610    1.5058423888
     19  C         3.2114490499   -0.1221315698   -1.6740889025
     20  C         2.9339323333    1.0983726595   -2.5899697286
     21  C         4.0910855445    2.0324412680   -2.1870936196
     22  C         4.8855551603    1.0988027934   -1.2305367803
     23  O         4.6404000042   -0.2206008162   -1.7399868180
     24  H         2.0275402227    0.9648884834   -0.1924492489
     25  H         3.9732445082    2.0364380204    0.6018200821
     26  H         2.6538106901   -1.0106110555   -2.0346229707
     27  H         3.0963679683    0.7598072702   -3.6333619928
     28  H         1.9208891866    1.5378266870   -2.5112947552
     29  H         4.6850258645    2.2749601117   -3.0898106417
     30  H         3.7858659695    2.9656570537   -1.6756151077
     31  H         5.9527440254    1.3970493722   -1.1630430551
     32  O        -1.8893730159    1.0658289689   -1.5360936035
     33  C        -3.8915940307    3.7902789867    1.4318814589
     34  C        -5.2882621437   -0.7961167530    0.7731342211
     35  C        -6.4666716168   -1.4315415174   -0.0084561933
     36  C        -5.7125941533   -2.0857627221   -1.1809489351
     37  C        -4.2432998157   -1.7590391589   -0.7936366915
     38  O        -4.2546355847   -1.7792088811    0.6407066555
     39  H        -5.5938171068    0.9780925971   -0.4882415116
     40  H        -4.2628296273   -0.0316929142   -2.1631856320
     41  H        -2.7946902364    3.8768768040    1.2667092776
     42  H        -5.5851626822   -0.5462309683    1.8130256432
     43  H        -6.8995850163   -2.2295301032    0.6276817268
     44  H        -7.2671205429   -0.7230098806   -0.2954042678
     45  H        -5.8764643630   -3.1806747014   -1.1417601525
     46  H        -5.9789761593   -1.7059449876   -2.1859800377
     47  H        -3.5415725086   -2.4701261850   -1.2777113839
     48  H        -4.0822718441    3.6385051504    2.5176378864
     49  H        -4.3730121209    4.7381800754    1.1170258588
     50  H         6.8899990974   -2.4650068389    0.9029043884
     51  H         5.9374995846   -2.0119591122    2.3670075000
     52  H         7.3917428460   -1.0421287401    1.8925025841
     53  H         0.1707594255   -1.8946750635    1.6140321602
     54  H        -0.0949134304   -2.7244591799    0.0470819950
     55  H        -0.1463582529    0.3456239322    0.4436526668
     56  H         0.0714339526   -0.5050761432   -1.1420737939
   Point Group: c1    Number of degrees of freedom:   162


   Energy is  -1510.189219031

              Constraints and their Current Values
                                        Value     Constraint
   Dihedral:        1   2   3   4      -73.760      -73.743
   Dihedral:        3   4   5   6       85.020       85.075
   Dihedral:        4   5   6   7     -177.170     -177.174
   Dihedral:        5   6   7   8     -163.415     -163.428
   Dihedral:        6   7   8   9      155.913      155.943
   Dihedral:        7   8   9  10       71.762       71.761
   Dihedral:        8   9  10  11     -103.997     -103.997
   Dihedral:        9  10  11  12     -155.124     -155.087
   Dihedral:       11  12  13  14     -102.347     -102.371
 Hessian Updated using BFGS Update

   Using Lagrange Multiplier Algorithm


157 Hessian modes will be used to form the next step
  Hessian Eigenvalues:
    -0.977753   -0.977753   -0.977753   -0.977753   -0.977753   -0.977753
    -0.977753   -0.977567    0.044999    0.045000    0.045158    0.045371
     0.045557    0.045599    0.046423    0.048807    0.048860    0.048923
     0.054310    0.059784    0.059953    0.062291    0.062418    0.066947
     0.066970    0.067435    0.068154    0.069527    0.070528    0.071617
     0.073821    0.074186    0.075208    0.075866    0.077099    0.077265
     0.082396    0.082505    0.083205    0.083847    0.084206    0.084357
     0.085378    0.085567    0.085682    0.086756    0.086839    0.086852
     0.088346    0.088500    0.089010    0.089298    0.089779    0.089994
     0.093808    0.093825    0.096595    0.096681    0.111597    0.111638
     0.114655    0.114689    0.115891    0.115925    0.116914    0.117502
     0.117544    0.118684    0.119384    0.122629    0.124791    0.130844
     0.131486    0.131681    0.140715    0.141926    0.159599    0.161545
     0.171302    0.172322    0.173182    0.173690    0.219837    0.220560
     0.223460    0.229242    0.236718    0.239793    0.241659    0.248691
     0.249447    0.254595    0.258597    0.260378    0.266865    0.267205
     0.277993    0.280198    0.282735    0.287606    0.294954    0.297165
     0.301574    0.308150    0.310568    0.312011    0.319316    0.320487
     0.321475    0.322012    0.322462    0.323005    0.323122    0.323241
     0.323374    0.323493    0.323694    0.323775    0.323841    0.324290
     0.324549    0.324555    0.324626    0.324700    0.324722    0.324880
     0.324933    0.324964    0.325041    0.325147    0.326723    0.326802
     0.330740    0.368403    0.368525    0.383462    0.399853    0.406009
     0.417314    0.476874    0.492548    0.518545    0.524224    0.529294
     0.541507    0.930893    0.938036    0.942347    0.998124    1.022753
     1.022753    1.022753    1.022753    1.022753    1.022753    1.022753
     1.025846

 Minimum Search - Taking P-RFO Step
 Searching for Lamda that Maximizes Along the Constraint modes Only
 Value Taken    Lamda =   0.00001509
 Searching for Lamda that Minimizes Along All other modes
 Value Taken    Lamda =  -0.08167100
 Calculated Step too Large.  Step scaled by  0.597503
 Step Taken.  Stepsize is  0.300000

                             Maximum     Tolerance    Cnvgd?
         Gradient            0.063633       0.000300      NO
         Displacement        0.082959       0.001200      NO
         Energy change     -0.070847       0.000001      NO


 New Cartesian Coordinates Obtained by Inverse Iteration

 Displacement from previous Coordinates is:  1.319423
 Adding empirical dispersion correction 
 ----------------------------------------------------------------
 Doing -D3(op) with
 s6 =   1.00000
 s8 =   0.78311
 a1 =   0.30000
 a2 =   4.25000
 n  =  10.00000
 -D3 energy without 3body term =     -0.0670821432 hartrees
 ----------------------------------------------------------------
             Standard Nuclear Orientation (Angstroms)
    I     Atom           X                Y                Z
 ----------------------------------------------------------------
    1      O      -3.0935754114     1.1459886362     1.7247277421
    2      C      -3.9388362091     1.4305270490     0.8520685455
    3      C      -4.7399490679     0.4317988829    -0.0136650051
    4      C      -3.9366120376    -0.2821568226    -1.1534678024
    5      C      -2.4104792311    -0.0081965163    -1.1286492189
    6      O      -1.7818817315    -0.9061875863    -0.2494548906
    7      C      -0.3476210599    -0.6334769440    -0.1498519848
    8      C       0.3531029630    -1.8769986666     0.4759333740
    9      O       1.7602558672    -1.9175025128     0.0928833780
   10      C       2.5315761661    -0.9206466950     0.7355505805
   11      C       2.8764474735     0.2607820052    -0.2126541224
   12      C       4.1654365901     1.0645986916     0.1690370921
   13      C       5.0725592139     0.3590998636     1.2092185255
   14      O       5.1466410588     0.6351066621     2.4236477047
   15      O      -4.3641721980     2.7442155220     0.6278037648
   16      O       5.6933772174    -0.7744289283     0.6737992461
   17      O       2.5121583077    -0.7823493251     1.9772485029
   18      C       6.4883265357    -1.5287337698     1.6001003149
   19      C       3.2082497750    -0.1241378515    -1.7050864447
   20      C       2.9009866808     1.1147097029    -2.6098384763
   21      C       4.0456299552     2.0787761845    -2.1860552597
   22      C       4.8720768177     1.1460007265    -1.2339519814
   23      O       4.6610225719    -0.1940882930    -1.7669365152
   24      H       1.9937633100     0.9291442176    -0.2080950820
   25      H       3.9141683598     2.0516359145     0.6010382607
   26      H       2.6842012069    -1.0317088487    -2.0649576271
   27      H       3.0642566418     0.8019375521    -3.6573363005
   28      H       1.8802423686     1.5253958009    -2.5182627278
   29      H       4.6371754758     2.3561838596    -3.0760249220
   30      H       3.7125559151     2.9921795707    -1.6632577061
   31      H       5.9342914166     1.4532887835    -1.1578686410
   32      O      -1.8655341635     1.0213588243    -1.5762557799
   33      C      -3.6994887602     3.7411168909     1.4188495781
   34      C      -5.2929831785    -0.7963433856     0.7991801380
   35      C      -6.5082496424    -1.3978991193     0.0192943831
   36      C      -5.7804116431    -2.0670482058    -1.1815970755
   37      C      -4.2834546455    -1.7856174191    -0.8100617285
   38      O      -4.2697950567    -1.8184368322     0.6445267725
   39      H      -5.5803652591     1.0010476696    -0.4578742749
   40      H      -4.3009330208    -0.0370312810    -2.1691078922
   41      H      -2.6057723069     3.7572848003     1.2212222061
   42      H      -5.5473074659    -0.5507290613     1.8495550017
   43      H      -6.9609726042    -2.1844849480     0.6497583010
   44      H      -7.2859503457    -0.6625048658    -0.2501697304
   45      H      -5.9725090244    -3.1543143645    -1.1604980807
   46      H      -6.0499980080    -1.6663372670    -2.1741700139
   47      H      -3.5951695135    -2.5066839555    -1.2946575611
   48      H      -3.8598377026     3.5741632920     2.5062369217
   49      H      -4.1288934510     4.7225316426     1.1391789215
   50      H       6.9153750456    -2.3850347185     1.0431102536
   51      H       5.8751319315    -1.9162432313     2.4426942582
   52      H       7.3196574726    -0.9208082923     2.0184695544
   53      H       0.1848649075    -1.9451402826     1.5740052417
   54      H      -0.0945672572    -2.7802204717     0.0089795965
   55      H      -0.1386955367     0.3018872854     0.4131148972
   56      H       0.0637681038    -0.5248057566    -1.1799334705
 ----------------------------------------------------------------
 Molecular Point Group                 C1    NOp =  1
 Largest Abelian Subgroup              C1    NOp =  1
 Nuclear Repulsion Energy =  3097.1175950876 hartrees
 There are      113 alpha and      113 beta electrons
 Applying Cartesian multipole field
    Component          Value
    ---------          -----
     (2,0,0)        1.00000E-12
     (0,2,0)        2.00000E-11
     (0,0,2)       -3.00000E-11
 Nucleus-field energy     =     0.0000000074 hartrees
 Requested basis set is STO-3G
 There are 86 shells and 176 basis functions
 A cutoff of  1.0D-12 yielded   2094 shell pairs
 There are      9768 function pairs
 Smallest overlap matrix eigenvalue = 2.07E-01
 Guess MOs from SCF MO coefficient file
 Reading MOs from coefficient file
 Reading MOs from coefficient file
 A restricted hybrid HF-DFT SCF calculation will be
 performed using Pulay DIIS extrapolation
 Exchange:     0.2000 Hartree-Fock + 0.0800 Slater + 0.7200 B88
 Correlation:  0.1900 VWN1RPA + 0.8100 LYP
 Using SG-1 standard quadrature grid
 Dispersion:   Grimme D3
 SCF converges when DIIS error is below 1.0E-08
 Geometry optimization detected.  Setting ReadMinima to 0
 Setting SaveMinima to 0
 using 48 threads for integral computing
 -------------------------------------------------------
 OpenMP Integral computing Module                
 Release: version 1.0, May 2013, Q-Chem Inc. Pittsburgh 
 -------------------------------------------------------
 -------------------------------------------------------
 OpenMP BLAS3 based DFT computing Module                
 Release: version 1.0, May 2013, Q-Chem Inc. Pittsburgh 
 -------------------------------------------------------
 ---------------------------------------
  Cycle       Energy         DIIS Error
 ---------------------------------------
    1   -1510.0767197343      3.04E-03
    2   -1510.2244314704      8.37E-04
    3   -1510.2182179701      1.48E-03
    4   -1510.2273282731      2.78E-04
    5   -1510.2276716459      6.02E-05
    6   -1510.2276854284      2.82E-05
    7   -1510.2276881782      1.39E-05
    8   -1510.2276890328      2.55E-06
    9   -1510.2276890696      6.71E-07
   10   -1510.2276890708      5.61E-07
   11   -1510.2276890722      1.65E-07
   12   -1510.2276890724      4.26E-08
   13   -1510.2276890724      2.62E-08
   14   -1510.2276890725      1.03E-08
   15   -1510.2276890726      1.61E-09 Convergence criterion met
 ---------------------------------------
 SCF time:  CPU 106.80 s  wall 2.23 s
 SCF   energy in the final basis set = -1510.22768907
 Total energy in the final basis set = -1510.22768907
 
 --------------------------------------------------------------
 
                    Orbital Energies (a.u.)
 --------------------------------------------------------------
 
 Alpha MOs
 -- Occupied --
-18.945 -18.940 -18.929 -18.914 -18.897 -18.894 -18.893 -18.873
-18.865 -18.858 -10.111 -10.106 -10.103 -10.094 -10.080 -10.078
-10.073 -10.066 -10.064 -10.064 -10.062 -10.060 -10.042 -10.040
-10.040 -10.036 -10.020 -10.019 -10.017 -10.015  -1.029  -1.024
 -1.021  -1.016  -0.990  -0.986  -0.947  -0.942  -0.939  -0.929
 -0.773  -0.769  -0.734  -0.728  -0.722  -0.712  -0.704  -0.672
 -0.661  -0.622  -0.603  -0.584  -0.553  -0.548  -0.538  -0.534
 -0.523  -0.516  -0.496  -0.484  -0.476  -0.469  -0.453  -0.445
 -0.439  -0.437  -0.431  -0.420  -0.416  -0.414  -0.409  -0.406
 -0.400  -0.393  -0.380  -0.374  -0.372  -0.361  -0.357  -0.352
 -0.348  -0.344  -0.341  -0.341  -0.332  -0.330  -0.327  -0.310
 -0.309  -0.307  -0.304  -0.303  -0.292  -0.287  -0.285  -0.281
 -0.277  -0.256  -0.246  -0.241  -0.237  -0.235  -0.229  -0.185
 -0.178  -0.170  -0.169  -0.157  -0.157  -0.149  -0.146  -0.145
 -0.139
 -- Virtual --
  0.064   0.091   0.103   0.109   0.224   0.235   0.246   0.269
  0.275   0.293   0.307   0.309   0.322   0.335   0.338   0.342
  0.346   0.351   0.357   0.360   0.361   0.366   0.373   0.377
  0.384   0.388   0.390   0.400   0.404   0.404   0.409   0.410
  0.419   0.423   0.426   0.429   0.430   0.436   0.437   0.439
  0.442   0.443   0.446   0.449   0.455   0.456   0.460   0.468
  0.469   0.476   0.491   0.493   0.498   0.511   0.521   0.545
  0.551   0.551   0.553   0.623   0.641   0.658   0.660
 --------------------------------------------------------------
 
          Ground-State Mulliken Net Atomic Charges

     Atom                 Charge (a.u.)
  ----------------------------------------
      1 O                    -0.219844
      2 C                     0.212756
      3 C                    -0.080415
      4 C                    -0.078847
      5 C                     0.211885
      6 O                    -0.167703
      7 C                    -0.046003
      8 C                    -0.039227
      9 O                    -0.202773
     10 C                     0.222210
     11 C                    -0.080124
     12 C                    -0.078753
     13 C                     0.214087
     14 O                    -0.217312
     15 O                    -0.183520
     16 O                    -0.182449
     17 O                    -0.186309
     18 C                    -0.115609
     19 C                     0.028003
     20 C                    -0.144916
     21 C                    -0.145570
     22 C                     0.031531
     23 O                    -0.189907
     24 H                     0.087968
     25 H                     0.086468
     26 H                     0.088542
     27 H                     0.075727
     28 H                     0.074231
     29 H                     0.076417
     30 H                     0.073099
     31 H                     0.082985
     32 O                    -0.220776
     33 C                    -0.116171
     34 C                     0.032487
     35 C                    -0.143638
     36 C                    -0.145622
     37 C                     0.032314
     38 O                    -0.188977
     39 H                     0.087766
     40 H                     0.085327
     41 H                     0.088991
     42 H                     0.085863
     43 H                     0.077026
     44 H                     0.074144
     45 H                     0.076639
     46 H                     0.072716
     47 H                     0.082808
     48 H                     0.088234
     49 H                     0.092713
     50 H                     0.092439
     51 H                     0.089417
     52 H                     0.085632
     53 H                     0.094701
     54 H                     0.095384
     55 H                     0.087784
     56 H                     0.086171
  ----------------------------------------
  Sum of atomic charges =    -0.000000

 -----------------------------------------------------------------
                    Cartesian Multipole Moments
 -----------------------------------------------------------------
    Charge (ESU x 10^10)
                -0.0000
    Dipole Moment (Debye)
         X      -2.6755      Y       1.0314      Z      -2.3240
       Tot       3.6910
    Quadrupole Moments (Debye-Ang)
        XX    -145.0615     XY       1.2004     YY    -154.0249
        XZ      -1.4382     YZ       2.1158     ZZ    -167.6267
    Octopole Moments (Debye-Ang^2)
       XXX     -45.9766    XXY      -3.0243    XYY       5.2146
       YYY      26.9349    XXZ       3.9353    XYZ     -46.0366
       YYZ      21.4192    XZZ     -29.0345    YZZ      -5.2254
       ZZZ       1.3512
    Hexadecapole Moments (Debye-Ang^3)
      XXXX  -15470.4342   XXXY    -209.3791   XXYY   -3020.0559
      XYYY    -259.0409   YYYY   -2210.8145   XXXZ     104.9789
      XXYZ     -73.9340   XYYZ     -27.8405   YYYZ      82.6765
      XXZZ   -3131.3570   XYZZ     -90.0708   YYZZ    -682.4906
      XZZZ    -106.2361   YZZZ      13.7865   ZZZZ   -1854.6322
 -----------------------------------------------------------------
 Calculating analytic gradient of the SCF energy
 Gradient of SCF Energy
            1           2           3           4           5           6
    1  -0.0113254  -0.0140556   0.0168955   0.0040975   0.0078044   0.0033130
    2   0.0051416   0.0103411  -0.0221538   0.0186081  -0.0247432   0.0208930
    3  -0.0050424  -0.0217954   0.0142663   0.0153007  -0.0153278  -0.0092201
            7           8           9          10          11          12
    1  -0.0096458   0.0083134  -0.0072360   0.0322664  -0.0126804  -0.0026030
    2  -0.0072786   0.0140290   0.0234228  -0.0296020   0.0013037  -0.0139699
    3   0.0137442  -0.0102484   0.0286659  -0.0215537   0.0106132  -0.0015338
           13          14          15          16          17          18
    1   0.0098187  -0.0041436   0.0336621   0.0075654  -0.0150691  -0.0119569
    2   0.0044876  -0.0109838  -0.0033921   0.0041239   0.0061011   0.0075929
    3  -0.0271868  -0.0103336   0.0358624   0.0487616  -0.0127112  -0.0237135
           19          20          21          22          23          24
    1   0.0253124   0.0063389  -0.0010649  -0.0118333  -0.0168380  -0.0002525
    2   0.0029033  -0.0012841  -0.0096141  -0.0208298   0.0198093   0.0020405
    3   0.0062875   0.0133443   0.0042333  -0.0067346   0.0072219  -0.0036151
           25          26          27          28          29          30
    1  -0.0004852  -0.0075498   0.0044438  -0.0019762  -0.0013161   0.0012635
    2   0.0004816   0.0049174  -0.0022015   0.0011975  -0.0031403   0.0013940
    3   0.0032530  -0.0038978  -0.0011637  -0.0030185  -0.0048020   0.0028477
           31          32          33          34          35          36
    1  -0.0016013  -0.0092537  -0.0174260   0.0155861   0.0124608   0.0055462
    2   0.0088460  -0.0031845  -0.0115859  -0.0133900   0.0045040   0.0070810
    3   0.0024565   0.0129307  -0.0182507  -0.0108996  -0.0037482   0.0067783
           37          38          39          40          41          42
    1  -0.0071933  -0.0149592  -0.0017867   0.0019365  -0.0000538  -0.0078647
    2   0.0067542   0.0142139   0.0007131  -0.0049543  -0.0005970   0.0042361
    3   0.0249570  -0.0179286  -0.0007162  -0.0038217  -0.0018838  -0.0018025
           43          44          45          46          47          48
    1   0.0028113  -0.0030237  -0.0015692   0.0009061  -0.0033874  -0.0017667
    2  -0.0041618   0.0001697  -0.0020368  -0.0001820   0.0007810  -0.0007290
    3   0.0009393   0.0005530   0.0049893  -0.0026393  -0.0087013  -0.0001978
           49          50          51          52          53          54
    1   0.0008823   0.0011328  -0.0015038   0.0002232  -0.0019468   0.0002927
    2   0.0014602  -0.0011383  -0.0003152   0.0012623  -0.0031247   0.0003964
    3   0.0011618   0.0013654  -0.0010401  -0.0016438  -0.0004448  -0.0014009
           55          56
    1   0.0020057  -0.0015104
    2   0.0005028  -0.0051163
    3  -0.0014017  -0.0021143
 Max gradient component =       4.876E-02
 RMS gradient           =       1.158E-02
 Gradient time:  CPU 29.80 s  wall 0.63 s
 Geometry Optimization Parameters
   NAtoms,    NIC,     NZ,  NCons,   NDum,   NFix, NCnnct, MaxDiis
       56     458       0       9       0       0       0       0

 Cartesian Hessian Update
 Hessian Updated using BFGS Update


** CONSTRAINED OPTIMIZATION IN DELOCALIZED INTERNAL COORDINATES **
   Searching for a Minimum

   Optimization Cycle:   3

                       Coordinates (Angstroms)
     ATOM                X               Y               Z
      1  O        -3.0935754114    1.1459886362    1.7247277421
      2  C        -3.9388362091    1.4305270490    0.8520685455
      3  C        -4.7399490679    0.4317988829   -0.0136650051
      4  C        -3.9366120376   -0.2821568226   -1.1534678024
      5  C        -2.4104792311   -0.0081965163   -1.1286492189
      6  O        -1.7818817315   -0.9061875863   -0.2494548906
      7  C        -0.3476210599   -0.6334769440   -0.1498519848
      8  C         0.3531029630   -1.8769986666    0.4759333740
      9  O         1.7602558672   -1.9175025128    0.0928833780
     10  C         2.5315761661   -0.9206466950    0.7355505805
     11  C         2.8764474735    0.2607820052   -0.2126541224
     12  C         4.1654365901    1.0645986916    0.1690370921
     13  C         5.0725592139    0.3590998636    1.2092185255
     14  O         5.1466410588    0.6351066621    2.4236477047
     15  O        -4.3641721980    2.7442155220    0.6278037648
     16  O         5.6933772174   -0.7744289283    0.6737992461
     17  O         2.5121583077   -0.7823493251    1.9772485029
     18  C         6.4883265357   -1.5287337698    1.6001003149
     19  C         3.2082497750   -0.1241378515   -1.7050864447
     20  C         2.9009866808    1.1147097029   -2.6098384763
     21  C         4.0456299552    2.0787761845   -2.1860552597
     22  C         4.8720768177    1.1460007265   -1.2339519814
     23  O         4.6610225719   -0.1940882930   -1.7669365152
     24  H         1.9937633100    0.9291442176   -0.2080950820
     25  H         3.9141683598    2.0516359145    0.6010382607
     26  H         2.6842012069   -1.0317088487   -2.0649576271
     27  H         3.0642566418    0.8019375521   -3.6573363005
     28  H         1.8802423686    1.5253958009   -2.5182627278
     29  H         4.6371754758    2.3561838596   -3.0760249220
     30  H         3.7125559151    2.9921795707   -1.6632577061
     31  H         5.9342914166    1.4532887835   -1.1578686410
     32  O        -1.8655341635    1.0213588243   -1.5762557799
     33  C        -3.6994887602    3.7411168909    1.4188495781
     34  C        -5.2929831785   -0.7963433856    0.7991801380
     35  C        -6.5082496424   -1.3978991193    0.0192943831
     36  C        -5.7804116431   -2.0670482058   -1.1815970755
     37  C        -4.2834546455   -1.7856174191   -0.8100617285
     38  O        -4.2697950567   -1.8184368322    0.6445267725
     39  H        -5.5803652591    1.0010476696   -0.4578742749
     40  H        -4.3009330208   -0.0370312810   -2.1691078922
     41  H        -2.6057723069    3.7572848003    1.2212222061
     42  H        -5.5473074659   -0.5507290613    1.8495550017
     43  H        -6.9609726042   -2.1844849480    0.6497583010
     44  H        -7.2859503457   -0.6625048658   -0.2501697304
     45  H        -5.9725090244   -3.1543143645   -1.1604980807
     46  H        -6.0499980080   -1.6663372670   -2.1741700139
     47  H        -3.5951695135   -2.5066839555   -1.2946575611
     48  H        -3.8598377026    3.5741632920    2.5062369217
     49  H        -4.1288934510    4.7225316426    1.1391789215
     50  H         6.9153750456   -2.3850347185    1.0431102536
     51  H         5.8751319315   -1.9162432313    2.4426942582
     52  H         7.3196574726   -0.9208082923    2.0184695544
     53  H         0.1848649075   -1.9451402826    1.5740052417
     54  H        -0.0945672572   -2.7802204717    0.0089795965
     55  H        -0.1386955367    0.3018872854    0.4131148972
     56  H         0.0637681038   -0.5248057566   -1.1799334705
   Point Group: c1    Number of degrees of freedom:   162


   Energy is  -1510.227689073

              Constraints and their Current Values
                                        Value     Constraint
   Dihedral:        1   2   3   4      -73.753      -73.743
   Dihedral:        3   4   5   6       85.066       85.075
   Dihedral:        4   5   6   7     -177.176     -177.174
   Dihedral:        5   6   7   8     -163.424     -163.428
   Dihedral:        6   7   8   9      155.933      155.943
   Dihedral:        7   8   9  10       71.763       71.761
   Dihedral:        8   9  10  11     -103.997     -103.997
   Dihedral:        9  10  11  12     -155.101     -155.087
   Dihedral:       11  12  13  14     -102.360     -102.371
 Hessian Updated using BFGS Update

   Using Lagrange Multiplier Algorithm


160 Hessian modes will be used to form the next step
  Hessian Eigenvalues:
    -0.977754   -0.977753   -0.977753   -0.977753   -0.977753   -0.977753
    -0.977750   -0.977384    0.044955    0.045000    0.045001    0.045087
     0.045363    0.045526    0.045567    0.046167    0.048262    0.048860
     0.048887    0.054198    0.059263    0.059945    0.062260    0.062410
     0.066947    0.066970    0.067424    0.068050    0.069514    0.070503
     0.071608    0.073818    0.074172    0.075209    0.075843    0.076944
     0.077268    0.082399    0.082504    0.083200    0.083855    0.084201
     0.084351    0.085385    0.085574    0.085686    0.086753    0.086824
     0.086895    0.088296    0.088496    0.089014    0.089304    0.089782
     0.089990    0.093776    0.093820    0.096594    0.096687    0.111597
     0.111636    0.114655    0.114676    0.115891    0.115925    0.116852
     0.117485    0.117561    0.118657    0.119251    0.122608    0.124803
     0.130881    0.131487    0.131629    0.140723    0.141857    0.159866
     0.160009    0.161510    0.171625    0.172727    0.173229    0.173693
     0.219035    0.221561    0.223759    0.236559    0.239789    0.240760
     0.246296    0.248695    0.249728    0.252496    0.254490    0.258665
     0.260311    0.266863    0.267218    0.277991    0.280222    0.282729
     0.287844    0.294955    0.297264    0.301848    0.308079    0.310480
     0.311958    0.319209    0.319830    0.321427    0.321989    0.322426
     0.323004    0.323123    0.323226    0.323373    0.323487    0.323596
     0.323769    0.323843    0.324270    0.324503    0.324554    0.324618
     0.324699    0.324726    0.324881    0.324933    0.324964    0.325059
     0.325147    0.326744    0.326805    0.331719    0.368400    0.368527
     0.383437    0.392892    0.403918    0.406451    0.458653    0.492549
     0.514275    0.522330    0.528756    0.536976    0.931247    0.938439
     0.942377    1.006840    1.022753    1.022753    1.022753    1.022753
     1.022753    1.022753    1.022766    1.029920

 Minimum Search - Taking P-RFO Step
 Searching for Lamda that Maximizes Along the Constraint modes Only
 Value Taken    Lamda =   0.00000229
 Searching for Lamda that Minimizes Along All other modes
 Value Taken    Lamda =  -0.03730122
 Calculated Step too Large.  Step scaled by  0.649850
 Step Taken.  Stepsize is  0.300000

                             Maximum     Tolerance    Cnvgd?
         Gradient            0.032091       0.000300      NO
         Displacement        0.060270       0.001200      NO
         Energy change     -0.038470       0.000001      NO


 New Cartesian Coordinates Obtained by Inverse Iteration

 Displacement from previous Coordinates is:  0.974077
 Adding empirical dispersion correction 
 ----------------------------------------------------------------
 Doing -D3(op) with
 s6 =   1.00000
 s8 =   0.78311
 a1 =   0.30000
 a2 =   4.25000
 n  =  10.00000
 -D3 energy without 3body term =     -0.0670833368 hartrees
 ----------------------------------------------------------------
             Standard Nuclear Orientation (Angstroms)
    I     Atom           X                Y                Z
 ----------------------------------------------------------------
    1      O      -3.0321280749     1.1149778869     1.7015857115
    2      C      -3.9021103039     1.4066800592     0.8523658027
    3      C      -4.7592959039     0.4236735133     0.0025048182
    4      C      -3.9838179572    -0.2967594640    -1.1658812890
    5      C      -2.4476589631    -0.0156944706    -1.1466594943
    6      O      -1.8071327183    -0.9284658403    -0.2686908603
    7      C      -0.3637713129    -0.6370507298    -0.1838608159
    8      C       0.3476981036    -1.8919923155     0.4310785066
    9      O       1.7653427916    -1.9444446213     0.0443386786
   10      C       2.5347084718    -0.9310139217     0.7163148281
   11      C       2.8845101832     0.2675830888    -0.2288674670
   12      C       4.1688197201     1.0882241090     0.1669672744
   13      C       5.0544780875     0.3762414743     1.2384185713
   14      O       5.1071665335     0.6506476555     2.4570519521
   15      O      -4.3231912123     2.7371638722     0.6017575711
   16      O       5.6922150122    -0.7588637797     0.6788569543
   17      O       2.5692724625    -0.8477521350     1.9647135216
   18      C       6.4607550277    -1.4931139588     1.6797805368
   19      C       3.2195496366    -0.1124628862    -1.7276394638
   20      C       2.9061398711     1.1394113772    -2.6267854044
   21      C       4.0522003687     2.1117367966    -2.1886497886
   22      C       4.8913087765     1.1745118514    -1.2368096399
   23      O       4.6881951499    -0.1777679939    -1.7839434708
   24      H       1.9991895642     0.9303042610    -0.2138268481
   25      H       3.9083831904     2.0748599126     0.5911874056
   26      H       2.7167888950    -1.0343577281    -2.0793185938
   27      H       3.0604976742     0.8445720170    -3.6789292193
   28      H       1.8849056433     1.5410373666    -2.5195787796
   29      H       4.6470257371     2.4099035359    -3.0674743959
   30      H       3.7059462708     3.0148301952    -1.6597643864
   31      H       5.9563363763     1.4679116541    -1.1577677429
   32      O      -1.8854274704     0.9945844943    -1.6251154285
[...]
     15  O        -4.1193011018    2.6035509796    0.8445767321
     16  O         5.5758302483   -0.5652109913    0.9781736458
     17  O         2.8841340844   -1.1168661095    1.6072295587
     18  C         6.1465672976   -1.1561370400    2.2089250937
     19  C         3.2049690453   -0.0668936221   -1.9236877361
     20  C         3.1420462922    1.2174032944   -2.8395585827
     21  C         4.4532154025    1.9681923122   -2.3997820649
     22  C         5.0141267806    0.9839356270   -1.2982201578
     23  O         4.6538402784   -0.3545880890   -1.8206045582
     24  H         1.9264931933    0.9925050456   -0.4199949308
     25  H         3.8667219310    2.1974476008    0.1945956332
     26  H         2.6504259287   -0.9522455906   -2.2906583520
     27  H         3.1766097990    0.9318223669   -3.9029118421
     28  H         2.2306144197    1.8117210751   -2.6639783081
     29  H         5.1671191282    2.0554011284   -3.2342532698
     30  H         4.2549074139    2.9746997514   -1.9980283914
     31  H         6.1043121515    1.0477252320   -1.1175372284
     32  O        -2.0448512771    1.0040854321   -1.7647437773
     33  C        -3.1794471844    3.4360783031    1.6307949302
     34  C        -5.3543466418   -0.9263207724    0.9160790802
     35  C        -6.6281664122   -1.4459101125    0.1401940146
     36  C        -5.9665784698   -2.0540329849   -1.1515362492
     37  C        -4.4331555555   -1.8015620074   -0.8599113889
     38  O        -4.3258554892   -1.9448359970    0.6100832007
     39  H        -5.6612879417    1.0404456351   -0.1270038328
     40  H        -4.5869383062    0.1135509212   -2.0301816331
     41  H        -2.1249010987    3.2291840319    1.3567369305
     42  H        -5.4754078936   -0.8168738968    2.0111688562
     43  H        -7.1474512879   -2.2185319129    0.7293747077
     44  H        -7.3397435287   -0.6354920316   -0.0847979764
     45  H        -6.1695113353   -3.1329220925   -1.2418977780
     46  H        -6.2984571805   -1.5529147568   -2.0748232641
     47  H        -3.7352741611   -2.4938287497   -1.3685813998
     48  H        -3.2988683473    3.2679724774    2.7207916627
     49  H        -3.4256264084    4.4862631287    1.3891073636
     50  H         6.7238693330   -2.0409193283    1.8833879442
     51  H         5.3464254351   -1.4701882328    2.9100549542
     52  H         6.8183573911   -0.4458497083    2.7332554659
     53  H         0.2202093295   -1.9605236924    1.2587339757
     54  H        -0.1792938077   -2.7586072584   -0.3063983132
     55  H        -0.2498533809    0.2787678953    0.3334390771
     56  H        -0.0878761567   -0.3021169521   -1.3639857096
   Point Group: c1    Number of degrees of freedom:   162


   Energy is  -1510.263338839

              Constraints and their Current Values
                                        Value     Constraint
   Dihedral:        1   2   3   4      -73.743      -73.743
   Dihedral:        3   4   5   6       85.075       85.075
   Dihedral:        4   5   6   7     -177.174     -177.174
   Dihedral:        5   6   7   8     -163.428     -163.428
   Dihedral:        6   7   8   9      155.943      155.943
   Dihedral:        7   8   9  10       71.761       71.761
   Dihedral:        8   9  10  11     -103.997     -103.997
   Dihedral:        9  10  11  12     -155.087     -155.087
   Dihedral:       11  12  13  14     -102.371     -102.371
 Hessian Updated using BFGS Update

153 Hessian modes will be used to form the next step
  Hessian Eigenvalues:
     0.002829    0.008290    0.015249    0.023720    0.044776    0.045007
     0.045017    0.045067    0.045376    0.045583    0.047655    0.048837
     0.050239    0.054815    0.056028    0.060089    0.062313    0.064567
     0.066933    0.067024    0.067223    0.069504    0.070197    0.071244
     0.073761    0.074002    0.075007    0.075711    0.076671    0.078221
     0.081594    0.082380    0.083095    0.084123    0.084303    0.084686
     0.085379    0.085719    0.086088    0.086749    0.087007    0.087411
     0.088619    0.088961    0.089352    0.089767    0.089842    0.091019
     0.093788    0.093849    0.096599    0.096735    0.111606    0.111634
     0.114666    0.114741    0.115889    0.115932    0.117379    0.117648
     0.117811    0.118459    0.120698    0.122750    0.124863    0.130897
     0.131372    0.131614    0.141980    0.154579    0.159995    0.160003
     0.160044    0.160130    0.160537    0.161685    0.172832    0.173609
     0.173931    0.188993    0.219837    0.224580    0.232628    0.237059
     0.238389    0.241614    0.247147    0.248759    0.249926    0.249956
     0.250556    0.251230    0.253088    0.258856    0.265843    0.267043
     0.269346    0.274661    0.279976    0.281287    0.284894    0.290032
     0.294942    0.298070    0.300091    0.307409    0.310119    0.311021
     0.318595    0.320028    0.321522    0.322020    0.322470    0.322861
     0.323040    0.323184    0.323381    0.323547    0.323720    0.323789
     0.323953    0.324367    0.324550    0.324604    0.324649    0.324690
     0.324746    0.324886    0.324939    0.324977    0.325193    0.325845
     0.326774    0.326906    0.332509    0.333529    0.351590    0.365813
     0.368420    0.387971    0.418815    0.430011    0.437004    0.460028
     0.493201    0.517690    0.529057    0.539522    0.550566    0.931454
     0.939001    0.942519    1.034901

 Minimum Search - Taking Simple RFO Step
 Searching for Lamda that Minimizes Along All modes
 Value Taken    Lamda =   0.00000000
 Step Taken.  Stepsize is  0.003629

                             Maximum     Tolerance    Cnvgd?
         Gradient           0.000039      0.000300     YES
         Displacement       0.001671      0.001200      NO
         Energy change     -0.000001      0.000001     YES

 Final energy is   -1510.26333883874     


 ******************************
 **  OPTIMIZATION CONVERGED  **
 ******************************

                       Coordinates (Angstroms)
     ATOM                X               Y               Z
      1  O        -2.9514012354    0.7924284475    1.8304076376
      2  C        -3.8449732610    1.2142581398    1.0645759723
      3  C        -4.8303604325    0.3798959534    0.1766765068
      4  C        -4.1265993994   -0.2642620234   -1.1000305164
      5  C        -2.5925013828    0.0583573985   -1.1555960297
      6  O        -1.8857285264   -0.9019005238   -0.3665867715
      7  C        -0.4388286730   -0.5804180011   -0.3461116407
      8  C         0.3091225262   -1.8738509262    0.1529190271
      9  O         1.7146546921   -1.9186267299   -0.2966770989
     10  C         2.4999657399   -0.9264012646    0.4352505253
     11  C         2.8204945931    0.3427359379   -0.4401913342
     12  C         4.1173896391    1.1386734694    0.0051668886
     13  C         4.7973156599    0.5896597405    1.3110196489
     14  O         4.7161319604    1.0825338852    2.4570438435
     15  O        -4.1193011018    2.6035509796    0.8445767321
     16  O         5.5758302483   -0.5652109913    0.9781736458
     17  O         2.8841340844   -1.1168661095    1.6072295587
     18  C         6.1465672976   -1.1561370400    2.2089250937
     19  C         3.2049690453   -0.0668936221   -1.9236877361
     20  C         3.1420462922    1.2174032944   -2.8395585827
     21  C         4.4532154025    1.9681923122   -2.3997820649
     22  C         5.0141267806    0.9839356270   -1.2982201578
     23  O         4.6538402784   -0.3545880890   -1.8206045582
     24  H         1.9264931933    0.9925050456   -0.4199949308
     25  H         3.8667219310    2.1974476008    0.1945956332
     26  H         2.6504259287   -0.9522455906   -2.2906583520
     27  H         3.1766097990    0.9318223669   -3.9029118421
     28  H         2.2306144197    1.8117210751   -2.6639783081
     29  H         5.1671191282    2.0554011284   -3.2342532698
     30  H         4.2549074139    2.9746997514   -1.9980283914
     31  H         6.1043121515    1.0477252320   -1.1175372284
     32  O        -2.0448512771    1.0040854321   -1.7647437773
     33  C        -3.1794471844    3.4360783031    1.6307949302
     34  C        -5.3543466418   -0.9263207724    0.9160790802
     35  C        -6.6281664122   -1.4459101125    0.1401940146
     36  C        -5.9665784698   -2.0540329849   -1.1515362492
     37  C        -4.4331555555   -1.8015620074   -0.8599113889
     38  O        -4.3258554892   -1.9448359970    0.6100832007
     39  H        -5.6612879417    1.0404456351   -0.1270038328
     40  H        -4.5869383062    0.1135509212   -2.0301816331
     41  H        -2.1249010987    3.2291840319    1.3567369305
     42  H        -5.4754078936   -0.8168738968    2.0111688562
     43  H        -7.1474512879   -2.2185319129    0.7293747077
     44  H        -7.3397435287   -0.6354920316   -0.0847979764
     45  H        -6.1695113353   -3.1329220925   -1.2418977780
     46  H        -6.2984571805   -1.5529147568   -2.0748232641
     47  H        -3.7352741611   -2.4938287497   -1.3685813998
     48  H        -3.2988683473    3.2679724774    2.7207916627
     49  H        -3.4256264084    4.4862631287    1.3891073636
     50  H         6.7238693330   -2.0409193283    1.8833879442
     51  H         5.3464254351   -1.4701882328    2.9100549542
     52  H         6.8183573911   -0.4458497083    2.7332554659
     53  H         0.2202093295   -1.9605236924    1.2587339757
     54  H        -0.1792938077   -2.7586072584   -0.3063983132
     55  H        -0.2498533809    0.2787678953    0.3334390771
     56  H        -0.0878761567   -0.3021169521   -1.3639857096

Z-matrix Print:
$molecule
0 1
O 
C  1 1.429741
O  2 1.251153 1 124.054264
C  1 1.482326 2 110.150278 3 1.902294 0
H  4 1.111621 1 109.999261 2 75.858379 0
H  4 1.112064 1 110.467521 2 -43.532267 0
C  2 1.568639 1 109.012222 3 -179.076320 0
H  7 1.104462 2 107.904696 1 -152.831095 0
C  4 1.575256 1 106.843851 2 -163.428008 0
H  9 1.110098 4 108.326684 1 39.690064 0
H  9 1.112764 4 109.927493 1 -78.465537 0
O  9 1.476368 4 112.362235 1 155.943015 0
C  12 1.461829 9 109.777917 4 71.761010 0
O  13 1.247957 12 122.140097 9 77.805847 0
C  13 1.574753 12 112.211518 9 -103.996966 0
H  15 1.105372 13 107.395713 12 80.923762 0
C  15 1.585496 13 114.514370 12 -155.086984 0
H  17 1.104409 15 110.108059 13 -124.866422 0
C  17 1.571295 15 114.329939 13 -4.521870 0
O  19 1.250155 17 126.583434 15 -102.371015 0
O  19 1.431991 17 108.896888 15 79.379552 0
C  21 1.479758 19 109.780862 17 -175.940573 0
H  22 1.105483 21 106.028160 19 179.542116 0
H  22 1.109251 21 111.134421 19 60.457407 0
H  22 1.109384 21 111.776092 19 -61.082878 0
C  7 1.585852 2 113.190262 1 -27.997473 0
H  26 1.106805 7 114.509298 2 -37.034961 0
O  26 1.480853 7 103.302099 2 83.168499 0
C  28 1.479460 26 95.067791 7 57.419726 0
H  29 1.107184 28 110.403877 26 -179.387940 0
C  29 1.579426 28 103.449418 26 56.493197 0
H  31 1.101696 29 110.373747 28 82.088675 0
H  31 1.101699 29 112.286857 28 -156.452460 0
C  31 1.573556 29 101.029215 28 -35.966944 0
H  34 1.101521 31 111.617411 29 118.873016 0
H  34 1.101690 31 112.676125 29 -118.436480 0
C  15 1.586310 13 111.168494 12 -41.175462 0
H  37 1.107264 15 113.267931 13 34.648323 0
O  37 1.480751 15 102.839448 13 -85.181669 0
C  39 1.481330 37 94.989448 15 -57.386534 0
H  40 1.106896 39 110.437392 37 179.773486 0
C  37 1.578669 15 108.833266 13 165.242681 0
H  42 1.101577 37 110.356876 15 -167.110423 0
H  42 1.102157 37 112.285404 15 -45.752690 0
C  42 1.573611 37 101.116214 15 74.713426 0
H  45 1.101638 42 111.471407 37 116.501045 0
H  45 1.101721 42 112.818393 37 -120.870431 0
C  29 1.589805 28 103.905104 26 -56.154606 0
H  48 1.104078 29 111.804155 28 151.087892 0
C  48 1.567008 29 112.408344 28 -87.125346 0
O  50 1.250164 48 128.090850 29 39.464167 0
O  50 1.433105 48 107.988242 29 -141.388732 0
C  52 1.481407 50 109.991844 48 -178.113247 0
H  53 1.105398 52 106.056334 50 178.211314 0
H  53 1.109045 52 111.547340 50 58.975817 0
H  53 1.109330 52 111.593229 50 -62.538204 0
$end

 
 --------------------------------------------------------------
 
                    Orbital Energies (a.u.)
 --------------------------------------------------------------
 
 Alpha MOs
 -- Occupied --
-18.940 -18.937 -18.922 -18.913 -18.910 -18.891 -18.886 -18.878
-18.877 -18.861 -10.114 -10.103 -10.101 -10.090 -10.076 -10.074
-10.067 -10.063 -10.063 -10.058 -10.058 -10.053 -10.042 -10.040
-10.040 -10.033 -10.023 -10.022 -10.020 -10.018  -1.019  -1.015
 -1.012  -0.998  -0.972  -0.969  -0.946  -0.939  -0.938  -0.924
 -0.767  -0.762  -0.728  -0.722  -0.715  -0.706  -0.697  -0.666
 -0.651  -0.616  -0.600  -0.581  -0.551  -0.545  -0.540  -0.536
 -0.518  -0.511  -0.489  -0.479  -0.465  -0.463  -0.450  -0.443
 -0.435  -0.433  -0.425  -0.415  -0.412  -0.406  -0.404  -0.400
 -0.398  -0.389  -0.374  -0.365  -0.364  -0.359  -0.353  -0.351
 -0.344  -0.343  -0.336  -0.334  -0.330  -0.329  -0.325  -0.311
 -0.310  -0.309  -0.307  -0.302  -0.295  -0.285  -0.284  -0.280
 -0.276  -0.260  -0.254  -0.250  -0.242  -0.237  -0.232  -0.183
 -0.180  -0.166  -0.166  -0.164  -0.160  -0.151  -0.146  -0.144
 -0.140
 -- Virtual --
  0.068   0.093   0.096   0.112   0.210   0.232   0.244   0.251
  0.261   0.274   0.285   0.287   0.299   0.324   0.325   0.329
  0.332   0.342   0.343   0.349   0.351   0.356   0.361   0.364
  0.372   0.377   0.379   0.389   0.402   0.403   0.404   0.408
  0.410   0.415   0.419   0.420   0.428   0.429   0.431   0.434
  0.435   0.439   0.441   0.442   0.447   0.449   0.450   0.456
  0.464   0.470   0.483   0.488   0.491   0.497   0.511   0.533
  0.537   0.549   0.555   0.617   0.635   0.651   0.654
 --------------------------------------------------------------
 
          Ground-State Mulliken Net Atomic Charges

     Atom                 Charge (a.u.)
  ----------------------------------------
      1 O                    -0.210745
      2 C                     0.203786
      3 C                    -0.079076
      4 C                    -0.078059
      5 C                     0.205251
      6 O                    -0.163703
      7 C                    -0.052456
      8 C                    -0.046199
      9 O                    -0.191975
     10 C                     0.224586
     11 C                    -0.081418
     12 C                    -0.081995
     13 C                     0.210959
     14 O                    -0.216697
     15 O                    -0.168630
     16 O                    -0.170012
     17 O                    -0.175311
     18 C                    -0.127931
     19 C                     0.022692
     20 C                    -0.144752
     21 C                    -0.143934
     22 C                     0.026421
     23 O                    -0.186682
     24 H                     0.084100
     25 H                     0.082529
     26 H                     0.090890
     27 H                     0.078401
     28 H                     0.073727
     29 H                     0.077805
     30 H                     0.073356
     31 H                     0.085869
     32 O                    -0.216811
     33 C                    -0.128705
     34 C                     0.026178
     35 C                    -0.143629
     36 C                    -0.144371
     37 C                     0.026641
     38 O                    -0.183144
     39 H                     0.087029
     40 H                     0.085805
     41 H                     0.088874
     42 H                     0.085210
     43 H                     0.078636
     44 H                     0.073881
     45 H                     0.078486
     46 H                     0.073560
     47 H                     0.085338
     48 H                     0.089047
     49 H                     0.091429
     50 H                     0.088992
     51 H                     0.093165
     52 H                     0.085793
     53 H                     0.090133
     54 H                     0.095248
     55 H                     0.082802
     56 H                     0.089615
  ----------------------------------------
  Sum of atomic charges =    -0.000000

 -----------------------------------------------------------------
                    Cartesian Multipole Moments
 -----------------------------------------------------------------
    Charge (ESU x 10^10)
                -0.0000
    Dipole Moment (Debye)
         X      -2.8821      Y       1.4957      Z      -1.7324
       Tot       3.6803
    Quadrupole Moments (Debye-Ang)
        XX    -146.4824     XY       4.2188     YY    -157.8781
        XZ      -0.6184     YZ       1.3559     ZZ    -164.3273
    Octopole Moments (Debye-Ang^2)
       XXX     -61.8500    XXY       3.1215    XYY       5.6335
       YYY      26.7078    XXZ      12.3952    XYZ     -48.0542
       YYZ      19.0868    XZZ     -10.7043    YZZ      -4.7922
       ZZZ      23.1600
    Hexadecapole Moments (Debye-Ang^3)
      XXXX  -15462.5807   XXXY    -323.0400   XXYY   -3085.3467
      XYYY    -465.0898   YYYY   -2104.4130   XXXZ     260.7921
      XXYZ    -102.9366   XYYZ       2.2229   YYYZ      51.3918
      XXZZ   -3073.0173   XYZZ    -181.6632   YYZZ    -711.2591
      XZZZ       7.9478   YZZZ     -16.1150   ZZZZ   -2106.4017
 -----------------------------------------------------------------
Archival summary:
1\1\vega02.cac.cornell.edu\OPT\ProcedureUnspecified\STO-3G\102026\jj585\SunJan1410:29:582018SunJan1410:29:582018\0\\#,OPT,ProcedureUnspecified,STO-3G,\\0,1\O\C,1,1.42974\O,2,1.25115,1,124.054\C,1,1.48233,2,110.15,3,1.90229,0\H,4,1.11162,1,109.999,2,75.8584,0\H,4,1.11206,1,110.468,2,-43.5323,0\C,2,1.56864,1,109.012,3,-179.076,0\H,7,1.10446,2,107.905,1,-152.831,0\C,4,1.57526,1,106.844,2,-163.428,0\H,9,1.1101,4,108.327,1,39.6901,0\H,9,1.11276,4,109.927,1,-78.4655,0\O,9,1.47637,4,112.362,1,155.943,0\C,12,1.46183,9,109.778,4,71.761,0\O,13,1.24796,12,122.14,9,77.8058,0\C,13,1.57475,12,112.212,9,-103.997,0\H,15,1.10537,13,107.396,12,80.9238,0\C,15,1.5855,13,114.514,12,-155.087,0\H,17,1.10441,15,110.108,13,-124.866,0\C,17,1.57129,15,114.33,13,-4.52187,0\O,19,1.25015,17,126.583,15,-102.371,0\O,19,1.43199,17,108.897,15,79.3796,0\C,21,1.47976,19,109.781,17,-175.941,0\H,22,1.10548,21,106.028,19,179.542,0\H,22,1.10925,21,111.134,19,60.4574,0\H,22,1.10938,21,111.776,19,-61.0829,0\C,7,1.58585,2,113.19,1,-27.9975,0\H,26,1.1068,7,114.509,2,-37.035,0\O,26,1.48085,7,103.302,2,83.1685,0\C,28,1.47946,26,95.0678,7,57.4197,0\H,29,1.10718,28,110.404,26,-179.388,0\C,29,1.57943,28,103.449,26,56.4932,0\H,31,1.1017,29,110.374,28,82.0887,0\H,31,1.1017,29,112.287,28,-156.452,0\C,31,1.57356,29,101.029,28,-35.9669,0\H,34,1.10152,31,111.617,29,118.873,0\H,34,1.10169,31,112.676,29,-118.436,0\C,15,1.58631,13,111.168,12,-41.1755,0\H,37,1.10726,15,113.268,13,34.6483,0\O,37,1.48075,15,102.839,13,-85.1817,0\C,39,1.48133,37,94.9894,15,-57.3865,0\H,40,1.1069,39,110.437,37,179.773,0\C,37,1.57867,15,108.833,13,165.243,0\H,42,1.10158,37,110.357,15,-167.11,0\H,42,1.10216,37,112.285,15,-45.7527,0\C,42,1.57361,37,101.116,15,74.7134,0\H,45,1.10164,42,111.471,37,116.501,0\H,45,1.10172,42,112.818,37,-120.87,0\C,29,1.5898,28,103.905,26,-56.1546,0\H,48,1.10408,29,111.804,28,151.088,0\C,48,1.56701,29,112.408,28,-87.1253,0\O,50,1.25016,48,128.091,29,39.4642,0\O,50,1.43311,48,107.988,29,-141.389,0\C,52,1.48141,50,109.992,48,-178.113,0\H,53,1.1054,52,106.056,50,178.211,0\H,53,1.10904,52,111.547,50,58.9758,0\H,53,1.10933,52,111.593,50,-62.5382,0\\\@

 Total job time:  56.77s(wall), 2700.81s(cpu) 
 Sun Jan 14 10:29:58 2018

        *************************************************************
        *                                                           *
        *  Thank you very much for using Q-Chem.  Have a nice day.  *
        *                                                           *
        *************************************************************


0 sent ACK to 0 
now end server 0 ... 
