mFile = /opt/software/qchem/qchem-5.0.1//bin/mpi/machines
Process 0 of 1 is on vega02.cac.cornell.edu - thread support 0
initial socket setup ...start
initial socket setup ...done 
now start server 0 ... 
vega02.cac.cornell.edu 10.84.3
Q-Chem Developer Version! Running on 10.84.3.*
                  Welcome to Q-Chem
     A Quantum Leap Into The Future Of Chemistry


 Q-Chem 5.0, Q-Chem, Inc., Pleasanton, CA (2017)

 Yihan Shao,  Zhengting Gan,  E. Epifanovsky,  A. T. B. Gilbert,  M. Wormit,  
 J. Kussmann,  A. W. Lange,  A. Behn,  Jia Deng,  Xintian Feng,  D. Ghosh,  
 M. Goldey,  P. R. Horn,  L. D. Jacobson,  I. Kaliman,  T. Kus,  A. Landau,  
 Jie Liu,  E. I. Proynov,  R. M. Richard,  R. P. Steele,  E. J. Sundstrom,  
 H. L. Woodcock III,  P. M. Zimmerman,  D. Zuev,  B. Albrecht,  E. Alguire,  
 S. A. Baeppler,  Z. Benda,  Y. A. Bernard,  E. J. Berquist,  K. B. Bravaya,  
 D. Casanova,  Chun-Min Chang,  Yunqing Chen,  A. Chien,  K. D. Closser,  
 M. P. Coons,  S. Dasgupta,  M. Diedenhofen,  Hainam Do,  R. G. Edgar,  
 Po-Tung Fang,  S. Fatehi,  Qingguo Feng,  Qinghui Ge,  A. Ghysels,  
 J. Gomes,  J. Gonthier,  A. Gunina,  M. W. D. Hanson-Heine,  
 P. H. P. Harbach,  A. W. Hauser,  J. E. Herr,  E. G. Hohenstein,  
 Z. C. Holden,  Kerwin Hui,  T.-C. Jagau,  Hyunjun Ji,  B. Kaduk,  
 K. Khistyaev,  Jaehoon Kim,  P. Klunzinger,  K. Koh,  D. Kosenkov,  
 T. Kowalczyk,  C. M. Krauter,  A. Kunitsa,  Ka Un Lao,  A. Laurent,  
 K. V. Lawler,  Joonho Lee,  D. Lefrancois,  S. Lehtola,  D. S. Levine,  
 Yi-Pei Li,  You-Sheng Lin,  Fenglai Liu,  E. Livshits,  A. Luenser,  
 P. Manohar,  E. Mansoor,  S. F. Manzer,  Shan-Ping Mao,  Yuezhi Mao,  
 N. Mardirossian,  A. V. Marenich,  L. A. Martinez-Martinez,  S. A. Maurer,  
 N. J. Mayhall,  S. C. McKenzie,  J.-M. Mewes,  A. F. Morrison,  K. Nanda,  
 T. S. Nguyen-Beck,  R. Olivares-Amaya,  J. A. Parkhill,  T. M. Perrine,  
 F. Plasser,  S. Prager,  A. Prociuk,  D. R. Rehn,  F. Rob,  M. Schneider,  
 N. Sergueev,  S. M. Sharada,  S. Sharma,  D. W. Small,  T. Stauch,  
 T. Stein,  Yu-Chuan Su,  A. J. W. Thom,  T. Tsuchimochi,  L. Vogt,  
 O. Vydrov,  M. A. Watson,  J. Wenzel,  M. de Wergifosse,  T. A. Wesolowski,  
 A. White,  J. Witte,  A. Yamada,  Jun Yang,  K. Yao,  S. Yeganeh,  
 S. R. Yost,  Zhi-Qiang You,  A. Zech,  Igor Ying Zhang,  Xing Zhang,  
 Yan Zhao,  Ying Zhu,  B. R. Brooks,  G. K. L. Chan,  C. J. Cramer,  
 M. S. Gordon,  W. J. Hehre,  A. Klamt,  M. W. Schmidt,  C. D. Sherrill,  
 D. G. Truhlar,  A. Aspuru-Guzik,  R. Baer,  A. T. Bell,  N. A. Besley,  
 Jeng-Da Chai,  A. Dreuw,  B. D. Dunietz,  T. R. Furlani,  Chao-Ping Hsu,  
 Yousung Jung,  Jing Kong,  D. S. Lambrecht,  WanZhen Liang,  C. Ochsenfeld,  
 V. A. Rassolov,  L. V. Slipchenko,  J. E. Subotnik,  T. Van Voorhis,  
 J. M. Herbert,  A. I. Krylov,  P. M. W. Gill,  M. Head-Gordon

 Contributors to earlier versions of Q-Chem not listed above: 
 R. D. Adamson,  B. Austin,  J. Baker,  G. J. O. Beran,  K. Brandhorst,  
 S. T. Brown,  E. F. C. Byrd,  A. K. Chakraborty,  C.-L. Cheng,  
 Siu Hung Chien,  D. M. Chipman,  D. L. Crittenden,  H. Dachsel,  
 R. A. DiStasio Jr.,  R. J. Doerksen,  A. D. Dutoi,  L. Fusti-Molnar,  
 W. A. Goddard III,  A. Golubeva-Zadorozhnaya,  S. R. Gwaltney,  G. Hawkins,  
 A. Heyden,  S. Hirata,  G. Kedziora,  F. J. Keil,  C. Kelley,  Jihan Kim,  
 R. A. King,  R. Z. Khaliullin,  P. P. Korambath,  W. Kurlancheek,  
 A. M. Lee,  M. S. Lee,  S. V. Levchenko,  Ching Yeh Lin,  D. Liotard,  
 R. C. Lochan,  I. Lotan,  P. E. Maslen,  N. Nair,  D. P. O'Neill,  
 D. Neuhauser,  E. Neuscamman,  C. M. Oana,  R. Olson,  B. Peters,  
 R. Peverati,  P. A. Pieniazek,  Y. M. Rhee,  J. Ritchie,  M. A. Rohrdanz,  
 E. Rosta,  N. J. Russ,  H. F. Schaefer III,  N. E. Schultz,  N. Shenvi,  
 A. C. Simmonett,  A. Sodt,  D. Stuck,  K. S. Thanthiriwatte,  V. Vanovschi,  
 Tao Wang,  A. Warshel,  C. F. Williams,  Q. Wu,  X. Xu,  W. Zhang

 Please cite Q-Chem as follows:
 Y. Shao et al., Mol. Phys. 113, 184-215 (2015)
 DOI: 10.1080/00268976.2014.952696

 Q-Chem 5.0.1 for Intel X86 EM64T Linux

 Parts of Q-Chem use Armadillo 5.200.1 (Boston Tea Smuggler).
 http://arma.sourceforge.net/

 Q-Chem begins on Sun Jan 14 10:47:31 2018  

Host: vega02.cac.cornell.edu
0

     Scratch files written to /scratch/jj585/SOT1001/0400r.save//
 Parallel job on  1  processors

Checking the input file for inconsistencies... 	...done.

--------------------------------------------------------------
User input:
--------------------------------------------------------------
$molecule
0  1
O -3.7694582111 2.3030704384 0.352456449
C -3.9601030003 1.5252202254 -0.6061015386
C -4.7993353817 0.1978207377 -0.6155122646
C -3.8868362765 -1.1085935692 -0.5890897094
C -2.3607771815 -0.7850988931 -0.7372109925
O -1.8115445483 -0.5024985344 0.5554971997
C -0.3825397671 -0.1284642104 0.4164475696
C 0.153769597 0.1211160075 1.8741564726
O 1.6189177306 0.014650091 2.0309438637
C 2.3157638658 0.7865764458 0.9939521307
C 2.8399105921 -0.1338139874 -0.1742433362
C 4.1226737956 0.2938296846 -0.9941715135
C 5.2657451959 1.0975149797 -0.2553015784
O 6.4297609158 1.2259447775 -0.6974105353
O -3.394483278 1.6990736723 -1.9106285902
O 4.8667213733 1.5350663562 1.0404500651
O 2.3515531179 2.0328471015 1.0108969804
C 6.001079651 2.1981518869 1.723893969
C 3.1736924449 -1.6463548988 0.1901451167
C 2.7321871085 -2.5216486474 -1.045013552
C 3.7855325502 -2.0486006438 -2.1153642546
C 4.7478916202 -1.1511040412 -1.2385412938
O 4.6507926153 -1.7307158938 0.1256898131
H 1.9963386795 -0.1315643426 -0.8907389456
H 3.8589597228 0.8166124316 -1.93129808
H 2.7936699265 -1.9652924807 1.1800888151
H 2.8478556678 -3.5930379575 -0.8146599616
H 1.6910308474 -2.3351088541 -1.3547257801
H 4.336494274 -2.8973658929 -2.5499680499
H 3.3256385216 -1.4724028088 -2.934460255
H 5.8029184194 -1.1187350588 -1.5742766959
O -1.6890885502 -0.780314799 -1.7918719716
C -2.5292623365 2.9003900794 -1.9364693195
C -5.5867037037 0.0340137867 0.7491260639
C -6.6453219154 -1.1271055664 0.5889839215
C -5.7174812619 -2.3969989056 0.6528811064
C -4.2952555185 -1.7272832017 0.8143316733
O -4.5667505825 -0.5412203864 1.6570528967
H -5.4639009858 0.1978910359 -1.4978947868
H -4.1573684642 -1.7793896712 -1.4242062951
H -1.6954808935 2.8183928326 -1.2092552777
H -5.9747375715 0.9850409405 1.1621401538
H -7.3660990774 -1.1100321315 1.4218573585
H -7.2007721154 -1.0530955998 -0.3597222401
H -5.9474769948 -3.0214471584 1.5309370009
H -5.7852568754 -3.021138999 -0.2524077295
H -3.5201456897 -2.365601967 1.2799918582
H -3.1019353128 3.8230946799 -1.7107000581
H -2.1201541225 2.959190478 -2.9617929999
H 5.6300099674 2.4676307755 2.7297498811
H 6.3188530707 3.1150837794 1.1870507272
H 6.873984232 1.520135969 1.8141851788
H -0.2183867304 1.1121379007 2.223132203
H -0.267510876 -0.6574967454 2.5438926425
H -0.2709763153 0.7787609313 -0.2155817589
H 0.1759178143 -0.9585280714 -0.0671303617
$end

$rem
JOBTYPE                   OPT
METHOD                    B3LYP
DFT_D                     d3_op
BASIS                     STO-3G
GEOM_OPT_MAX_CYCLES       100
GEOM_OPT_TOL_GRADIENT     300
GEOM_OPT_TOL_DISPLACEMENT 1200
GEOM_OPT_TOL_ENERGY       100
SYMMETRY                  False
THRESH                    12
SCF_CONVERGENCE           8
MAX_SUB_FILE_NUM          128
MEM_STATIC                400
MEM_TOTAL                 4000
$end
--------------------------------------------------------------
 Adding empirical dispersion correction 
 ----------------------------------------------------------------
 Doing -D3(op) with
 s6 =   1.00000
 s8 =   0.78311
 a1 =   0.30000
 a2 =   4.25000
 n  =  10.00000
 -D3 energy without 3body term =     -0.0682713823 hartrees
 ----------------------------------------------------------------
             Standard Nuclear Orientation (Angstroms)
    I     Atom           X                Y                Z
 ----------------------------------------------------------------
    1      O       3.6522826539    -2.5023609372    -0.0456180132
    2      C       3.8770281739    -1.5982112366    -0.8776231666
    3      C       4.7808406717    -0.3267911609    -0.6959561316
    4      C       3.9341988578     1.0029716544    -0.4614361891
    5      C       2.3933817557     0.7796827935    -0.6388335511
    6      O       1.8364292201     0.3310738880     0.6026042610
    7      C       0.3900861051     0.0518321461     0.4253846706
    8      C      -0.1516135427    -0.3898317544     1.8347560751
    9      O      -1.6090118044    -0.2378354890     2.0230743499
   10      C      -2.3476562433    -0.8089935094     0.8894961231
   11      C      -2.8306753669     0.3021595875    -0.1197413665
   12      C      -4.1365482775     0.0662277500    -0.9797848955
   13      C      -5.3147720181    -0.7841596585    -0.3576264483
   14      O      -6.4856131285    -0.7877362863    -0.8003514657
   15      O       3.2978752013    -1.5446670165    -2.1866901513
   16      O      -4.9322886466    -1.4319454267     0.8522180081
   17      O      -2.4449711994    -2.0402169422     0.7180983290
   18      C      -6.0950949470    -2.1355380029     1.4407634076
   19      C      -3.0876592307     1.7562360585     0.4732090435
   20      C      -2.6087369056     2.7864468184    -0.6204006866
   21      C      -3.6888018744     2.5326127208    -1.7375352237
   22      C      -4.6905807027     1.5599658258    -0.9953419652
   23      O      -4.5590432572     1.9205484565     0.4396432947
   24      H      -1.9913482693     0.3679411050    -0.8382031999
   25      H      -3.9030629332    -0.3204466026    -1.9882593143
   26      H      -2.6880564865     1.9026009340     1.4954721172
   27      H      -2.6702753400     3.8148092012    -0.2292474216
   28      H      -1.5794283933     2.5990481309    -0.9669996438
   29      H      -4.1989786944     3.4630610099    -2.0321999853
   30      H      -3.2615109986     2.0658361581    -2.6397363478
   31      H      -5.7473567341     1.6298310056    -1.3196733302
   32      O       1.7177318779     0.9673519945    -1.6740996036
   33      C       2.3741903302    -2.6850104707    -2.3838175116
   34      C       5.5812313406    -0.4100689288     0.6683968102
   35      C       6.6952838382     0.7094750821     0.6733380999
   36      C       5.8316747780     1.9982377008     0.9395532862
   37      C       4.3787746324     1.3811717857     1.0145352731
   38      O       4.5949079280     0.0692954898     1.6648433652
   39      H       5.4407738859    -0.2250584016    -1.5759475867
   40      H       4.2339710453     1.7788527272    -1.1885675274
   41      H       1.5486323724    -2.6741595092    -1.6428103451
   42      H       5.9235299685    -1.4303410226     0.9281660775
   43      H       7.4179231205     0.5315045613     1.4855008563
   44      H       7.2422926989     0.7535356103    -0.2821124520
   45      H       6.0960639008     2.4704277496     1.8992150813
   46      H       5.9263298205     2.7484830019     0.1383887105
   47      H       3.6382035422     1.9780983296     1.5805022883
   48      H       2.9014928910    -3.6578222104    -2.3070112265
   49      H       1.9582519215    -2.5677850819    -3.4013484034
   50      H      -5.7334695369    -2.5720686296     2.3898291441
   51      H      -6.4601472819    -2.9440103435     0.7751404096
   52      H      -6.9329971644    -1.4377595404     1.6428663175
   53      H       0.1725724518    -1.4391080756     2.0253641230
   54      H       0.3105503570     0.2569324788     2.6095864757
   55      H       0.2310586067    -0.7425641341    -0.3352793409
   56      H      -0.1287137589     0.9716084923     0.0795716095
 ----------------------------------------------------------------
 Molecular Point Group                 C1    NOp =  1
 Largest Abelian Subgroup              C1    NOp =  1
 Nuclear Repulsion Energy =  3105.6507195712 hartrees
 There are      113 alpha and      113 beta electrons
 Requested basis set is STO-3G
 There are 86 shells and 176 basis functions

 Total QAlloc Memory Limit   4000 MB
 Mega-Array Size       392 MB
 MEM_STATIC part       400 MB
 A cutoff of  1.0D-12 yielded   2155 shell pairs
 There are     10006 function pairs
 
 -------------------------------------------------------
 OpenMP Integral Computing Module                       
 Release: version 1.0, May 2013, Q-Chem Inc. Pittsburgh 
 -------------------------------------------------------
 Integral Job Info:
 Integral job number is                      11
 Integral operator is                         1
 short-range coefficients                     0
 long-range coefficients              100000000
 Omega coefficients                           0
 if combine SR and LR in K                    0
 Integral screening is                        0
 Integral computing path is                   2
 max size of driver memory is            800000
 size of driver memory is                 45569
 size of scratch memory is              1046100
 max col of scratch BK array                289
 max len of scratch array in speh3           22
 max len of scratch index in speh4            8
 max int batch size is                      520
 min int batch size is                       52
 fixed nKL is                                52
 max L of basis functions is                  1
 order of int derivative is                   0
 number of shells is                         86
 number of basis is                         176
 number of cartesian basis is               176
 number of contracted shell pairs          2155
 number of primitive shell pairs          11065
 maxK2 (contraction) of shell pair            9
 max number of K2 of shell pair               1
 max number of CS2 of shell pair            336
 max number of PS2 of shell pair           1242
 mem total for path MDJ                   49782
 -------------------------------------------------------
 Smallest overlap matrix eigenvalue = 2.13E-01

 Scale SEOQF with 1.000000e-02/1.000000e-01/1.000000e-01

 Standard Electronic Orientation quadrupole field applied
 Nucleus-field energy     =     0.0000000152 hartrees
 Guess from superposition of atomic densities
 Warning:  Energy on first SCF cycle will be non-variational
 A restricted hybrid HF-DFT SCF calculation will be
 performed using Pulay DIIS extrapolation
 Exchange:     0.2000 Hartree-Fock + 0.0800 Slater + 0.7200 B88
 Correlation:  0.1900 VWN1RPA + 0.8100 LYP
 Using SG-1 standard quadrature grid
 Dispersion:   Grimme D3
 SCF converges when DIIS error is below 1.0E-08
 using 48 threads for integral computing
 -------------------------------------------------------
 OpenMP Integral computing Module                
 Release: version 1.0, May 2013, Q-Chem Inc. Pittsburgh 
 -------------------------------------------------------
 -------------------------------------------------------
 OpenMP BLAS3 based DFT computing Module                
 Release: version 1.0, May 2013, Q-Chem Inc. Pittsburgh 
 -------------------------------------------------------
 ---------------------------------------
  Cycle       Energy         DIIS Error
 ---------------------------------------
    1   -1507.5904072379      7.45E-02
    2   -1509.6852374291      1.06E-02
    3   -1507.3925561753      2.67E-02
    4   -1510.1712845299      4.11E-03
    5   -1510.2398774384      1.46E-03
    6   -1510.2477119702      6.52E-04
    7   -1510.2495137113      1.42E-04
    8   -1510.2495975988      3.81E-05
    9   -1510.2496028663      1.59E-05
   10   -1510.2496038570      5.99E-06
   11   -1510.2496040094      1.50E-06
   12   -1510.2496040198      2.87E-07
   13   -1510.2496040200      2.12E-07
   14   -1510.2496040201      5.70E-08
   15   -1510.2496040202      1.09E-08
   16   -1510.2496040201      4.28E-09 Convergence criterion met
 ---------------------------------------
 SCF time:  CPU 115.97 s  wall 2.47 s
 SCF   energy in the final basis set = -1510.24960402
 Total energy in the final basis set = -1510.24960402
 
 --------------------------------------------------------------
 
                    Orbital Energies (a.u.)
 --------------------------------------------------------------
 
 Alpha MOs
 -- Occupied --
-18.941 -18.937 -18.936 -18.904 -18.902 -18.889 -18.887 -18.881
-18.880 -18.867 -10.110 -10.105 -10.101 -10.097 -10.078 -10.075
-10.067 -10.063 -10.061 -10.061 -10.059 -10.059 -10.042 -10.041
-10.040 -10.038 -10.023 -10.022 -10.022 -10.021  -1.020  -1.013
 -1.012  -1.004  -0.972  -0.971  -0.944  -0.939  -0.936  -0.931
 -0.767  -0.764  -0.729  -0.723  -0.716  -0.705  -0.698  -0.666
 -0.660  -0.618  -0.602  -0.584  -0.551  -0.545  -0.540  -0.538
 -0.519  -0.512  -0.486  -0.478  -0.469  -0.468  -0.447  -0.443
 -0.437  -0.434  -0.431  -0.417  -0.413  -0.410  -0.407  -0.401
 -0.393  -0.388  -0.376  -0.374  -0.365  -0.357  -0.354  -0.352
 -0.350  -0.344  -0.337  -0.335  -0.333  -0.331  -0.320  -0.312
 -0.311  -0.309  -0.309  -0.299  -0.298  -0.295  -0.286  -0.281
 -0.275  -0.262  -0.254  -0.249  -0.239  -0.236  -0.231  -0.186
 -0.179  -0.175  -0.163  -0.160  -0.157  -0.154  -0.149  -0.145
 -0.144
 -- Virtual --
  0.075   0.092   0.097   0.104   0.205   0.230   0.240   0.249
  0.260   0.269   0.278   0.285   0.295   0.313   0.323   0.326
  0.331   0.336   0.337   0.341   0.346   0.348   0.360   0.365
  0.371   0.376   0.382   0.383   0.399   0.402   0.405   0.409
  0.411   0.412   0.419   0.421   0.426   0.428   0.430   0.432
  0.435   0.436   0.440   0.442   0.446   0.448   0.450   0.455
  0.466   0.472   0.479   0.487   0.498   0.502   0.514   0.533
  0.536   0.550   0.556   0.622   0.634   0.639   0.646
 --------------------------------------------------------------
 
          Ground-State Mulliken Net Atomic Charges

     Atom                 Charge (a.u.)
  ----------------------------------------
      1 O                    -0.207843
      2 C                     0.205890
      3 C                    -0.077755
      4 C                    -0.078622
      5 C                     0.205399
      6 O                    -0.167853
      7 C                    -0.053094
      8 C                    -0.046969
      9 O                    -0.195332
     10 C                     0.224256
     11 C                    -0.083762
     12 C                    -0.076338
     13 C                     0.211384
     14 O                    -0.218924
     15 O                    -0.169824
     16 O                    -0.164138
     17 O                    -0.176110
     18 C                    -0.125956
     19 C                     0.021335
     20 C                    -0.142436
     21 C                    -0.146028
     22 C                     0.023767
     23 O                    -0.191724
     24 H                     0.082856
     25 H                     0.085250
     26 H                     0.092108
     27 H                     0.078417
     28 H                     0.071912
     29 H                     0.079243
     30 H                     0.074399
     31 H                     0.089058
     32 O                    -0.213155
     33 C                    -0.128041
     34 C                     0.025190
     35 C                    -0.144427
     36 C                    -0.143689
     37 C                     0.025884
     38 O                    -0.185216
     39 H                     0.086576
     40 H                     0.085587
     41 H                     0.086477
     42 H                     0.088556
     43 H                     0.078671
     44 H                     0.073339
     45 H                     0.078376
     46 H                     0.073334
     47 H                     0.085511
     48 H                     0.089707
     49 H                     0.092522
     50 H                     0.093105
     51 H                     0.089381
     52 H                     0.091422
     53 H                     0.086291
     54 H                     0.095049
     55 H                     0.082839
     56 H                     0.084143
  ----------------------------------------
  Sum of atomic charges =     0.000000

 -----------------------------------------------------------------
                    Cartesian Multipole Moments
 -----------------------------------------------------------------
    Charge (ESU x 10^10)
                 0.0000
    Dipole Moment (Debye)
         X       2.6662      Y       1.3901      Z      -1.7251
       Tot       3.4666
    Quadrupole Moments (Debye-Ang)
        XX    -158.7150     XY       6.3215     YY    -157.7935
        XZ      -3.9454     YZ       3.1945     ZZ    -162.9781
    Octopole Moments (Debye-Ang^2)
       XXX     158.1686    XXY      -5.7137    XYY      -7.9920
       YYY     -19.8191    XXZ       9.2124    XYZ      33.7496
       YYZ      -9.1312    XZZ     -23.2897    YZZ     -18.7419
       ZZZ       5.8257
    Hexadecapole Moments (Debye-Ang^3)
      XXXX  -16046.3656   XXXY     234.1508   XXYY   -2996.0512
      XYYY      22.8950   YYYY   -2386.4781   XXXZ    -373.4227
      XXYZ    -101.9445   XYYZ     -33.5180   YYYZ      31.6280
      XXZZ   -2941.9725   XYZZ       4.5517   YYZZ    -614.8053
      XZZZ     -37.8654   YZZZ      28.1586   ZZZZ   -1534.6651
 -----------------------------------------------------------------
 Calculating analytic gradient of the SCF energy
 Gradient of SCF Energy
            1           2           3           4           5           6
    1  -0.0002822   0.0002947   0.0002109  -0.0002629   0.0000340  -0.0009298
    2   0.0004172  -0.0012627   0.0012335   0.0001814  -0.0032723   0.0042907
    3   0.0004792  -0.0004266  -0.0026492   0.0038021  -0.0020374   0.0011770
            7           8           9          10          11          12
    1   0.0000834   0.0002731   0.0052953  -0.0100899   0.0007681   0.0039578
    2  -0.0051881   0.0085617  -0.0108085   0.0047797   0.0046956  -0.0044736
    3  -0.0012596  -0.0024058   0.0028108   0.0022692   0.0029229  -0.0040176
           13          14          15          16          17          18
    1   0.0003955  -0.0008155  -0.0000873   0.0001812  -0.0000216  -0.0000598
    2  -0.0039253   0.0033549   0.0000264   0.0001705   0.0001451   0.0000462
    3  -0.0030363   0.0025796   0.0000288  -0.0001829   0.0000451   0.0000121
           19          20          21          22          23          24
    1  -0.0003781  -0.0001703   0.0004096  -0.0000982   0.0000496   0.0005182
    2   0.0004567   0.0002565   0.0000525   0.0000096   0.0001308  -0.0001760
    3  -0.0006262   0.0001987   0.0002810   0.0000375   0.0001464   0.0001037
           25          26          27          28          29          30
    1   0.0000682   0.0000232  -0.0000237   0.0001235   0.0000043  -0.0002308
    2   0.0000247  -0.0000149  -0.0000323   0.0001274   0.0000225  -0.0000445
    3   0.0000597  -0.0000348   0.0000214  -0.0000329  -0.0000889   0.0000451
           31          32          33          34          35          36
    1   0.0000714   0.0001566   0.0002179  -0.0002442  -0.0000636  -0.0000167
    2  -0.0000162  -0.0000385   0.0000687  -0.0004622   0.0002075   0.0000191
    3  -0.0000245   0.0001345  -0.0000131  -0.0000449   0.0001100  -0.0001693
           37          38          39          40          41          42
    1   0.0000273  -0.0000239   0.0000225  -0.0001313  -0.0000301   0.0000127
    2   0.0000421   0.0000017  -0.0001425   0.0001047   0.0000269   0.0001012
    3   0.0001719  -0.0002556   0.0000120   0.0000296  -0.0000575  -0.0000894
           43          44          45          46          47          48
    1   0.0002315   0.0000965  -0.0000493  -0.0000188   0.0001125   0.0000436
    2   0.0000448  -0.0000303   0.0001331  -0.0001347   0.0000309   0.0000423
    3  -0.0000250   0.0000169   0.0001064  -0.0000339   0.0000313  -0.0000005
           49          50          51          52          53          54
    1   0.0000139  -0.0000029   0.0000712   0.0000842  -0.0000031   0.0000421
    2   0.0000676  -0.0000107  -0.0000052   0.0000141  -0.0000898   0.0000171
    3  -0.0000222   0.0000169   0.0000224  -0.0000487   0.0001384  -0.0000023
           55          56
    1   0.0001985  -0.0000589
    2   0.0000434   0.0001795
    3  -0.0000448  -0.0001805
 Max gradient component =       1.081E-02
 RMS gradient           =       1.859E-03
 Gradient time:  CPU 32.80 s  wall 0.72 s
 Geometry Optimization Parameters
   NAtoms,    NIC,     NZ,  NCons,   NDum,   NFix, NCnnct, MaxDiis
       56     458       0       0       0       0       0       0


** GEOMETRY OPTIMIZATION IN DELOCALIZED INTERNAL COORDINATES **
   Searching for a Minimum

   Optimization Cycle:   1

                       Coordinates (Angstroms)
     ATOM                X               Y               Z
      1  O         3.6522826539   -2.5023609372   -0.0456180132
      2  C         3.8770281739   -1.5982112366   -0.8776231666
      3  C         4.7808406717   -0.3267911609   -0.6959561316
      4  C         3.9341988578    1.0029716544   -0.4614361891
      5  C         2.3933817557    0.7796827935   -0.6388335511
      6  O         1.8364292201    0.3310738880    0.6026042610
      7  C         0.3900861051    0.0518321461    0.4253846706
      8  C        -0.1516135427   -0.3898317544    1.8347560751
      9  O        -1.6090118044   -0.2378354890    2.0230743499
     10  C        -2.3476562433   -0.8089935094    0.8894961231
     11  C        -2.8306753669    0.3021595875   -0.1197413665
     12  C        -4.1365482775    0.0662277500   -0.9797848955
     13  C        -5.3147720181   -0.7841596585   -0.3576264483
     14  O        -6.4856131285   -0.7877362863   -0.8003514657
     15  O         3.2978752013   -1.5446670165   -2.1866901513
     16  O        -4.9322886466   -1.4319454267    0.8522180081
     17  O        -2.4449711994   -2.0402169422    0.7180983290
     18  C        -6.0950949470   -2.1355380029    1.4407634076
     19  C        -3.0876592307    1.7562360585    0.4732090435
     20  C        -2.6087369056    2.7864468184   -0.6204006866
     21  C        -3.6888018744    2.5326127208   -1.7375352237
     22  C        -4.6905807027    1.5599658258   -0.9953419652
     23  O        -4.5590432572    1.9205484565    0.4396432947
     24  H        -1.9913482693    0.3679411050   -0.8382031999
     25  H        -3.9030629332   -0.3204466026   -1.9882593143
     26  H        -2.6880564865    1.9026009340    1.4954721172
     27  H        -2.6702753400    3.8148092012   -0.2292474216
     28  H        -1.5794283933    2.5990481309   -0.9669996438
     29  H        -4.1989786944    3.4630610099   -2.0321999853
     30  H        -3.2615109986    2.0658361581   -2.6397363478
     31  H        -5.7473567341    1.6298310056   -1.3196733302
     32  O         1.7177318779    0.9673519945   -1.6740996036
     33  C         2.3741903302   -2.6850104707   -2.3838175116
     34  C         5.5812313406   -0.4100689288    0.6683968102
     35  C         6.6952838382    0.7094750821    0.6733380999
     36  C         5.8316747780    1.9982377008    0.9395532862
     37  C         4.3787746324    1.3811717857    1.0145352731
     38  O         4.5949079280    0.0692954898    1.6648433652
     39  H         5.4407738859   -0.2250584016   -1.5759475867
     40  H         4.2339710453    1.7788527272   -1.1885675274
     41  H         1.5486323724   -2.6741595092   -1.6428103451
     42  H         5.9235299685   -1.4303410226    0.9281660775
     43  H         7.4179231205    0.5315045613    1.4855008563
     44  H         7.2422926989    0.7535356103   -0.2821124520
     45  H         6.0960639008    2.4704277496    1.8992150813
     46  H         5.9263298205    2.7484830019    0.1383887105
     47  H         3.6382035422    1.9780983296    1.5805022883
     48  H         2.9014928910   -3.6578222104   -2.3070112265
     49  H         1.9582519215   -2.5677850819   -3.4013484034
     50  H        -5.7334695369   -2.5720686296    2.3898291441
     51  H        -6.4601472819   -2.9440103435    0.7751404096
     52  H        -6.9329971644   -1.4377595404    1.6428663175
     53  H         0.1725724518   -1.4391080756    2.0253641230
     54  H         0.3105503570    0.2569324788    2.6095864757
     55  H         0.2310586067   -0.7425641341   -0.3352793409
     56  H        -0.1287137589    0.9716084923    0.0795716095
   Point Group: c1    Number of degrees of freedom:   162


   Energy is  -1510.249604020


 Attempting to Generate Delocalized Internal Coordinates

162 Hessian modes will be used to form the next step
  Hessian Eigenvalues:
     0.002000    0.002000    0.002000    0.002000    0.002000    0.002685
     0.002863    0.003520    0.004191    0.004208    0.004577    0.004922
     0.004972    0.005014    0.005413    0.006570    0.006771    0.006842
     0.011321    0.011352    0.012384    0.021103    0.021693    0.024540
     0.026099    0.030356    0.030865    0.034196    0.035706    0.036241
     0.040844    0.041713    0.042149    0.042391    0.043155    0.046463
     0.047607    0.048359    0.050605    0.050847    0.052344    0.053241
     0.054295    0.055164    0.055186    0.056148    0.056437    0.057598
     0.057608    0.058748    0.059138    0.060667    0.060692    0.062731
     0.063974    0.064080    0.064707    0.069867    0.070043    0.072981
     0.073665    0.091263    0.091716    0.092876    0.093053    0.095755
     0.096601    0.096848    0.097261    0.102611    0.102937    0.107450
     0.109957    0.112194    0.116585    0.121831    0.124573    0.133838
     0.140562    0.157325    0.158475    0.160000    0.160000    0.160000
     0.160000    0.160000    0.160000    0.163840    0.166364    0.219352
     0.219531    0.220802    0.221079    0.223853    0.230013    0.238342
     0.238611    0.239441    0.239737    0.243346    0.248030    0.248942
     0.248975    0.249940    0.249981    0.250000    0.250000    0.250000
     0.250000    0.250000    0.250000    0.250000    0.250000    0.252012
     0.252986    0.253260    0.254870    0.257722    0.259813    0.262561
     0.290467    0.292712    0.306274    0.306677    0.321143    0.324638
     0.324751    0.325923    0.326643    0.326856    0.327031    0.327090
     0.328521    0.328869    0.329122    0.329373    0.329422    0.330819
     0.330847    0.331338    0.331572    0.331733    0.334459    0.334609
     0.334662    0.334797    0.334912    0.334973    0.335074    0.335398
     0.341522    0.344482    0.344910    0.348742    0.359070    0.406046
     0.406379    0.417669    0.825923    0.830895    0.835734    0.843930

 Minimum Search - Taking Simple RFO Step
 Searching for Lamda that Minimizes Along All modes
 Value Taken    Lamda =  -0.01590792
 Calculated Step too Large.  Step scaled by  0.343064
 Step Taken.  Stepsize is  0.300000

                             Maximum     Tolerance    Cnvgd?
         Gradient           0.007534      0.000300      NO
         Displacement       0.087808      0.001200      NO
         Energy change     *********      0.000001      NO


 New Cartesian Coordinates Obtained by Inverse Iteration

 Displacement from previous Coordinates is:  3.571610
 Adding empirical dispersion correction 
 ----------------------------------------------------------------
 Doing -D3(op) with
 s6 =   1.00000
 s8 =   0.78311
 a1 =   0.30000
 a2 =   4.25000
 n  =  10.00000
 -D3 energy without 3body term =     -0.0676688381 hartrees
 ----------------------------------------------------------------
             Standard Nuclear Orientation (Angstroms)
    I     Atom           X                Y                Z
 ----------------------------------------------------------------
    1      O       3.5880204774    -2.4987442607     0.0027982825
    2      C       3.9034126008    -1.6159356674    -0.8226541485
    3      C       4.8783602372    -0.4036971481    -0.6092848067
    4      C       4.1089484305     0.9796577713    -0.4235953174
    5      C       2.5664887199     0.8505744306    -0.6665525340
    6      O       1.9376656526     0.3941133953     0.5370762975
    7      C       0.4908310400     0.1745977755     0.2916524291
    8      C      -0.1232998139    -0.2874432051     1.6642836792
    9      O      -1.5836119224    -0.1053338045     1.7955101964
   10      C      -2.2960302424    -0.7057315148     0.6601772749
   11      C      -2.9392358393     0.3837255236    -0.2810459363
   12      C      -4.3211064211     0.0882545278    -0.9910540607
   13      C      -5.3765831753    -0.8283491698    -0.2533841796
   14      O      -6.5776630869    -0.9269485667    -0.5919961948
   15      O       3.3842986319    -1.5370041407    -2.1553951449
   16      O      -4.8340984332    -1.4548732585     0.9055119983
   17      O      -2.3643011246    -1.9405081701     0.5004853182
   18      C      -5.8821251417    -2.2431705480     1.5939260629
   19      C      -3.2053165556     1.8176030061     0.3560340076
   20      C      -2.9027907834     2.8786885763    -0.7707349570
   21      C      -4.0856485556     2.5777635736    -1.7656285035
   22      C      -4.9491617864     1.5503268155    -0.9296313510
   23      O      -4.6779428027     1.9067108235     0.4864001908
   24      H      -2.1869335259     0.5011194916    -1.0840890493
   25      H      -4.1800145958    -0.2818925724    -2.0226525495
   26      H      -2.7035529990     1.9773434380     1.3301334453
   27      H      -2.9722645539     3.8998716395    -0.3624500328
   28      H      -1.9100157810     2.7465074576    -1.2306629518
   29      H      -4.6712410133     3.4828375344    -1.9908309342
   30      H      -3.7371939001     2.1397681621    -2.7149927364
   31      H      -6.0375529980     1.5673219027    -1.1346598711
   32      O       1.9478143271     1.0767220464    -1.7294287654
   33      C       2.3979352671    -2.6177247382    -2.3834697504
   34      C       5.6102019673    -0.5250677924     0.7901226440
   35      C       6.7916579882     0.5216382224     0.8387051093
   36      C       6.0005079157     1.8646311258     1.0577779013
   37      C       4.5094755902     1.3410643614     1.0694052627
   38      O       4.6123766661     0.0244039448     1.7374794263
   39      H       5.5817136502    -0.3524327037    -1.4595327238
   40      H       4.4889816534     1.7303989554    -1.1394978098
   41      H       1.5450747761    -2.5471806498    -1.6774746992
   42      H       5.8747330614    -1.5626089165     1.0716577971
   43      H       7.4638284600     0.3054029419     1.6841485307
   44      H       7.3828226029     0.5226298637    -0.0910970474
   45      H       6.2506636289     2.3270745990     2.0258824358
   46      H       6.1788945391     2.6007664793     0.2577424666
   47      H       3.7831650020     1.9882916506     1.5973315971
   48      H       2.8577960610    -3.6216126923    -2.2782546554
   49      H       2.0325446415    -2.4837214142    -3.4181758937
   50      H      -5.4002197708    -2.6593287644     2.4975953975
   51      H      -6.2528169835    -3.0709923857     0.9557413505
   52      H      -6.7432456113    -1.6081056277     1.8855771077
   53      H       0.1683970926    -1.3472041780     1.8489359563
   54      H       0.3204399455     0.3342304252     2.4697961325
   55      H       0.3387446597    -0.5946956466    -0.4957836679
   56      H       0.0173233422     1.1196369519    -0.0506129124
 ----------------------------------------------------------------
 Molecular Point Group                 C1    NOp =  1
 Largest Abelian Subgroup              C1    NOp =  1
 Nuclear Repulsion Energy =  3089.6997638855 hartrees
 There are      113 alpha and      113 beta electrons
 Applying Cartesian multipole field
    Component          Value
    ---------          -----
     (2,0,0)        1.00000E-12
     (0,2,0)        2.00000E-11
     (0,0,2)       -3.00000E-11
 Nucleus-field energy     =     0.0000000166 hartrees
 Requested basis set is STO-3G
 There are 86 shells and 176 basis functions
 A cutoff of  1.0D-12 yielded   2117 shell pairs
 There are      9839 function pairs
 Smallest overlap matrix eigenvalue = 2.13E-01
 Guess MOs from SCF MO coefficient file
 Reading MOs from coefficient file
 Reading MOs from coefficient file
 A restricted hybrid HF-DFT SCF calculation will be
 performed using Pulay DIIS extrapolation
 Exchange:     0.2000 Hartree-Fock + 0.0800 Slater + 0.7200 B88
 Correlation:  0.1900 VWN1RPA + 0.8100 LYP
 Using SG-1 standard quadrature grid
 Dispersion:   Grimme D3
 SCF converges when DIIS error is below 1.0E-08
 Geometry optimization detected.  Setting ReadMinima to 0
 Setting SaveMinima to 0
 using 48 threads for integral computing
 -------------------------------------------------------
 OpenMP Integral computing Module                
 Release: version 1.0, May 2013, Q-Chem Inc. Pittsburgh 
 -------------------------------------------------------
 -------------------------------------------------------
 OpenMP BLAS3 based DFT computing Module                
 Release: version 1.0, May 2013, Q-Chem Inc. Pittsburgh 
 -------------------------------------------------------
 ---------------------------------------
  Cycle       Energy         DIIS Error
 ---------------------------------------
    1   -1510.1340608244      4.95E-03
    2   -1510.2518945939      4.73E-04
    3   -1510.2513665220      6.64E-04
    4   -1510.2530718447      2.36E-04
    5   -1510.2533004188      7.18E-05
    6   -1510.2533234507      2.09E-05
    7   -1510.2533253153      8.36E-06
    8   -1510.2533255940      3.01E-06
    9   -1510.2533256366      5.37E-07
   10   -1510.2533256376      3.85E-07
   11   -1510.2533256383      1.77E-07
   12   -1510.2533256385      3.45E-08
   13   -1510.2533256385      1.33E-08
   14   -1510.2533256385      6.23E-09 Convergence criterion met
 ---------------------------------------
 SCF time:  CPU 100.59 s  wall 2.10 s
 SCF   energy in the final basis set = -1510.25332564
 Total energy in the final basis set = -1510.25332564
 
 --------------------------------------------------------------
 
                    Orbital Energies (a.u.)
 --------------------------------------------------------------
 
 Alpha MOs
 -- Occupied --
-18.940 -18.937 -18.935 -18.906 -18.901 -18.889 -18.886 -18.880
-18.879 -18.867 -10.108 -10.104 -10.101 -10.097 -10.078 -10.074
-10.067 -10.063 -10.061 -10.060 -10.059 -10.058 -10.042 -10.041
-10.040 -10.038 -10.023 -10.022 -10.021 -10.020  -1.020  -1.012
 -1.011  -1.003  -0.971  -0.970  -0.944  -0.939  -0.935  -0.931
 -0.767  -0.763  -0.728  -0.723  -0.715  -0.705  -0.697  -0.666
 -0.660  -0.617  -0.601  -0.584  -0.551  -0.544  -0.540  -0.538
 -0.519  -0.511  -0.485  -0.478  -0.469  -0.467  -0.447  -0.443
 -0.437  -0.434  -0.429  -0.416  -0.413  -0.409  -0.407  -0.401
 -0.392  -0.387  -0.375  -0.374  -0.365  -0.357  -0.353  -0.351
 -0.349  -0.344  -0.337  -0.334  -0.332  -0.330  -0.320  -0.312
 -0.310  -0.309  -0.308  -0.298  -0.297  -0.294  -0.286  -0.281
 -0.275  -0.262  -0.254  -0.249  -0.238  -0.236  -0.231  -0.186
 -0.178  -0.175  -0.164  -0.160  -0.157  -0.153  -0.149  -0.145
 -0.143
 -- Virtual --
  0.078   0.093   0.097   0.105   0.204   0.231   0.241   0.248
  0.260   0.270   0.278   0.286   0.297   0.312   0.324   0.327
  0.332   0.336   0.338   0.342   0.346   0.349   0.361   0.365
  0.371   0.380   0.383   0.384   0.399   0.404   0.405   0.410
  0.411   0.412   0.418   0.421   0.426   0.427   0.430   0.432
  0.436   0.436   0.442   0.443   0.446   0.448   0.451   0.456
  0.466   0.469   0.481   0.487   0.494   0.502   0.509   0.533
  0.537   0.550   0.555   0.624   0.635   0.640   0.646
 --------------------------------------------------------------
 
          Ground-State Mulliken Net Atomic Charges

     Atom                 Charge (a.u.)
  ----------------------------------------
      1 O                    -0.207883
      2 C                     0.206093
      3 C                    -0.077719
      4 C                    -0.078582
      5 C                     0.205438
      6 O                    -0.168041
      7 C                    -0.052598
      8 C                    -0.047149
      9 O                    -0.191055
     10 C                     0.221780
     11 C                    -0.083434
     12 C                    -0.075966
     13 C                     0.211520
     14 O                    -0.219179
     15 O                    -0.169988
     16 O                    -0.163914
     17 O                    -0.179040
     18 C                    -0.125874
     19 C                     0.021680
     20 C                    -0.142358
     21 C                    -0.146003
     22 C                     0.023789
     23 O                    -0.191835
     24 H                     0.081567
     25 H                     0.085360
     26 H                     0.092556
     27 H                     0.078098
     28 H                     0.071906
     29 H                     0.079112
     30 H                     0.073882
     31 H                     0.088761
     32 O                    -0.212349
     33 C                    -0.128019
     34 C                     0.025282
     35 C                    -0.144497
     36 C                    -0.143660
     37 C                     0.025880
     38 O                    -0.185117
     39 H                     0.086588
     40 H                     0.085551
     41 H                     0.086389
     42 H                     0.088582
     43 H                     0.078670
     44 H                     0.073361
     45 H                     0.078327
     46 H                     0.073322
     47 H                     0.085113
     48 H                     0.089756
     49 H                     0.092483
     50 H                     0.093178
     51 H                     0.089414
     52 H                     0.091204
     53 H                     0.087300
     54 H                     0.094928
     55 H                     0.082778
     56 H                     0.084612
  ----------------------------------------
  Sum of atomic charges =     0.000000

 -----------------------------------------------------------------
                    Cartesian Multipole Moments
 -----------------------------------------------------------------
    Charge (ESU x 10^10)
                 0.0000
    Dipole Moment (Debye)
         X       2.6813      Y       1.3808      Z      -1.7202
       Tot       3.4720
    Quadrupole Moments (Debye-Ang)
        XX    -158.1056     XY       4.7955     YY    -157.6594
        XZ      -2.1570     YZ       2.5098     ZZ    -162.2103
    Octopole Moments (Debye-Ang^2)
       XXX     178.2112    XXY      -0.8957    XYY     -10.6188
       YYY     -23.7389    XXZ       6.6274    XYZ      37.8452
       YYZ      -5.3087    XZZ     -30.1376    YZZ     -22.0256
       ZZZ       9.4904
    Hexadecapole Moments (Debye-Ang^3)
      XXXX  -16742.9417   XXXY     236.1338   XXYY   -3094.2002
      XYYY     116.1572   YYYY   -2395.3562   XXXZ    -373.3687
      XXYZ    -108.7466   XYYZ     -65.4455   YYYZ      46.6365
      XXZZ   -3024.9479   XYZZ      42.3200   YYZZ    -616.8753
      XZZZ    -121.4222   YZZZ      48.1475   ZZZZ   -1510.6612
 -----------------------------------------------------------------
 Calculating analytic gradient of the SCF energy
 Gradient of SCF Energy
            1           2           3           4           5           6
    1  -0.0001888  -0.0000617   0.0003299  -0.0003311  -0.0003478  -0.0005445
    2   0.0004138  -0.0008123   0.0008868  -0.0006179  -0.0005345   0.0031250
    3   0.0003086  -0.0003441  -0.0024009   0.0027111  -0.0004281   0.0005682
            7           8           9          10          11          12
    1   0.0016632  -0.0002372   0.0024208   0.0004166  -0.0031443   0.0030646
    2  -0.0034437   0.0088071  -0.0116009   0.0050587   0.0034273  -0.0033515
    3  -0.0004448  -0.0046434   0.0082623  -0.0061259   0.0020547  -0.0038980
           13          14          15          16          17          18
    1   0.0000524  -0.0008853   0.0001928   0.0002828  -0.0046121  -0.0000157
    2  -0.0006553   0.0019070  -0.0000165  -0.0010383   0.0000661  -0.0000453
    3  -0.0008912   0.0017271   0.0000488  -0.0004673   0.0035211  -0.0000247
           19          20          21          22          23          24
    1  -0.0005091  -0.0003540   0.0001631  -0.0002439  -0.0001231  -0.0007796
    2  -0.0002902   0.0002420   0.0000337   0.0002326  -0.0000553  -0.0003839
    3   0.0005261  -0.0004686   0.0001827  -0.0004040  -0.0002050   0.0004999
           25          26          27          28          29          30
    1   0.0006239   0.0001626  -0.0000434  -0.0000234   0.0000559   0.0000456
    2   0.0001244  -0.0000297  -0.0000547   0.0001425  -0.0000861  -0.0000605
    3   0.0001664  -0.0001878   0.0000457  -0.0001723   0.0000131  -0.0000053
           31          32          33          34          35          36
    1  -0.0000270   0.0002372   0.0001642   0.0003057  -0.0001138   0.0000764
    2  -0.0000469  -0.0010594   0.0000491  -0.0001077   0.0000202  -0.0000962
    3   0.0000422  -0.0003688   0.0000298   0.0001971   0.0000798  -0.0001921
           37          38          39          40          41          42
    1  -0.0001209   0.0002027  -0.0000713  -0.0001792  -0.0000725   0.0000200
    2  -0.0002585  -0.0000940   0.0000212   0.0003111   0.0000889   0.0000360
    3   0.0000303  -0.0000950  -0.0000113   0.0000775   0.0000081   0.0000336
           43          44          45          46          47          48
    1   0.0000351   0.0000937  -0.0000538   0.0000308   0.0000604   0.0000491
    2  -0.0000383   0.0000787   0.0001210   0.0000223  -0.0000396  -0.0000002
    3  -0.0000333  -0.0000355   0.0000605  -0.0000684  -0.0000096  -0.0000112
           49          50          51          52          53          54
    1  -0.0000082   0.0000147   0.0000412   0.0000600  -0.0003133   0.0003126
    2   0.0000439   0.0000299  -0.0000366   0.0000344  -0.0002469   0.0002568
    3  -0.0000219   0.0000136   0.0000619  -0.0001153   0.0005361  -0.0003272
           55          56
    1   0.0007188   0.0015083
    2  -0.0001491  -0.0003301
    3   0.0002198   0.0003747
 Max gradient component =       1.160E-02
 RMS gradient           =       1.771E-03
 Gradient time:  CPU 32.17 s  wall 0.68 s
 Geometry Optimization Parameters
   NAtoms,    NIC,     NZ,  NCons,   NDum,   NFix, NCnnct, MaxDiis
       56     458       0       0       0       0       0       0

 Cartesian Hessian Update
 Hessian Updated using BFGS Update


** GEOMETRY OPTIMIZATION IN DELOCALIZED INTERNAL COORDINATES **
   Searching for a Minimum

   Optimization Cycle:   2

                       Coordinates (Angstroms)
     ATOM                X               Y               Z
      1  O         3.5880204774   -2.4987442607    0.0027982825
      2  C         3.9034126008   -1.6159356674   -0.8226541485
      3  C         4.8783602372   -0.4036971481   -0.6092848067
      4  C         4.1089484305    0.9796577713   -0.4235953174
      5  C         2.5664887199    0.8505744306   -0.6665525340
      6  O         1.9376656526    0.3941133953    0.5370762975
      7  C         0.4908310400    0.1745977755    0.2916524291
      8  C        -0.1232998139   -0.2874432051    1.6642836792
      9  O        -1.5836119224   -0.1053338045    1.7955101964
     10  C        -2.2960302424   -0.7057315148    0.6601772749
     11  C        -2.9392358393    0.3837255236   -0.2810459363
     12  C        -4.3211064211    0.0882545278   -0.9910540607
     13  C        -5.3765831753   -0.8283491698   -0.2533841796
     14  O        -6.5776630869   -0.9269485667   -0.5919961948
     15  O         3.3842986319   -1.5370041407   -2.1553951449
     16  O        -4.8340984332   -1.4548732585    0.9055119983
     17  O        -2.3643011246   -1.9405081701    0.5004853182
     18  C        -5.8821251417   -2.2431705480    1.5939260629
     19  C        -3.2053165556    1.8176030061    0.3560340076
     20  C        -2.9027907834    2.8786885763   -0.7707349570
     21  C        -4.0856485556    2.5777635736   -1.7656285035
     22  C        -4.9491617864    1.5503268155   -0.9296313510
     23  O        -4.6779428027    1.9067108235    0.4864001908
     24  H        -2.1869335259    0.5011194916   -1.0840890493
     25  H        -4.1800145958   -0.2818925724   -2.0226525495
     26  H        -2.7035529990    1.9773434380    1.3301334453
     27  H        -2.9722645539    3.8998716395   -0.3624500328
     28  H        -1.9100157810    2.7465074576   -1.2306629518
     29  H        -4.6712410133    3.4828375344   -1.9908309342
     30  H        -3.7371939001    2.1397681621   -2.7149927364
     31  H        -6.0375529980    1.5673219027   -1.1346598711
     32  O         1.9478143271    1.0767220464   -1.7294287654
     33  C         2.3979352671   -2.6177247382   -2.3834697504
     34  C         5.6102019673   -0.5250677924    0.7901226440
     35  C         6.7916579882    0.5216382224    0.8387051093
     36  C         6.0005079157    1.8646311258    1.0577779013
     37  C         4.5094755902    1.3410643614    1.0694052627
     38  O         4.6123766661    0.0244039448    1.7374794263
     39  H         5.5817136502   -0.3524327037   -1.4595327238
     40  H         4.4889816534    1.7303989554   -1.1394978098
     41  H         1.5450747761   -2.5471806498   -1.6774746992
     42  H         5.8747330614   -1.5626089165    1.0716577971
     43  H         7.4638284600    0.3054029419    1.6841485307
     44  H         7.3828226029    0.5226298637   -0.0910970474
     45  H         6.2506636289    2.3270745990    2.0258824358
     46  H         6.1788945391    2.6007664793    0.2577424666
     47  H         3.7831650020    1.9882916506    1.5973315971
     48  H         2.8577960610   -3.6216126923   -2.2782546554
     49  H         2.0325446415   -2.4837214142   -3.4181758937
     50  H        -5.4002197708   -2.6593287644    2.4975953975
     51  H        -6.2528169835   -3.0709923857    0.9557413505
     52  H        -6.7432456113   -1.6081056277    1.8855771077
     53  H         0.1683970926   -1.3472041780    1.8489359563
     54  H         0.3204399455    0.3342304252    2.4697961325
     55  H         0.3387446597   -0.5946956466   -0.4957836679
     56  H         0.0173233422    1.1196369519   -0.0506129124
   Point Group: c1    Number of degrees of freedom:   162


   Energy is  -1510.253325638

 Hessian Updated using BFGS Update

149 Hessian modes will be used to form the next step
  Hessian Eigenvalues:
     0.001750    0.002019    0.002685    0.002863    0.003784    0.004208
     0.004333    0.004579    0.004922    0.004972    0.005036    0.005745
     0.006771    0.006841    0.011302    0.011347    0.012382    0.021042
     0.021684    0.024364    0.026044    0.030279    0.030643    0.030923
     0.034195    0.035498    0.035722    0.040783    0.041690    0.042012
     0.042368    0.043632    0.046291    0.046870    0.048276    0.050587
     0.050881    0.051878    0.053212    0.054297    0.055134    0.055214
     0.056123    0.056649    0.057607    0.058704    0.058925    0.059136
     0.060672    0.060690    0.062742    0.063974    0.064080    0.064714
     0.069867    0.070038    0.072975    0.073624    0.091273    0.091725
     0.092887    0.093069    0.095754    0.096599    0.096848    0.097280
     0.102612    0.102937    0.107499    0.109951    0.112180    0.116622
     0.121864    0.124569    0.133816    0.140156    0.157327    0.158368
     0.159992    0.160005    0.163840    0.166171    0.218736    0.219479
     0.220764    0.223853    0.230007    0.231614    0.238341    0.238604
     0.239436    0.239751    0.243278    0.248025    0.248795    0.248976
     0.249037    0.249944    0.249981    0.252010    0.252980    0.253254
     0.254766    0.257715    0.259785    0.262540    0.290437    0.292704
     0.306271    0.306666    0.317131    0.321181    0.324639    0.325923
     0.326526    0.326716    0.326862    0.327031    0.327089    0.328523
     0.328871    0.329122    0.329373    0.330818    0.330846    0.331316
     0.331544    0.331728    0.332114    0.334461    0.334633    0.334662
     0.334801    0.334908    0.334991    0.335088    0.335426    0.341525
     0.344480    0.344890    0.352619    0.389468    0.406118    0.406435
     0.417778    0.825981    0.830901    0.835737    0.843931

 Minimum Search - Taking Simple RFO Step
 Searching for Lamda that Minimizes Along All modes
 Value Taken    Lamda =  -0.01010700
 Calculated Step too Large.  Step scaled by  0.358042
 Step Taken.  Stepsize is  0.300000

                             Maximum     Tolerance    Cnvgd?
         Gradient           0.008745      0.000300      NO
         Displacement       0.081262      0.001200      NO
         Energy change     -0.003722      0.000001      NO


 New Cartesian Coordinates Obtained by Inverse Iteration

 Displacement from previous Coordinates is:  2.272868
 Adding empirical dispersion correction 
 ----------------------------------------------------------------
 Doing -D3(op) with
 s6 =   1.00000
 s8 =   0.78311
 a1 =   0.30000
 a2 =   4.25000
 n  =  10.00000
 -D3 energy without 3body term =     -0.0676443541 hartrees
 ----------------------------------------------------------------
             Standard Nuclear Orientation (Angstroms)
    I     Atom           X                Y                Z
 ----------------------------------------------------------------
    1      O       3.4760997574    -2.4717387881     0.0910436417
    2      C       3.8549018589    -1.6295818022    -0.7500779444
    3      C       4.8933611128    -0.4693648860    -0.5493008569
    4      C       4.2016862222     0.9614426908    -0.4262546295
    5      C       2.6599215457     0.9088609401    -0.6977929144
    6      O       1.9940029607     0.4514938247     0.4854192850
    7      C       0.5443958968     0.2841868086     0.2157348550
    8      C      -0.0961144110    -0.2088523066     1.5649478623
    9      O      -1.5535134030     0.0013140256     1.6617345416
   10      C      -2.2386313543    -0.6219765285     0.5250015998
   11      C      -2.9747319148     0.4480441014    -0.3666837034
   12      C      -4.3774433231     0.0996919059    -1.0093000201
   13      C      -5.3451395556    -0.8857914031    -0.2412640327
   14      O      -6.5415764981    -1.0790291916    -0.5543968771
   15      O       3.3666306480    -1.5610938432    -2.0950615531
   16      O      -4.7282826760    -1.4708609654     0.9019676137
   17      O      -2.1922660815    -1.8494742724     0.3101692977
   18      C      -5.6973125287    -2.3339742266     1.6160964109
   19      C      -3.2826266360     1.8523371301     0.3170247605
   20      C      -3.0873296940     2.9498578416    -0.7978836309
   21      C      -4.3020761581     2.6111728287    -1.7417637138
   22      C      -5.0730199092     1.5259948894    -0.8881686098
   23      O      -4.7496505863     1.8663482848     0.5204588726
   24      H      -2.2651944637     0.6248987379    -1.1980198101
   25      H      -4.2687897330    -0.2471880755    -2.0529396921
   26      H      -2.7430278045     2.0165917117     1.2699981490
   27      H      -3.1859235383     3.9579658877    -0.3638568422
   28      H      -2.1127896130     2.8756333447    -1.3070616218
   29      H      -4.9410584179     3.4906251897    -1.9183367817
   30      H      -3.9797042747     2.2100715848    -2.7163192381
   31      H      -6.1697419250     1.4927104155    -1.0399146539
   32      O       2.0713979689     1.1646069203    -1.7710570264
   33      C       2.3278478604    -2.5940997924    -2.3127219368
   34      C       5.5836601543    -0.5894169138     0.8706611688
   35      C       6.8222982284     0.3887487768     0.9187664863
   36      C       6.1052356319     1.7807672846     1.0785720626
   37      C       4.5866834942     1.3435511162     1.0662051083
   38      O       4.5967842973     0.0446858561     1.7753630119
   39      H       5.6178956883    -0.4851182328    -1.3830379279
   40      H       4.6393080262     1.6704351280    -1.1516654935
   41      H       1.4673021010    -2.4582659561    -1.6259174065
   42      H       5.7805694694    -1.6313679927     1.1890536529
   43      H       7.4601758651     0.1603667321     1.7872206296
   44      H       7.4344182867     0.3273485379     0.0047541303
   45      H       6.3584395203     2.2568119090     2.0391488025
   46      H       6.3451748235     2.4811892472     0.2627461820
   47      H       3.8861825158     2.0466934210     1.5562628776
   48      H       2.7310358924    -3.6175730774    -2.1703632293
   49      H       1.9891514061    -2.4710630393    -3.3577863020
   50      H      -5.1616284230    -2.7160972934     2.5043891770
   51      H      -6.0250661856    -3.1851112471     0.9850927154
   52      H      -6.5936391962    -1.7635751791     1.9343128190
   53      H       0.1720052203    -1.2781565930     1.7278259747
   54      H       0.3424645281     0.3855347617     2.3935199947
   55      H       0.3819164634    -0.4573081187    -0.5960720534
   56      H       0.0944820714     1.2494677667    -0.1032080682
 ----------------------------------------------------------------
 Molecular Point Group                 C1    NOp =  1
 Largest Abelian Subgroup              C1    NOp =  1
 Nuclear Repulsion Energy =  3089.4779889944 hartrees
 There are      113 alpha and      113 beta electrons
 Applying Cartesian multipole field
    Component          Value
    ---------          -----
     (2,0,0)        1.00000E-12
     (0,2,0)        2.00000E-11
     (0,0,2)       -3.00000E-11
 Nucleus-field energy     =     0.0000000182 hartrees
 Requested basis set is STO-3G
 There are 86 shells and 176 basis functions
 A cutoff of  1.0D-12 yielded   2110 shell pairs
 There are      9799 function pairs
 Smallest overlap matrix eigenvalue = 2.13E-01
 Guess MOs from SCF MO coefficient file
 Reading MOs from coefficient file
 Reading MOs from coefficient file
 A restricted hybrid HF-DFT SCF calculation will be
 performed using Pulay DIIS extrapolation
 Exchange:     0.2000 Hartree-Fock + 0.0800 Slater + 0.7200 B88
 Correlation:  0.1900 VWN1RPA + 0.8100 LYP
 Using SG-1 standard quadrature grid
 Dispersion:   Grimme D3
 SCF converges when DIIS error is below 1.0E-08
 Geometry optimization detected.  Setting ReadMinima to 0
 Setting SaveMinima to 0
 using 48 threads for integral computing
 -------------------------------------------------------
 OpenMP Integral computing Module                
 Release: version 1.0, May 2013, Q-Chem Inc. Pittsburgh 
 -------------------------------------------------------
 -------------------------------------------------------
 OpenMP BLAS3 based DFT computing Module                
 Release: version 1.0, May 2013, Q-Chem Inc. Pittsburgh 
 -------------------------------------------------------
 ---------------------------------------
  Cycle       Energy         DIIS Error
 ---------------------------------------
    1   -1510.1900640769      3.87E-03
    2   -1510.2560367873      3.44E-04
    3   -1510.2553939566      5.68E-04
    4   -1510.2568031861      1.46E-04
    5   -1510.2568864836      5.39E-05
    6   -1510.2568993175      1.70E-05
    7   -1510.2569002411      1.04E-05
    8   -1510.2569007097      1.69E-06
    9   -1510.2569007236      4.71E-07
   10   -1510.2569007240      4.37E-07
   11   -1510.2569007248      8.48E-08
   12   -1510.2569007248      2.54E-08
   13   -1510.2569007248      8.21E-09 Convergence criterion met
 ---------------------------------------
 SCF time:  CPU 90.62 s  wall 1.89 s
 SCF   energy in the final basis set = -1510.25690072
 Total energy in the final basis set = -1510.25690072
 
 --------------------------------------------------------------
 
                    Orbital Energies (a.u.)
 --------------------------------------------------------------
 
 Alpha MOs
 -- Occupied --
-18.939 -18.936 -18.936 -18.909 -18.897 -18.889 -18.886 -18.880
-18.879 -18.867 -10.108 -10.103 -10.100 -10.097 -10.077 -10.074
-10.066 -10.062 -10.061 -10.060 -10.059 -10.057 -10.042 -10.041
-10.040 -10.038 -10.022 -10.021 -10.021 -10.020  -1.019  -1.012
 -1.011  -1.004  -0.971  -0.970  -0.943  -0.938  -0.936  -0.931
 -0.766  -0.763  -0.728  -0.723  -0.715  -0.705  -0.696  -0.665
 -0.660  -0.617  -0.601  -0.584  -0.550  -0.544  -0.539  -0.537
 -0.518  -0.511  -0.485  -0.478  -0.469  -0.467  -0.447  -0.442
 -0.437  -0.434  -0.429  -0.415  -0.413  -0.409  -0.407  -0.401
 -0.392  -0.387  -0.375  -0.374  -0.364  -0.357  -0.354  -0.351
 -0.348  -0.344  -0.336  -0.334  -0.332  -0.330  -0.320  -0.311
 -0.310  -0.309  -0.308  -0.298  -0.297  -0.293  -0.287  -0.280
 -0.275  -0.261  -0.253  -0.249  -0.239  -0.236  -0.231  -0.185
 -0.178  -0.175  -0.165  -0.160  -0.157  -0.153  -0.149  -0.145
 -0.143
 -- Virtual --
  0.081   0.093   0.097   0.105   0.206   0.231   0.241   0.248
  0.261   0.271   0.279   0.286   0.298   0.312   0.325   0.327
  0.333   0.337   0.338   0.342   0.347   0.350   0.361   0.365
  0.371   0.380   0.383   0.385   0.399   0.403   0.406   0.409
  0.411   0.413   0.417   0.421   0.426   0.427   0.430   0.432
  0.435   0.436   0.442   0.444   0.446   0.448   0.453   0.457
  0.466   0.469   0.482   0.488   0.492   0.503   0.508   0.534
  0.536   0.550   0.555   0.626   0.636   0.640   0.646
 --------------------------------------------------------------
 
          Ground-State Mulliken Net Atomic Charges

     Atom                 Charge (a.u.)
  ----------------------------------------
      1 O                    -0.207923
      2 C                     0.206431
      3 C                    -0.077705
      4 C                    -0.078567
      5 C                     0.205592
      6 O                    -0.168268
      7 C                    -0.052306
      8 C                    -0.046943
      9 O                    -0.188682
     10 C                     0.221452
     11 C                    -0.082678
     12 C                    -0.075775
     13 C                     0.211818
     14 O                    -0.219077
     15 O                    -0.170414
     16 O                    -0.164490
     17 O                    -0.185314
     18 C                    -0.125620
     19 C                     0.021714
     20 C                    -0.142387
     21 C                    -0.145945
     22 C                     0.023797
     23 O                    -0.192050
     24 H                     0.081817
     25 H                     0.085470
     26 H                     0.092973
     27 H                     0.077955
     28 H                     0.071745
     29 H                     0.079039
     30 H                     0.073793
     31 H                     0.088283
     32 O                    -0.211982
     33 C                    -0.128151
     34 C                     0.025336
     35 C                    -0.144534
     36 C                    -0.143695
     37 C                     0.025964
     38 O                    -0.185005
     39 H                     0.086549
     40 H                     0.085533
     41 H                     0.086772
     42 H                     0.088649
     43 H                     0.078637
     44 H                     0.073398
     45 H                     0.078295
     46 H                     0.073345
     47 H                     0.084539
     48 H                     0.089792
     49 H                     0.092374
     50 H                     0.093254
     51 H                     0.089717
     52 H                     0.091329
     53 H                     0.089295
     54 H                     0.095188
     55 H                     0.082943
     56 H                     0.084725
  ----------------------------------------
  Sum of atomic charges =     0.000000

 -----------------------------------------------------------------
                    Cartesian Multipole Moments
 -----------------------------------------------------------------
    Charge (ESU x 10^10)
                 0.0000
    Dipole Moment (Debye)
         X       2.6032      Y       1.3610      Z      -1.6119
       Tot       3.3507
    Quadrupole Moments (Debye-Ang)
        XX    -156.9873     XY       3.4991     YY    -157.2560
        XZ      -1.4443     YZ       1.7832     ZZ    -162.2019
    Octopole Moments (Debye-Ang^2)
       XXX     181.5050    XXY       1.8432    XYY     -12.5256
       YYY     -27.7480    XXZ       6.7225    XYZ      39.6958
       YYZ      -1.7792    XZZ     -33.0802    YZZ     -23.5594
       ZZZ      12.9343
    Hexadecapole Moments (Debye-Ang^3)
      XXXX  -16859.7914   XXXY     207.0526   XXYY   -3117.0584
      XYYY     157.5753   YYYY   -2416.7197   XXXZ    -397.1374
      XXYZ    -116.8186   XYYZ     -91.2497   YYYZ      55.2649
      XXZZ   -3042.7338   XYZZ      59.0182   YYZZ    -618.7715
      XZZZ    -190.6057   YZZZ      56.3828   ZZZZ   -1468.7118
 -----------------------------------------------------------------
 Calculating analytic gradient of the SCF energy
 Gradient of SCF Energy
            1           2           3           4           5           6
    1  -0.0003785   0.0000947   0.0002069  -0.0003540  -0.0002576  -0.0001803
    2   0.0004260  -0.0002840   0.0002827  -0.0009969   0.0015566   0.0018091
    3   0.0000779  -0.0002586  -0.0018664   0.0014286   0.0008671   0.0003018
            7           8           9          10          11          12
    1   0.0008055  -0.0014738   0.0036358   0.0000220  -0.0007123   0.0016308
    2  -0.0015273   0.0081834  -0.0113681   0.0049358   0.0016070  -0.0020509
    3   0.0002612  -0.0056690   0.0089225  -0.0056386  -0.0005721  -0.0025097
           13          14          15          16          17          18
    1  -0.0004024  -0.0008673   0.0004773  -0.0008046  -0.0035516  -0.0002015
    2   0.0003158   0.0015038  -0.0002071  -0.0017141   0.0001091  -0.0000459
    3   0.0004618   0.0011425   0.0000569  -0.0006024   0.0036414  -0.0001592
           19          20          21          22          23          24
    1  -0.0004604  -0.0002035   0.0003244  -0.0005967  -0.0001927  -0.0003778
    2  -0.0008489  -0.0001621  -0.0001658   0.0003669  -0.0000899   0.0008098
    3   0.0006279  -0.0004807   0.0001561  -0.0009163  -0.0002962   0.0004523
           25          26          27          28          29          30
    1   0.0011389   0.0001739  -0.0000388   0.0000831   0.0000118   0.0001255
    2  -0.0000533   0.0000273  -0.0000221   0.0000534  -0.0000606   0.0000162
    3   0.0003079  -0.0000465   0.0000676  -0.0000804   0.0000076   0.0000075
           31          32          33          34          35          36
    1  -0.0000545   0.0002277   0.0000365   0.0003301  -0.0000734   0.0001344
    2  -0.0001047  -0.0018528   0.0000409   0.0001103   0.0000354  -0.0002823
    3   0.0001353  -0.0007954  -0.0000096   0.0002456   0.0001025  -0.0003044
           37          38          39          40          41          42
    1   0.0003541   0.0000737  -0.0001497  -0.0000244  -0.0000161   0.0000215
    2  -0.0004240  -0.0002612   0.0002518   0.0006724   0.0001053  -0.0000190
    3  -0.0002985   0.0000948   0.0000546   0.0002299   0.0000407   0.0001112
           43          44          45          46          47          48
    1  -0.0001281   0.0000607  -0.0000236   0.0000528  -0.0000604   0.0000137
    2  -0.0000685   0.0000570   0.0000822   0.0000618  -0.0001282  -0.0000202
    3  -0.0000299   0.0000084  -0.0000153   0.0000317   0.0000137   0.0000114
           49          50          51          52          53          54
    1  -0.0000175   0.0000426   0.0000251  -0.0000810  -0.0005488   0.0005887
    2   0.0000008   0.0000189   0.0000111  -0.0000133  -0.0004627   0.0004801
    3  -0.0000080   0.0000034   0.0000766   0.0000187   0.0008603  -0.0004879
           55          56
    1   0.0006453   0.0008938
    2  -0.0003519  -0.0003451
    3   0.0004111  -0.0001933
 Max gradient component =       1.137E-02
 RMS gradient           =       1.660E-03
 Gradient time:  CPU 32.15 s  wall 0.68 s
 Geometry Optimization Parameters
   NAtoms,    NIC,     NZ,  NCons,   NDum,   NFix, NCnnct, MaxDiis
       56     458       0       0       0       0       0       0

 Cartesian Hessian Update
 Hessian Updated using BFGS Update


** GEOMETRY OPTIMIZATION IN DELOCALIZED INTERNAL COORDINATES **
   Searching for a Minimum

   Optimization Cycle:   3

                       Coordinates (Angstroms)
     ATOM                X               Y               Z
      1  O         3.4760997574   -2.4717387881    0.0910436417
      2  C         3.8549018589   -1.6295818022   -0.7500779444
      3  C         4.8933611128   -0.4693648860   -0.5493008569
      4  C         4.2016862222    0.9614426908   -0.4262546295
      5  C         2.6599215457    0.9088609401   -0.6977929144
      6  O         1.9940029607    0.4514938247    0.4854192850
      7  C         0.5443958968    0.2841868086    0.2157348550
      8  C        -0.0961144110   -0.2088523066    1.5649478623
      9  O        -1.5535134030    0.0013140256    1.6617345416
     10  C        -2.2386313543   -0.6219765285    0.5250015998
     11  C        -2.9747319148    0.4480441014   -0.3666837034
     12  C        -4.3774433231    0.0996919059   -1.0093000201
     13  C        -5.3451395556   -0.8857914031   -0.2412640327
     14  O        -6.5415764981   -1.0790291916   -0.5543968771
     15  O         3.3666306480   -1.5610938432   -2.0950615531
     16  O        -4.7282826760   -1.4708609654    0.9019676137
     17  O        -2.1922660815   -1.8494742724    0.3101692977
     18  C        -5.6973125287   -2.3339742266    1.6160964109
     19  C        -3.2826266360    1.8523371301    0.3170247605
     20  C        -3.0873296940    2.9498578416   -0.7978836309
     21  C        -4.3020761581    2.6111728287   -1.7417637138
     22  C        -5.0730199092    1.5259948894   -0.8881686098
     23  O        -4.7496505863    1.8663482848    0.5204588726
     24  H        -2.2651944637    0.6248987379   -1.1980198101
     25  H        -4.2687897330   -0.2471880755   -2.0529396921
     26  H        -2.7430278045    2.0165917117    1.2699981490
     27  H        -3.1859235383    3.9579658877   -0.3638568422
     28  H        -2.1127896130    2.8756333447   -1.3070616218
     29  H        -4.9410584179    3.4906251897   -1.9183367817
     30  H        -3.9797042747    2.2100715848   -2.7163192381
     31  H        -6.1697419250    1.4927104155   -1.0399146539
     32  O         2.0713979689    1.1646069203   -1.7710570264
     33  C         2.3278478604   -2.5940997924   -2.3127219368
     34  C         5.5836601543   -0.5894169138    0.8706611688
     35  C         6.8222982284    0.3887487768    0.9187664863
     36  C         6.1052356319    1.7807672846    1.0785720626
     37  C         4.5866834942    1.3435511162    1.0662051083
     38  O         4.5967842973    0.0446858561    1.7753630119
     39  H         5.6178956883   -0.4851182328   -1.3830379279
     40  H         4.6393080262    1.6704351280   -1.1516654935
     41  H         1.4673021010   -2.4582659561   -1.6259174065
     42  H         5.7805694694   -1.6313679927    1.1890536529
     43  H         7.4601758651    0.1603667321    1.7872206296
     44  H         7.4344182867    0.3273485379    0.0047541303
     45  H         6.3584395203    2.2568119090    2.0391488025
     46  H         6.3451748235    2.4811892472    0.2627461820
     47  H         3.8861825158    2.0466934210    1.5562628776
     48  H         2.7310358924   -3.6175730774   -2.1703632293
     49  H         1.9891514061   -2.4710630393   -3.3577863020
     50  H        -5.1616284230   -2.7160972934    2.5043891770
     51  H        -6.0250661856   -3.1851112471    0.9850927154
     52  H        -6.5936391962   -1.7635751791    1.9343128190
     53  H         0.1720052203   -1.2781565930    1.7278259747
     54  H         0.3424645281    0.3855347617    2.3935199947
     55  H         0.3819164634   -0.4573081187   -0.5960720534
     56  H         0.0944820714    1.2494677667   -0.1032080682
   Point Group: c1    Number of degrees of freedom:   162


   Energy is  -1510.256900725

 Hessian Updated using BFGS Update

152 Hessian modes will be used to form the next step
  Hessian Eigenvalues:
     0.000014    0.002004    0.002131    0.002689    0.002865    0.003113
     0.004209    0.004544    0.004631    0.004921    0.004972    0.005139
     0.006673    0.006836    0.011064    0.011343    0.012376    0.017548
     0.020608    0.021887    0.022787    0.025851    0.026372    0.030449
     0.030873    0.034242    0.035705    0.035905    0.040909    0.041694
     0.041859    0.042350    0.043955    0.046485    0.048244    0.050500
     0.050734    0.051356    0.053197    0.054025    0.054346    0.055156
     0.056071    0.056581    0.057269    0.057901    0.058727    0.058926
     0.060399    0.060659    0.062741    0.063972    0.064080    0.064708
     0.068251    0.069905    0.070113    0.072971    0.075389    0.091687
     0.092685    0.092889    0.093693    0.095757    0.096599    0.096849
     0.102610    0.102897    0.103558    0.107518    0.109946    0.116431
     0.117269    0.121871    0.133747    0.135006    0.148469    0.157328
     0.159878    0.159998    0.160005    0.162196    0.163925    0.188209
     0.219249    0.219886    0.220815    0.223857    0.230232    0.231617
     0.238341    0.238859    0.239494    0.239744    0.243806    0.247809
     0.248078    0.248976    0.249015    0.249944    0.249981    0.251749
     0.252976    0.253252    0.254753    0.257715    0.259691    0.262496
     0.285895    0.291043    0.292879    0.305513    0.306685    0.321034
     0.324572    0.324664    0.325908    0.326643    0.326856    0.327025
     0.327064    0.328514    0.328699    0.329047    0.329256    0.329381
     0.330818    0.330846    0.331332    0.331522    0.331720    0.334436
     0.334612    0.334657    0.334783    0.334893    0.334973    0.335064
     0.335396    0.338506    0.343042    0.344636    0.344969    0.361872
     0.405755    0.406380    0.417288    0.825873    0.830266    0.835576
     0.839625    1.568325
**WARNING** Magnitude of eigenvalue   1 too small.  Replaced by     0.000100

 Minimum Search - Taking Simple RFO Step
 Searching for Lamda that Minimizes Along All modes
 Value Taken    Lamda =  -0.01285274
 Calculated Step too Large.  Step scaled by  0.315046
 Step Taken.  Stepsize is  0.300000

                             Maximum     Tolerance    Cnvgd?
         Gradient           0.008398      0.000300      NO
         Displacement       0.101011      0.001200      NO
         Energy change     -0.003575      0.000001      NO


 New Cartesian Coordinates Obtained by Inverse Iteration

 Displacement from previous Coordinates is:  2.660836
 Adding empirical dispersion correction 
 ----------------------------------------------------------------
 Doing -D3(op) with
 s6 =   1.00000
 s8 =   0.78311
 a1 =   0.30000
 a2 =   4.25000
 n  =  10.00000
 -D3 energy without 3body term =     -0.0677470949 hartrees
 ----------------------------------------------------------------
             Standard Nuclear Orientation (Angstroms)
    I     Atom           X                Y                Z
 ----------------------------------------------------------------
    1      O       3.3351437473    -2.4388778267     0.1830781890
    2      C       3.7832967484    -1.6480658091    -0.6736773122
    3      C       4.8882334267    -0.5494398590    -0.4840168831
    4      C       4.2878076590     0.9265929979    -0.4324360979
    5      C       2.7527224590     0.9564071951    -0.7384042008
    6      O       2.0449952675     0.5188303458     0.4279852664
    7      C       0.5934978451     0.4114101008     0.1382987451
    8      C      -0.0735427266    -0.0937581853     1.4692996115
    9      O      -1.5226175944     0.1626301266     1.5127033039
   10      C      -2.1613507414    -0.4957631733     0.3749990342
   11      C      -3.0005966440     0.5377630720    -0.4617493140
   12      C      -4.4157214656     0.1157135415    -1.0291349585
   13      C      -5.2675165200    -0.9509938035    -0.2344840220
   14      O      -6.4501832499    -1.2516881719    -0.5127639477
   15      O       3.3294507668    -1.5967341854    -2.0315689736
   16      O      -4.5601253238    -1.4887086163     0.8791378170
   17      O      -2.0053572390    -1.7059626539     0.1168519669
   18      C      -5.4227062777    -2.4388358771     1.6191238418
   19      C      -3.3636807863     1.9026124467     0.2748983828
   20      C      -3.2976205682     3.0340596364    -0.8200060880
   21      C      -4.5392623268     2.6392170657    -1.7071316338
   22      C      -5.1935941101     1.4895675174    -0.8402126805
   23      O      -4.8153552625     1.8195588222     0.5565739928
   24      H      -2.3422165553     0.7853306518    -1.3182465786
   25      H      -4.3407164002    -0.2079944384    -2.0833203205
   26      H      -2.7864316564     2.0796374475     1.2033379463
   27      H      -3.4352116557     4.0245251560    -0.3568681595
   28      H      -2.3487151710     3.0319841473    -1.3802603049
   29      H      -5.2405513208     3.4798575371    -1.8282982868
   30      H      -4.2458180782     2.2800636193    -2.7068495757
   31      H      -6.2926837717     1.3888760525    -0.9339313233
   32      O       2.1999194315     1.2339764010    -1.8251707233
   33      C       2.2363121046    -2.5749361028    -2.2385021928
   34      C       5.5304922348    -0.6632879372     0.9578714512
   35      C       6.8271973258     0.2359832683     1.0108701547
   36      C       6.1960499034     1.6748737672     1.1044950667
   37      C       4.6539687984     1.3329416884     1.0592709162
   38      O       4.5610154343     0.0619188264     1.8109618748
   39      H       5.6318580976    -0.6408330998    -1.2958901983
   40      H       4.7875544023     1.5863420609    -1.1638967614
   41      H       1.3713711594    -2.3665421534    -1.5759610979
   42      H       5.6512045157    -1.7040401357     1.3158603771
   43      H       7.4246378184    -0.0019714823     1.9050840030
   44      H       7.4590092516     0.1047117327     0.1179921916
   45      H       6.4521484358     2.1657481945     2.0566187910
   46      H       6.5027821133     2.3311262783     0.2745108625
   47      H       3.9853561873     2.0943951758     1.5049680811
   48      H       2.5756907330    -3.6145164603    -2.0530580684
   49      H       1.9268527008    -2.4689904514    -3.2943889685
   50      H      -4.8217895318    -2.7812566637     2.4814985444
   51      H      -5.7003020934    -3.3093489804     0.9904362937
   52      H      -6.3519122915    -1.9516320599     1.9788537909
   53      H       0.1617504323    -1.1715791553     1.6237293380
   54      H       0.3600635020     0.4807040063     2.3143019709
   55      H       0.4162690236    -0.3113262692    -0.6875206423
   56      H       0.1680790479     1.3930945480    -0.1685973781
 ----------------------------------------------------------------
 Molecular Point Group                 C1    NOp =  1
 Largest Abelian Subgroup              C1    NOp =  1
 Nuclear Repulsion Energy =  3094.3769933190 hartrees
 There are      113 alpha and      113 beta electrons
 Applying Cartesian multipole field
    Component          Value
    ---------          -----
     (2,0,0)        1.00000E-12
     (0,2,0)        2.00000E-11
     (0,0,2)       -3.00000E-11
 Nucleus-field energy     =     0.0000000198 hartrees
 Requested basis set is STO-3G
 There are 86 shells and 176 basis functions
 A cutoff of  1.0D-12 yielded   2104 shell pairs
 There are      9799 function pairs
 Smallest overlap matrix eigenvalue = 2.13E-01
 Guess MOs from SCF MO coefficient file
 Reading MOs from coefficient file
 Reading MOs from coefficient file
 A restricted hybrid HF-DFT SCF calculation will be
[...]
      6  O         2.5168163041    1.9830340423    0.5510085291
      7  C         1.1976062696    2.6400225199    0.3866979567
      8  C         0.1031024628    1.7476688604    1.0934137941
      9  O        -1.2436164491    1.9432284825    0.4994856488
     10  C        -1.3919120542    1.1199264187   -0.6551130635
     11  C        -2.8375100291    1.2540799484   -1.2601336308
     12  C        -3.6524836869   -0.1099551003   -1.2029550266
     13  C        -2.8966191453   -1.2628904722   -0.4611078385
     14  O        -2.7757437262   -2.4508458716   -0.8345756143
     15  O         1.8719260995   -2.1700054355   -1.3103351523
     16  O        -2.3734879877   -0.7319539060    0.7566171691
     17  O        -0.4616462331    0.4331500185   -1.1396800404
     18  C        -1.5401068435   -1.7359860628    1.4641510662
     19  C        -3.8019225069    2.2192294204   -0.4533216211
     20  C        -5.0260350575    2.5826888843   -1.3834324136
     21  C        -5.8388718840    1.2352357321   -1.3554745480
     22  C        -4.9418664093    0.3582225350   -0.3943592727
     23  O        -4.4015417522    1.3363629982    0.5742618814
     24  H        -2.7236888628    1.5846251802   -2.3090748402
     25  H        -3.9149838429   -0.4715015195   -2.2124731602
     26  H        -3.2921893126    3.0774775614    0.0242487714
     27  H        -5.6049208751    3.4121650204   -0.9472394764
     28  H        -4.7079415451    2.8685693092   -2.3988756133
     29  H        -6.8421859510    1.3762301494   -0.9229822123
     30  H        -5.9446593318    0.7802735662   -2.3532182896
     31  H        -5.4735258742   -0.4580644814    0.1323769587
     32  O         2.2071739141    1.3131404913   -1.7045646253
     33  C         0.4105428451   -2.3225174108   -1.5415978682
     34  C         4.2298256984   -1.3430718013    1.4388481682
     35  C         5.7968491825   -1.5149485537    1.3534354406
     36  C         6.2411740497   -0.0464360556    1.0051171220
     37  C         4.8500203399    0.7034805687    0.9907455031
     38  O         4.0607201216    0.0024952252    2.0307742412
     39  H         4.1682289436   -1.8703450923   -0.7458183680
     40  H         4.7535460376    0.3737334867   -1.2331746415
     41  H        -0.0939675772   -1.3289011341   -1.4829220310
     42  H         3.6987820064   -2.1021696430    2.0451381894
     43  H         6.2006686723   -1.8396924444    2.3256605466
     44  H         6.0949272359   -2.2457165883    0.5845991654
     45  H         6.8967728531    0.3731036022    1.7845192092
     46  H         6.7588792847    0.0212090445    0.0349034492
     47  H         4.8936423629    1.7881755474    1.2041883955
     48  H        -0.0416262616   -3.0195148977   -0.8083477100
     49  H         0.3130331059   -2.7484839992   -2.5562659764
     50  H        -0.4679946518   -1.5729777713    1.1984560647
     51  H        -1.8500015081   -2.7603607163    1.1793241275
     52  H        -1.6929083711   -1.5753194065    2.5472238929
     53  H         0.4290739009    0.6826196770    1.0080560142
     54  H         0.0005107797    2.0249739862    2.1603930181
     55  H         0.9712837897    2.7245084880   -0.6985013048
     56  H         1.2666004961    3.6463506958    0.8447059893
   Point Group: c1    Number of degrees of freedom:   162


   Energy is  -1510.299272585

 Hessian Updated using BFGS Update

162 Hessian modes will be used to form the next step
  Hessian Eigenvalues:
     0.001617    0.001846    0.002495    0.002970    0.003477    0.005558
     0.005883    0.006892    0.008956    0.011200    0.013351    0.015941
     0.019892    0.021904    0.022143    0.026653    0.027898    0.028636
     0.029771    0.031368    0.032117    0.034738    0.036074    0.036895
     0.040060    0.041485    0.042450    0.042844    0.045004    0.046487
     0.048144    0.049546    0.050091    0.051164    0.051488    0.052889
     0.053912    0.054554    0.055468    0.056265    0.056497    0.057251
     0.058233    0.058384    0.059267    0.060731    0.062923    0.063523
     0.064245    0.064874    0.065441    0.066749    0.068868    0.069753
     0.071381    0.072417    0.073224    0.074786    0.088028    0.090819
     0.093094    0.093890    0.098510    0.100464    0.103657    0.104893
     0.106705    0.108226    0.109753    0.111067    0.113582    0.117790
     0.121091    0.129632    0.133301    0.140413    0.141571    0.148109
     0.158591    0.161743    0.163086    0.165283    0.168129    0.173457
     0.180363    0.187624    0.189665    0.198111    0.218914    0.220774
     0.224636    0.230564    0.238691    0.239205    0.239686    0.241289
     0.242960    0.245921    0.248203    0.251094    0.252138    0.253037
     0.254830    0.255847    0.256663    0.259094    0.261931    0.269315
     0.270874    0.275305    0.285314    0.294236    0.298412    0.304830
     0.306748    0.311849    0.319984    0.321385    0.324202    0.326073
     0.326499    0.327494    0.327522    0.327848    0.328838    0.329120
     0.329405    0.329806    0.330106    0.330941    0.331765    0.331832
     0.332597    0.333012    0.333318    0.334695    0.334885    0.334900
     0.334975    0.335276    0.335439    0.335573    0.336902    0.339550
     0.346820    0.359067    0.361634    0.379495    0.384194    0.395103
     0.412592    0.462215    0.513612    0.578351    0.601002    0.822817
     0.832395    0.836383    0.845659    1.089867    1.948201    2.936973

 Minimum Search - Taking Simple RFO Step
 Searching for Lamda that Minimizes Along All modes
 Value Taken    Lamda =   0.00000000
 Step Taken.  Stepsize is  0.003662

                             Maximum     Tolerance    Cnvgd?
         Gradient           0.000153      0.000300     YES
         Displacement       0.000980      0.001200     YES
         Energy change     -0.000001      0.000001     YES

 Final energy is   -1510.29927258470     


 ******************************
 **  OPTIMIZATION CONVERGED  **
 ******************************

                       Coordinates (Angstroms)
     ATOM                X               Y               Z
      1  O         1.2591709991   -1.0394994599    0.6873981653
      2  C         2.1306563274   -1.4255805974   -0.1321360198
      3  C         3.6754306515   -1.1773050701   -0.0417763202
      4  C         4.0921909034    0.3306547217   -0.3493180386
      5  C         2.8439533042    1.2407771854   -0.6297086473
      6  O         2.5168163041    1.9830340423    0.5510085291
      7  C         1.1976062696    2.6400225199    0.3866979567
      8  C         0.1031024628    1.7476688604    1.0934137941
      9  O        -1.2436164491    1.9432284825    0.4994856488
     10  C        -1.3919120542    1.1199264187   -0.6551130635
     11  C        -2.8375100291    1.2540799484   -1.2601336308
     12  C        -3.6524836869   -0.1099551003   -1.2029550266
     13  C        -2.8966191453   -1.2628904722   -0.4611078385
     14  O        -2.7757437262   -2.4508458716   -0.8345756143
     15  O         1.8719260995   -2.1700054355   -1.3103351523
     16  O        -2.3734879877   -0.7319539060    0.7566171691
     17  O        -0.4616462331    0.4331500185   -1.1396800404
     18  C        -1.5401068435   -1.7359860628    1.4641510662
     19  C        -3.8019225069    2.2192294204   -0.4533216211
     20  C        -5.0260350575    2.5826888843   -1.3834324136
     21  C        -5.8388718840    1.2352357321   -1.3554745480
     22  C        -4.9418664093    0.3582225350   -0.3943592727
     23  O        -4.4015417522    1.3363629982    0.5742618814
     24  H        -2.7236888628    1.5846251802   -2.3090748402
     25  H        -3.9149838429   -0.4715015195   -2.2124731602
     26  H        -3.2921893126    3.0774775614    0.0242487714
     27  H        -5.6049208751    3.4121650204   -0.9472394764
     28  H        -4.7079415451    2.8685693092   -2.3988756133
     29  H        -6.8421859510    1.3762301494   -0.9229822123
     30  H        -5.9446593318    0.7802735662   -2.3532182896
     31  H        -5.4735258742   -0.4580644814    0.1323769587
     32  O         2.2071739141    1.3131404913   -1.7045646253
     33  C         0.4105428451   -2.3225174108   -1.5415978682
     34  C         4.2298256984   -1.3430718013    1.4388481682
     35  C         5.7968491825   -1.5149485537    1.3534354406
     36  C         6.2411740497   -0.0464360556    1.0051171220
     37  C         4.8500203399    0.7034805687    0.9907455031
     38  O         4.0607201216    0.0024952252    2.0307742412
     39  H         4.1682289436   -1.8703450923   -0.7458183680
     40  H         4.7535460376    0.3737334867   -1.2331746415
     41  H        -0.0939675772   -1.3289011341   -1.4829220310
     42  H         3.6987820064   -2.1021696430    2.0451381894
     43  H         6.2006686723   -1.8396924444    2.3256605466
     44  H         6.0949272359   -2.2457165883    0.5845991654
     45  H         6.8967728531    0.3731036022    1.7845192092
     46  H         6.7588792847    0.0212090445    0.0349034492
     47  H         4.8936423629    1.7881755474    1.2041883955
     48  H        -0.0416262616   -3.0195148977   -0.8083477100
     49  H         0.3130331059   -2.7484839992   -2.5562659764
     50  H        -0.4679946518   -1.5729777713    1.1984560647
     51  H        -1.8500015081   -2.7603607163    1.1793241275
     52  H        -1.6929083711   -1.5753194065    2.5472238929
     53  H         0.4290739009    0.6826196770    1.0080560142
     54  H         0.0005107797    2.0249739862    2.1603930181
     55  H         0.9712837897    2.7245084880   -0.6985013048
     56  H         1.2666004961    3.6463506958    0.8447059893

Z-matrix Print:
$molecule
0 1
O 
C  1 1.253739
O  2 1.425804 1 123.512142
C  3 1.484805 2 110.011119 1 -5.764585 0
H  4 1.107189 3 105.571911 2 -155.478818 0
H  4 1.117082 3 111.080287 2 -36.459796 0
C  2 1.572832 1 125.451855 3 176.723087 0
H  7 1.105664 2 107.206615 1 -54.590490 0
C  4 1.579139 3 112.036820 2 83.909264 0
H  9 1.107803 4 111.806057 3 87.525785 0
H  9 1.111763 4 109.796879 3 -35.258162 0
O  9 1.482885 4 108.460452 3 -154.073939 0
C  12 1.432500 9 109.962172 4 98.140610 0
O  13 1.251415 12 124.178923 9 10.211720 0
C  13 1.570044 12 109.555846 9 -169.065567 0
H  15 1.104739 13 108.087186 12 -138.610786 0
C  15 1.584006 13 113.266633 12 -13.370020 0
H  17 1.106356 15 114.383212 13 -37.299558 0
O  17 1.481903 15 103.154538 13 82.690916 0
C  19 1.479704 17 95.079071 15 57.725135 0
H  20 1.107170 19 110.462548 17 -179.328054 0
C  20 1.578734 19 103.537338 17 56.402465 0
H  22 1.101703 20 110.375404 19 82.143392 0
H  22 1.101808 20 112.240069 19 -156.392796 0
C  22 1.573302 20 100.992459 19 -35.952248 0
H  25 1.101495 22 111.527622 20 118.881119 0
H  25 1.101775 22 112.641640 20 -118.618463 0
C  7 1.585103 2 114.540952 1 -178.625580 0
H  28 1.106567 7 114.308911 2 33.132886 0
O  28 1.481528 7 103.676509 2 -87.156451 0
C  30 1.478829 28 95.033221 7 -56.475342 0
H  31 1.107446 30 110.573266 28 -179.897622 0
C  28 1.579766 7 108.171158 2 163.513038 0
H  33 1.101546 28 110.323255 7 -167.989873 0
H  33 1.101833 28 112.246731 7 -46.546522 0
C  33 1.573885 28 101.113487 7 73.926054 0
H  36 1.101621 33 111.577800 28 118.338313 0
H  36 1.101669 33 112.772040 28 -118.954536 0
C  20 1.589680 19 103.763060 17 -56.192245 0
H  39 1.104006 20 111.890653 19 151.000807 0
C  39 1.567206 20 112.391709 19 -87.692847 0
O  41 1.257053 39 126.663132 20 40.866929 0
O  41 1.417485 39 108.121694 20 -139.137670 0
C  43 1.487408 41 111.248679 39 -173.993831 0
H  44 1.104766 43 105.607960 41 170.180052 0
H  44 1.108115 43 111.255302 41 -71.432937 0
H  44 1.115906 43 110.164927 41 50.733869 0
C  7 1.589982 2 112.587688 1 66.616628 0
H  48 1.103970 7 111.712519 2 -117.815976 0
C  48 1.565544 7 113.663030 2 4.541211 0
O  50 1.251130 48 127.189611 7 -134.532163 0
O  50 1.427730 48 107.890594 7 46.547992 0
C  52 1.484321 50 111.145303 48 -175.069354 0
H  53 1.105536 52 106.922658 50 -145.344408 0
H  53 1.107477 52 110.240905 50 -25.373602 0
H  53 1.116508 52 109.083185 50 95.548722 0
$end

 
 --------------------------------------------------------------
 
                    Orbital Energies (a.u.)
 --------------------------------------------------------------
 
 Alpha MOs
 -- Occupied --
-18.940 -18.933 -18.931 -18.927 -18.888 -18.886 -18.881 -18.875
-18.869 -18.869 -10.107 -10.101 -10.098 -10.094 -10.062 -10.061
-10.059 -10.059 -10.056 -10.054 -10.041 -10.039 -10.038 -10.037
-10.036 -10.034 -10.021 -10.020 -10.019 -10.018  -1.016  -1.011
 -1.008  -1.001  -0.970  -0.967  -0.938  -0.936  -0.931  -0.929
 -0.764  -0.761  -0.725  -0.721  -0.711  -0.705  -0.688  -0.656
 -0.646  -0.612  -0.595  -0.577  -0.547  -0.543  -0.537  -0.535
 -0.513  -0.507  -0.480  -0.477  -0.466  -0.459  -0.450  -0.438
 -0.433  -0.431  -0.423  -0.420  -0.408  -0.406  -0.399  -0.398
 -0.381  -0.377  -0.370  -0.363  -0.359  -0.355  -0.352  -0.348
 -0.342  -0.338  -0.331  -0.328  -0.325  -0.323  -0.315  -0.310
 -0.306  -0.306  -0.301  -0.299  -0.291  -0.288  -0.284  -0.277
 -0.273  -0.260  -0.244  -0.239  -0.238  -0.234  -0.230  -0.187
 -0.175  -0.171  -0.160  -0.159  -0.153  -0.149  -0.146  -0.143
 -0.140
 -- Virtual --
  0.089   0.096   0.100   0.113   0.220   0.235   0.247   0.254
  0.263   0.282   0.287   0.288   0.307   0.322   0.328   0.328
  0.340   0.342   0.346   0.348   0.358   0.362   0.366   0.368
  0.377   0.379   0.383   0.403   0.404   0.406   0.409   0.412
  0.412   0.415   0.420   0.430   0.433   0.434   0.440   0.447
  0.448   0.451   0.452   0.454   0.461   0.467   0.470   0.475
  0.485   0.489   0.489   0.493   0.502   0.509   0.516   0.536
  0.537   0.552   0.556   0.639   0.645   0.650   0.654
 --------------------------------------------------------------
 
          Ground-State Mulliken Net Atomic Charges

     Atom                 Charge (a.u.)
  ----------------------------------------
      1 O                    -0.219990
      2 C                     0.220116
      3 C                    -0.078703
      4 C                    -0.077481
      5 C                     0.206980
      6 O                    -0.168652
      7 C                    -0.056150
      8 C                    -0.060200
      9 O                    -0.166217
     10 C                     0.221747
     11 C                    -0.078213
     12 C                    -0.079395
     13 C                     0.207695
     14 O                    -0.217909
     15 O                    -0.162705
     16 O                    -0.168523
     17 O                    -0.225302
     18 C                    -0.150182
     19 C                     0.025119
     20 C                    -0.144228
     21 C                    -0.144021
     22 C                     0.026181
     23 O                    -0.185024
     24 H                     0.083837
     25 H                     0.084283
     26 H                     0.090972
     27 H                     0.077551
     28 H                     0.072720
     29 H                     0.077696
     30 H                     0.073672
     31 H                     0.082774
     32 O                    -0.208321
     33 C                    -0.144749
     34 C                     0.025322
     35 C                    -0.143524
     36 C                    -0.144615
     37 C                     0.025952
     38 O                    -0.185115
     39 H                     0.087884
     40 H                     0.085778
     41 H                     0.117650
     42 H                     0.083906
     43 H                     0.078131
     44 H                     0.073881
     45 H                     0.077946
     46 H                     0.073353
     47 H                     0.089049
     48 H                     0.084238
     49 H                     0.087378
     50 H                     0.109487
     51 H                     0.087816
     52 H                     0.083564
     53 H                     0.115133
     54 H                     0.087957
     55 H                     0.098678
     56 H                     0.084773
  ----------------------------------------
  Sum of atomic charges =    -0.000000

 -----------------------------------------------------------------
                    Cartesian Multipole Moments
 -----------------------------------------------------------------
    Charge (ESU x 10^10)
                 0.0000
    Dipole Moment (Debye)
         X       1.0424      Y       0.5551      Z      -0.8309
       Tot       1.4440
    Quadrupole Moments (Debye-Ang)
        XX    -140.8476     XY      -5.4828     YY    -155.3088
        XZ       6.0788     YZ      -4.9394     ZZ    -163.7223
    Octopole Moments (Debye-Ang^2)
       XXX     -18.5277    XXY     -26.6140    XYY      -8.9570
       YYY     -53.4451    XXZ     -21.3767    XYZ      13.2811
       YYZ      21.4706    XZZ     -42.6893    YZZ     -30.7990
       ZZZ      30.4683
    Hexadecapole Moments (Debye-Ang^3)
      XXXX  -11448.9743   XXXY     616.0367   XXYY   -2437.9706
      XYYY     639.1007   YYYY   -2511.8477   XXXZ    -764.7337
      XXYZ     -49.3419   XYYZ    -281.4337   YYYZ      75.3989
      XXZZ   -2272.3605   XYZZ     212.7713   YYZZ    -629.4614
      XZZZ    -869.8147   YZZZ      91.8935   ZZZZ   -1303.5914
 -----------------------------------------------------------------
Archival summary:
1\1\vega02.cac.cornell.edu\OPT\ProcedureUnspecified\STO-3G\102026\jj585\SunJan1410:51:422018SunJan1410:51:422018\0\\#,OPT,ProcedureUnspecified,STO-3G,\\0,1\O\C,1,1.25374\O,2,1.4258,1,123.512\C,3,1.48481,2,110.011,1,-5.76459,0\H,4,1.10719,3,105.572,2,-155.479,0\H,4,1.11708,3,111.08,2,-36.4598,0\C,2,1.57283,1,125.452,3,176.723,0\H,7,1.10566,2,107.207,1,-54.5905,0\C,4,1.57914,3,112.037,2,83.9093,0\H,9,1.1078,4,111.806,3,87.5258,0\H,9,1.11176,4,109.797,3,-35.2582,0\O,9,1.48288,4,108.46,3,-154.074,0\C,12,1.4325,9,109.962,4,98.1406,0\O,13,1.25142,12,124.179,9,10.2117,0\C,13,1.57004,12,109.556,9,-169.066,0\H,15,1.10474,13,108.087,12,-138.611,0\C,15,1.58401,13,113.267,12,-13.37,0\H,17,1.10636,15,114.383,13,-37.2996,0\O,17,1.4819,15,103.155,13,82.6909,0\C,19,1.4797,17,95.0791,15,57.7251,0\H,20,1.10717,19,110.463,17,-179.328,0\C,20,1.57873,19,103.537,17,56.4025,0\H,22,1.1017,20,110.375,19,82.1434,0\H,22,1.10181,20,112.24,19,-156.393,0\C,22,1.5733,20,100.992,19,-35.9522,0\H,25,1.10149,22,111.528,20,118.881,0\H,25,1.10178,22,112.642,20,-118.618,0\C,7,1.5851,2,114.541,1,-178.626,0\H,28,1.10657,7,114.309,2,33.1329,0\O,28,1.48153,7,103.677,2,-87.1565,0\C,30,1.47883,28,95.0332,7,-56.4753,0\H,31,1.10745,30,110.573,28,-179.898,0\C,28,1.57977,7,108.171,2,163.513,0\H,33,1.10155,28,110.323,7,-167.99,0\H,33,1.10183,28,112.247,7,-46.5465,0\C,33,1.57389,28,101.113,7,73.9261,0\H,36,1.10162,33,111.578,28,118.338,0\H,36,1.10167,33,112.772,28,-118.955,0\C,20,1.58968,19,103.763,17,-56.1922,0\H,39,1.10401,20,111.891,19,151.001,0\C,39,1.56721,20,112.392,19,-87.6928,0\O,41,1.25705,39,126.663,20,40.8669,0\O,41,1.41748,39,108.122,20,-139.138,0\C,43,1.48741,41,111.249,39,-173.994,0\H,44,1.10477,43,105.608,41,170.18,0\H,44,1.10811,43,111.255,41,-71.4329,0\H,44,1.11591,43,110.165,41,50.7339,0\C,7,1.58998,2,112.588,1,66.6166,0\H,48,1.10397,7,111.713,2,-117.816,0\C,48,1.56554,7,113.663,2,4.54121,0\O,50,1.25113,48,127.19,7,-134.532,0\O,50,1.42773,48,107.891,7,46.548,0\C,52,1.48432,50,111.145,48,-175.069,0\H,53,1.10554,52,106.923,50,-145.344,0\H,53,1.10748,52,110.241,50,-25.3736,0\H,53,1.11651,52,109.083,50,95.5487,0\\\@

 Total job time:  251.66s(wall), 12013.55s(cpu) 
 Sun Jan 14 10:51:42 2018

        *************************************************************
        *                                                           *
        *  Thank you very much for using Q-Chem.  Have a nice day.  *
        *                                                           *
        *************************************************************


0 sent ACK to 0 
now end server 0 ... 
