mFile = /opt/software/qchem/qchem-5.0.1//bin/mpi/machines
Process 0 of 1 is on vega02.cac.cornell.edu - thread support 0
initial socket setup ...start
initial socket setup ...done 
now start server 0 ... 
vega02.cac.cornell.edu 10.84.3
Q-Chem Developer Version! Running on 10.84.3.*
                  Welcome to Q-Chem
     A Quantum Leap Into The Future Of Chemistry


 Q-Chem 5.0, Q-Chem, Inc., Pleasanton, CA (2017)

 Yihan Shao,  Zhengting Gan,  E. Epifanovsky,  A. T. B. Gilbert,  M. Wormit,  
 J. Kussmann,  A. W. Lange,  A. Behn,  Jia Deng,  Xintian Feng,  D. Ghosh,  
 M. Goldey,  P. R. Horn,  L. D. Jacobson,  I. Kaliman,  T. Kus,  A. Landau,  
 Jie Liu,  E. I. Proynov,  R. M. Richard,  R. P. Steele,  E. J. Sundstrom,  
 H. L. Woodcock III,  P. M. Zimmerman,  D. Zuev,  B. Albrecht,  E. Alguire,  
 S. A. Baeppler,  Z. Benda,  Y. A. Bernard,  E. J. Berquist,  K. B. Bravaya,  
 D. Casanova,  Chun-Min Chang,  Yunqing Chen,  A. Chien,  K. D. Closser,  
 M. P. Coons,  S. Dasgupta,  M. Diedenhofen,  Hainam Do,  R. G. Edgar,  
 Po-Tung Fang,  S. Fatehi,  Qingguo Feng,  Qinghui Ge,  A. Ghysels,  
 J. Gomes,  J. Gonthier,  A. Gunina,  M. W. D. Hanson-Heine,  
 P. H. P. Harbach,  A. W. Hauser,  J. E. Herr,  E. G. Hohenstein,  
 Z. C. Holden,  Kerwin Hui,  T.-C. Jagau,  Hyunjun Ji,  B. Kaduk,  
 K. Khistyaev,  Jaehoon Kim,  P. Klunzinger,  K. Koh,  D. Kosenkov,  
 T. Kowalczyk,  C. M. Krauter,  A. Kunitsa,  Ka Un Lao,  A. Laurent,  
 K. V. Lawler,  Joonho Lee,  D. Lefrancois,  S. Lehtola,  D. S. Levine,  
 Yi-Pei Li,  You-Sheng Lin,  Fenglai Liu,  E. Livshits,  A. Luenser,  
 P. Manohar,  E. Mansoor,  S. F. Manzer,  Shan-Ping Mao,  Yuezhi Mao,  
 N. Mardirossian,  A. V. Marenich,  L. A. Martinez-Martinez,  S. A. Maurer,  
 N. J. Mayhall,  S. C. McKenzie,  J.-M. Mewes,  A. F. Morrison,  K. Nanda,  
 T. S. Nguyen-Beck,  R. Olivares-Amaya,  J. A. Parkhill,  T. M. Perrine,  
 F. Plasser,  S. Prager,  A. Prociuk,  D. R. Rehn,  F. Rob,  M. Schneider,  
 N. Sergueev,  S. M. Sharada,  S. Sharma,  D. W. Small,  T. Stauch,  
 T. Stein,  Yu-Chuan Su,  A. J. W. Thom,  T. Tsuchimochi,  L. Vogt,  
 O. Vydrov,  M. A. Watson,  J. Wenzel,  M. de Wergifosse,  T. A. Wesolowski,  
 A. White,  J. Witte,  A. Yamada,  Jun Yang,  K. Yao,  S. Yeganeh,  
 S. R. Yost,  Zhi-Qiang You,  A. Zech,  Igor Ying Zhang,  Xing Zhang,  
 Yan Zhao,  Ying Zhu,  B. R. Brooks,  G. K. L. Chan,  C. J. Cramer,  
 M. S. Gordon,  W. J. Hehre,  A. Klamt,  M. W. Schmidt,  C. D. Sherrill,  
 D. G. Truhlar,  A. Aspuru-Guzik,  R. Baer,  A. T. Bell,  N. A. Besley,  
 Jeng-Da Chai,  A. Dreuw,  B. D. Dunietz,  T. R. Furlani,  Chao-Ping Hsu,  
 Yousung Jung,  Jing Kong,  D. S. Lambrecht,  WanZhen Liang,  C. Ochsenfeld,  
 V. A. Rassolov,  L. V. Slipchenko,  J. E. Subotnik,  T. Van Voorhis,  
 J. M. Herbert,  A. I. Krylov,  P. M. W. Gill,  M. Head-Gordon

 Contributors to earlier versions of Q-Chem not listed above: 
 R. D. Adamson,  B. Austin,  J. Baker,  G. J. O. Beran,  K. Brandhorst,  
 S. T. Brown,  E. F. C. Byrd,  A. K. Chakraborty,  C.-L. Cheng,  
 Siu Hung Chien,  D. M. Chipman,  D. L. Crittenden,  H. Dachsel,  
 R. A. DiStasio Jr.,  R. J. Doerksen,  A. D. Dutoi,  L. Fusti-Molnar,  
 W. A. Goddard III,  A. Golubeva-Zadorozhnaya,  S. R. Gwaltney,  G. Hawkins,  
 A. Heyden,  S. Hirata,  G. Kedziora,  F. J. Keil,  C. Kelley,  Jihan Kim,  
 R. A. King,  R. Z. Khaliullin,  P. P. Korambath,  W. Kurlancheek,  
 A. M. Lee,  M. S. Lee,  S. V. Levchenko,  Ching Yeh Lin,  D. Liotard,  
 R. C. Lochan,  I. Lotan,  P. E. Maslen,  N. Nair,  D. P. O'Neill,  
 D. Neuhauser,  E. Neuscamman,  C. M. Oana,  R. Olson,  B. Peters,  
 R. Peverati,  P. A. Pieniazek,  Y. M. Rhee,  J. Ritchie,  M. A. Rohrdanz,  
 E. Rosta,  N. J. Russ,  H. F. Schaefer III,  N. E. Schultz,  N. Shenvi,  
 A. C. Simmonett,  A. Sodt,  D. Stuck,  K. S. Thanthiriwatte,  V. Vanovschi,  
 Tao Wang,  A. Warshel,  C. F. Williams,  Q. Wu,  X. Xu,  W. Zhang

 Please cite Q-Chem as follows:
 Y. Shao et al., Mol. Phys. 113, 184-215 (2015)
 DOI: 10.1080/00268976.2014.952696

 Q-Chem 5.0.1 for Intel X86 EM64T Linux

 Parts of Q-Chem use Armadillo 5.200.1 (Boston Tea Smuggler).
 http://arma.sourceforge.net/

 Q-Chem begins on Sun Jan 14 11:15:02 2018  

Host: vega02.cac.cornell.edu
0

     Scratch files written to /scratch/jj585/SOT1001/0407r.save//
 Parallel job on  1  processors

Checking the input file for inconsistencies... 	...done.

--------------------------------------------------------------
User input:
--------------------------------------------------------------
$molecule
0  1
O 3.5694421726 -2.2062603348 0.1940840196
C 4.4957461736 -1.3914032674 0.3999959383
C 4.9113402242 -0.1758519054 -0.4990783639
C 3.7926716415 0.2826015864 -1.5212600644
C 2.3730212893 -0.329904117 -1.2559054127
O 1.9851500976 -0.0333446854 0.0931998509
C 0.7058342313 -0.7059778846 0.4171242076
C -0.3494990334 0.370199628 0.8725663579
O -1.6634636883 0.0621129063 0.2601894719
C -2.6326245412 -0.2307791795 1.2803465623
C -3.8644457322 -0.9750574575 0.6450915226
C -5.1921544499 -0.1279035936 0.449746565
C -5.0316532934 1.4395582341 0.435699469
O -5.7879137646 2.2450088048 -0.1495265368
O 5.389040242 -1.4625263704 1.5148255226
O -3.8766389695 1.8356458137 1.1741274723
O -2.4131329062 -0.1035103276 2.5064352273
C -3.6823010616 3.300697552 1.0948542833
C -3.6540819413 -1.5506031812 -0.8234014315
C -4.6101463111 -2.7972928774 -0.9796994871
C -6.0139889155 -2.0867991544 -1.0400798712
C -5.5923004472 -0.5647427455 -1.0226644077
O -4.2790358737 -0.5431826781 -1.7105815376
H -4.083030088 -1.8028429855 1.3447831033
H -5.9602855352 -0.3990985222 1.1977156511
H -2.5959438863 -1.7130125923 -1.1034669063
H -4.3910532421 -3.3317700306 -1.9181139451
H -4.52211049 -3.5049590186 -0.1401047731
H -6.5534022026 -2.3285364881 -1.9694424045
H -6.6561679627 -2.3441161036 -0.1823743411
H -6.2992450052 0.135612813 -1.5090903091
O 1.6606217592 -0.950066773 -2.0761044376
C 5.0374438997 -2.6197255335 2.3701661205
C 5.1977846336 1.177251822 0.2867172923
C 6.1258692018 2.0684071248 -0.6279003696
C 5.1109352622 2.4948599326 -1.753044405
C 3.7698825495 1.8459948449 -1.2228348739
O 3.906560799 1.8989272668 0.2508420409
H 5.8205473645 -0.4850766169 -1.0490566591
H 4.0700589887 0.057849247 -2.5657920898
H 5.1203116364 -3.5770992313 1.8160379815
H 5.5416000951 1.0325578323 1.3290592207
H 6.4904390621 2.9419727388 -0.0642508813
H 6.9924515341 1.5114713017 -1.0183288586
H 5.0118931952 3.5899829206 -1.8174195547
H 5.3896678375 2.1067700852 -2.7457935362
H 2.8418961717 2.3578402742 -1.5438089085
H 4.0064271819 -2.5324684898 2.7696087379
H 5.7608814823 -2.6115834978 3.2060752151
H -2.7624232058 3.5143992066 1.6696757896
H -4.5374879532 3.8475232694 1.5418769276
H -3.5554407454 3.6360141995 0.0453532591
H -0.4745899143 0.3965742634 1.976586294
H -0.0210271294 1.3688179251 0.5131758618
H 0.8962513243 -1.4495126522 1.2183871574
H 0.3443691738 -1.2265503384 -0.4981056729
$end

$rem
JOBTYPE                   OPT
METHOD                    B3LYP
DFT_D                     d3_op
BASIS                     STO-3G
GEOM_OPT_MAX_CYCLES       100
GEOM_OPT_TOL_GRADIENT     300
GEOM_OPT_TOL_DISPLACEMENT 1200
GEOM_OPT_TOL_ENERGY       100
SYMMETRY                  False
THRESH                    12
SCF_CONVERGENCE           8
MAX_SUB_FILE_NUM          128
MEM_STATIC                400
MEM_TOTAL                 4000
$end
--------------------------------------------------------------
 Adding empirical dispersion correction 
 ----------------------------------------------------------------
 Doing -D3(op) with
 s6 =   1.00000
 s8 =   0.78311
 a1 =   0.30000
 a2 =   4.25000
 n  =  10.00000
 -D3 energy without 3body term =     -0.0649431360 hartrees
 ----------------------------------------------------------------
             Standard Nuclear Orientation (Angstroms)
    I     Atom           X                Y                Z
 ----------------------------------------------------------------
    1      O       3.5297796164    -2.2893811934     0.0273352525
    2      C       4.4704249147    -1.5103112065     0.2969038690
    3      C       4.9127335741    -0.2384774411    -0.5064765219
    4      C       3.8072905085     0.3172592826    -1.4942045987
    5      C       2.3752055698    -0.2862378809    -1.2799445877
    6      O       1.9872602421    -0.0851035811     0.0866277617
    7      C       0.6940981082    -0.7556599122     0.3551373474
    8      C      -0.3426493149     0.3030417716     0.8876966548
    9      O      -1.6595778104     0.0673434239     0.2500669664
   10      C      -2.6384366634    -0.2831845145     1.2424099173
   11      C      -3.8813791419    -0.9535915758     0.5492065313
   12      C      -5.1920040122    -0.0688176965     0.4147543384
   13      C      -5.0018641925     1.4918600506     0.5197607301
   14      O      -5.7402743750     2.3535735721    -0.0049965560
   15      O       5.3574574947    -1.6825802429     1.4056754287
   16      O      -3.8427310400     1.8088107438     1.2892878368
   17      O      -2.4218067029    -0.2531647988     2.4752268663
   18      C      -3.6204173701     3.2716710649     1.3216045461
   19      C      -3.6756691685    -1.4204401270    -0.9580138235
   20      C      -4.6544378629    -2.6332076292    -1.2108580218
   21      C      -6.0443389238    -1.8934187999    -1.2212843313
   22      C      -5.5940525298    -0.3853897151    -1.0876033031
   23      O      -4.2776955973    -0.3370679596    -1.7682119192
   24      H      -4.1185406560    -1.8275464440     1.1836618991
   25      H      -5.9683010958    -0.3809962805     1.1378982916
   26      H      -2.6196039780    -1.5814620160    -1.2465755934
   27      H      -4.4414832371    -3.0993384236    -2.1863895206
   28      H      -4.5833638261    -3.4038555129    -0.4269503246
   29      H      -6.5842572302    -2.0538534936    -2.1677869898
   30      H      -6.6949130423    -2.2024675090    -0.3873137508
   31      H      -6.2855622660     0.3631374526    -1.5216540350
   32      O       1.6547199457    -0.8288816669    -2.1467083605
   33      C       4.9804231572    -2.8941604681     2.1700417647
   34      C       5.2213355913     1.0456368869     0.3802196480
   35      C       6.1699771580     1.9854183565    -0.4617507637
   36      C       5.1680835424     2.5150454342    -1.5542736884
   37      C       3.8127660918     1.8537784326    -1.0784470522
   38      O       3.9441389819     1.7925639952     0.3953916062
   39      H       5.8182726253    -0.5226169930    -1.0757017965
   40      H       4.0848312807     0.1668132358    -2.5519576953
   41      H       5.0475520854    -3.8083317985     1.5453226766
   42      H       5.5579117459     0.8160256729     1.4095967900
   43      H       6.5485782464     2.8067452117     0.1673853292
   44      H       7.0275403311     1.4430808894    -0.8907406595
   45      H       5.0900209177     3.6135975968    -1.5359100712
   46      H       5.4436632356     2.1978199602    -2.5727432496
   47      H       2.8959900598     2.4061005398    -1.3624026630
   48      H       3.9495459239    -2.8176032508     2.5720303105
   49      H       5.7003169279    -2.9630732270     3.0062093518
   50      H      -2.6991246559     3.4236595668     1.9135358436
   51      H      -4.4670193744     3.7994340068     1.8062936762
   52      H      -3.4827746889     3.6828486440     0.3008348931
   53      H      -0.4719229639     0.2483006703     1.9901916003
   54      H       0.0061560387     1.3194873432     0.6057976499
   55      H       0.8670200104    -1.5611318833     1.0983989798
   56      H       0.3267673282    -1.1985581755    -0.5978619328
 ----------------------------------------------------------------
 Molecular Point Group                 C1    NOp =  1
 Largest Abelian Subgroup              C1    NOp =  1
 Nuclear Repulsion Energy =  3060.1830270645 hartrees
 There are      113 alpha and      113 beta electrons
 Requested basis set is STO-3G
 There are 86 shells and 176 basis functions

 Total QAlloc Memory Limit   4000 MB
 Mega-Array Size       392 MB
 MEM_STATIC part       400 MB
 A cutoff of  1.0D-12 yielded   2004 shell pairs
 There are      9342 function pairs
 
 -------------------------------------------------------
 OpenMP Integral Computing Module                       
 Release: version 1.0, May 2013, Q-Chem Inc. Pittsburgh 
 -------------------------------------------------------
 Integral Job Info:
 Integral job number is                      11
 Integral operator is                         1
 short-range coefficients                     0
 long-range coefficients              100000000
 Omega coefficients                           0
 if combine SR and LR in K                    0
 Integral screening is                        0
 Integral computing path is                   2
 max size of driver memory is            800000
 size of driver memory is                 45569
 size of scratch memory is              1046100
 max col of scratch BK array                289
 max len of scratch array in speh3           22
 max len of scratch index in speh4            8
 max int batch size is                      520
 min int batch size is                       52
 fixed nKL is                                52
 max L of basis functions is                  1
 order of int derivative is                   0
 number of shells is                         86
 number of basis is                         176
 number of cartesian basis is               176
 number of contracted shell pairs          2004
 number of primitive shell pairs          10525
 maxK2 (contraction) of shell pair            9
 max number of K2 of shell pair               1
 max number of CS2 of shell pair            311
 max number of PS2 of shell pair           1170
 mem total for path MDJ                   50314
 -------------------------------------------------------
 Smallest overlap matrix eigenvalue = 2.13E-01

 Scale SEOQF with 1.000000e-02/1.000000e-01/1.000000e-01

 Standard Electronic Orientation quadrupole field applied
 Nucleus-field energy     =     0.0000000223 hartrees
 Guess from superposition of atomic densities
 Warning:  Energy on first SCF cycle will be non-variational
 A restricted hybrid HF-DFT SCF calculation will be
 performed using Pulay DIIS extrapolation
 Exchange:     0.2000 Hartree-Fock + 0.0800 Slater + 0.7200 B88
 Correlation:  0.1900 VWN1RPA + 0.8100 LYP
 Using SG-1 standard quadrature grid
 Dispersion:   Grimme D3
 SCF converges when DIIS error is below 1.0E-08
 using 48 threads for integral computing
 -------------------------------------------------------
 OpenMP Integral computing Module                
 Release: version 1.0, May 2013, Q-Chem Inc. Pittsburgh 
 -------------------------------------------------------
 -------------------------------------------------------
 OpenMP BLAS3 based DFT computing Module                
 Release: version 1.0, May 2013, Q-Chem Inc. Pittsburgh 
 -------------------------------------------------------
 ---------------------------------------
  Cycle       Energy         DIIS Error
 ---------------------------------------
    1   -1507.6231368615      7.46E-02
    2   -1509.7347944092      1.04E-02
    3   -1507.4215525516      2.68E-02
    4   -1510.1868832092      4.39E-03
    5   -1510.2670104866      1.39E-03
    6   -1510.2755120266      2.73E-04
    7   -1510.2758414419      6.99E-05
    8   -1510.2758516703      5.10E-05
    9   -1510.2758630171      8.44E-06
   10   -1510.2758633216      2.69E-06
   11   -1510.2758633498      1.28E-06
   12   -1510.2758633562      3.98E-07
   13   -1510.2758633569      9.45E-08
   14   -1510.2758633569      3.45E-08
   15   -1510.2758633569      1.84E-08
   16   -1510.2758633569      5.96E-09 Convergence criterion met
 ---------------------------------------
 SCF time:  CPU 129.68 s  wall 2.75 s
 SCF   energy in the final basis set = -1510.27586336
 Total energy in the final basis set = -1510.27586336
 
 --------------------------------------------------------------
 
                    Orbital Energies (a.u.)
 --------------------------------------------------------------
 
 Alpha MOs
 -- Occupied --
-18.942 -18.939 -18.922 -18.920 -18.889 -18.882 -18.879 -18.874
-18.869 -18.861 -10.104 -10.100 -10.094 -10.094 -10.068 -10.066
-10.061 -10.060 -10.057 -10.056 -10.055 -10.054 -10.040 -10.037
-10.037 -10.032 -10.021 -10.020 -10.017 -10.016  -1.017  -1.015
 -1.003  -0.999  -0.971  -0.966  -0.940  -0.937  -0.930  -0.924
 -0.764  -0.759  -0.725  -0.720  -0.711  -0.703  -0.686  -0.665
 -0.663  -0.610  -0.596  -0.575  -0.545  -0.541  -0.538  -0.534
 -0.513  -0.508  -0.485  -0.476  -0.467  -0.463  -0.443  -0.437
 -0.434  -0.432  -0.420  -0.414  -0.413  -0.409  -0.405  -0.403
 -0.387  -0.379  -0.377  -0.374  -0.358  -0.352  -0.351  -0.348
 -0.341  -0.332  -0.330  -0.326  -0.326  -0.324  -0.320  -0.314
 -0.308  -0.305  -0.303  -0.297  -0.296  -0.287  -0.286  -0.276
 -0.272  -0.258  -0.243  -0.239  -0.235  -0.234  -0.228  -0.183
 -0.180  -0.172  -0.160  -0.156  -0.155  -0.149  -0.146  -0.143
 -0.138
 -- Virtual --
  0.095   0.098   0.108   0.113   0.225   0.237   0.244   0.246
  0.259   0.283   0.284   0.288   0.307   0.315   0.326   0.331
  0.335   0.336   0.341   0.347   0.352   0.359   0.361   0.375
  0.377   0.384   0.392   0.401   0.404   0.407   0.409   0.411
  0.416   0.419   0.419   0.423   0.427   0.429   0.431   0.436
  0.436   0.439   0.444   0.446   0.449   0.452   0.456   0.466
  0.468   0.476   0.488   0.493   0.503   0.505   0.512   0.535
  0.540   0.552   0.559   0.636   0.638   0.645   0.649
 --------------------------------------------------------------
 
          Ground-State Mulliken Net Atomic Charges

     Atom                 Charge (a.u.)
  ----------------------------------------
      1 O                    -0.212607
      2 C                     0.214385
      3 C                    -0.078230
      4 C                    -0.079128
      5 C                     0.215045
      6 O                    -0.172657
      7 C                    -0.056765
      8 C                    -0.057415
      9 O                    -0.175602
     10 C                     0.218363
     11 C                    -0.081053
     12 C                    -0.076857
     13 C                     0.213465
     14 O                    -0.213495
     15 O                    -0.170330
     16 O                    -0.164935
     17 O                    -0.222015
     18 C                    -0.125339
     19 C                     0.024082
     20 C                    -0.143009
     21 C                    -0.145297
     22 C                     0.023651
     23 O                    -0.190649
     24 H                     0.083141
     25 H                     0.085523
     26 H                     0.091091
     27 H                     0.078000
     28 H                     0.072495
     29 H                     0.078179
     30 H                     0.072789
     31 H                     0.089114
     32 O                    -0.214174
     33 C                    -0.127785
     34 C                     0.025388
     35 C                    -0.142892
     36 C                    -0.144842
     37 C                     0.026227
     38 O                    -0.185961
     39 H                     0.084877
     40 H                     0.085433
     41 H                     0.089575
     42 H                     0.090088
     43 H                     0.078090
     44 H                     0.073417
     45 H                     0.078158
     46 H                     0.074076
     47 H                     0.082738
     48 H                     0.090630
     49 H                     0.091446
     50 H                     0.094064
     51 H                     0.091049
     52 H                     0.092727
     53 H                     0.099687
     54 H                     0.086454
     55 H                     0.083991
     56 H                     0.103599
  ----------------------------------------
  Sum of atomic charges =     0.000000

 -----------------------------------------------------------------
                    Cartesian Multipole Moments
 -----------------------------------------------------------------
    Charge (ESU x 10^10)
                 0.0000
    Dipole Moment (Debye)
         X       2.3139      Y      -0.6812      Z       0.8906
       Tot       2.5712
    Quadrupole Moments (Debye-Ang)
        XX    -139.8625     XY       6.8830     YY    -151.6978
        XZ      -4.2222     YZ      -3.9761     ZZ    -164.9815
    Octopole Moments (Debye-Ang^2)
       XXX      87.0056    XXY     -66.0005    XYY       5.5545
       YYY       8.3781    XXZ       6.9383    XYZ     -39.6495
       YYZ      22.6068    XZZ      29.3151    YZZ       0.6412
       ZZZ      13.1052
    Hexadecapole Moments (Debye-Ang^3)
      XXXX  -16782.7370   XXXY     174.4743   XXYY   -3281.6444
      XYYY    -201.4470   YYYY   -2724.8600   XXXZ    -149.6884
      XXYZ     -29.7319   XYYZ       9.5231   YYYZ       1.3124
      XXZZ   -3069.8440   XYZZ     -92.5962   YYZZ    -678.0890
      XZZZ      84.8409   YZZZ      -9.2255   ZZZZ   -1595.7832
 -----------------------------------------------------------------
 Calculating analytic gradient of the SCF energy
 Gradient of SCF Energy
            1           2           3           4           5           6
    1  -0.0007810   0.0012663  -0.0011491   0.0018065  -0.0021197  -0.0000377
    2   0.0006965  -0.0012575   0.0024151  -0.0047420   0.0048895  -0.0005403
    3   0.0007318  -0.0013015   0.0027943  -0.0021082  -0.0006434  -0.0005429
            7           8           9          10          11          12
    1   0.0012334   0.0004508   0.0014039  -0.0048111   0.0038470  -0.0012686
    2  -0.0014968  -0.0045463   0.0005171   0.0077233  -0.0027338  -0.0014592
    3   0.0010871   0.0000644   0.0004836   0.0002710  -0.0044495   0.0033032
           13          14          15          16          17          18
    1  -0.0005051   0.0003177   0.0000327   0.0001184   0.0000558  -0.0000109
    2   0.0000860  -0.0000597  -0.0000406   0.0000551  -0.0000131   0.0001280
    3   0.0006420  -0.0005453   0.0001183   0.0000043   0.0001040  -0.0000732
           19          20          21          22          23          24
    1  -0.0000004  -0.0001208  -0.0001870   0.0001878   0.0000106   0.0000407
    2   0.0002287  -0.0001668  -0.0000201  -0.0000193  -0.0000223   0.0000711
    3  -0.0000129   0.0001768  -0.0003460   0.0003933  -0.0001433   0.0001648
           25          26          27          28          29          30
    1   0.0000099  -0.0000221  -0.0000654   0.0001320   0.0001018  -0.0000288
    2   0.0000466   0.0000108  -0.0001306   0.0001938  -0.0000216  -0.0000143
    3  -0.0000435   0.0000871  -0.0000927  -0.0000485   0.0000237   0.0000273
           31          32          33          34          35          36
    1   0.0000702   0.0000572  -0.0000978  -0.0002273   0.0000952   0.0001968
    2   0.0000207  -0.0000587   0.0000108   0.0000368   0.0002726  -0.0002645
    3   0.0000454   0.0000144  -0.0001049   0.0000490  -0.0003648   0.0000410
           37          38          39          40          41          42
    1   0.0000262   0.0001707  -0.0000075   0.0000513   0.0000221   0.0000158
    2   0.0000425   0.0000906  -0.0000795   0.0001106  -0.0000191   0.0000087
    3   0.0000358   0.0001335   0.0000357  -0.0001306  -0.0000193  -0.0000148
           43          44          45          46          47          48
    1  -0.0000858  -0.0000487   0.0000294  -0.0001691  -0.0000203  -0.0000026
    2   0.0000044   0.0000709   0.0000439  -0.0001447   0.0000055   0.0000015
    3  -0.0000259  -0.0000056  -0.0000226   0.0000747   0.0000185  -0.0000112
           49          50          51          52          53          54
    1   0.0000405  -0.0000069   0.0000073  -0.0000246  -0.0000606   0.0000565
    2   0.0000055  -0.0000479  -0.0000191  -0.0000650   0.0000129   0.0000072
    3   0.0000111   0.0000313   0.0000099   0.0000062  -0.0000219   0.0000505
           55          56
    1   0.0000223  -0.0000183
    2   0.0000485   0.0001275
    3   0.0000297   0.0000086
 Max gradient component =       7.723E-03
 RMS gradient           =       1.223E-03
 Gradient time:  CPU 33.39 s  wall 0.72 s
 Geometry Optimization Parameters
   NAtoms,    NIC,     NZ,  NCons,   NDum,   NFix, NCnnct, MaxDiis
       56     458       0       0       0       0       0       0


** GEOMETRY OPTIMIZATION IN DELOCALIZED INTERNAL COORDINATES **
   Searching for a Minimum

   Optimization Cycle:   1

                       Coordinates (Angstroms)
     ATOM                X               Y               Z
      1  O         3.5297796164   -2.2893811934    0.0273352525
      2  C         4.4704249147   -1.5103112065    0.2969038690
      3  C         4.9127335741   -0.2384774411   -0.5064765219
      4  C         3.8072905085    0.3172592826   -1.4942045987
      5  C         2.3752055698   -0.2862378809   -1.2799445877
      6  O         1.9872602421   -0.0851035811    0.0866277617
      7  C         0.6940981082   -0.7556599122    0.3551373474
      8  C        -0.3426493149    0.3030417716    0.8876966548
      9  O        -1.6595778104    0.0673434239    0.2500669664
     10  C        -2.6384366634   -0.2831845145    1.2424099173
     11  C        -3.8813791419   -0.9535915758    0.5492065313
     12  C        -5.1920040122   -0.0688176965    0.4147543384
     13  C        -5.0018641925    1.4918600506    0.5197607301
     14  O        -5.7402743750    2.3535735721   -0.0049965560
     15  O         5.3574574947   -1.6825802429    1.4056754287
     16  O        -3.8427310400    1.8088107438    1.2892878368
     17  O        -2.4218067029   -0.2531647988    2.4752268663
     18  C        -3.6204173701    3.2716710649    1.3216045461
     19  C        -3.6756691685   -1.4204401270   -0.9580138235
     20  C        -4.6544378629   -2.6332076292   -1.2108580218
     21  C        -6.0443389238   -1.8934187999   -1.2212843313
     22  C        -5.5940525298   -0.3853897151   -1.0876033031
     23  O        -4.2776955973   -0.3370679596   -1.7682119192
     24  H        -4.1185406560   -1.8275464440    1.1836618991
     25  H        -5.9683010958   -0.3809962805    1.1378982916
     26  H        -2.6196039780   -1.5814620160   -1.2465755934
     27  H        -4.4414832371   -3.0993384236   -2.1863895206
     28  H        -4.5833638261   -3.4038555129   -0.4269503246
     29  H        -6.5842572302   -2.0538534936   -2.1677869898
     30  H        -6.6949130423   -2.2024675090   -0.3873137508
     31  H        -6.2855622660    0.3631374526   -1.5216540350
     32  O         1.6547199457   -0.8288816669   -2.1467083605
     33  C         4.9804231572   -2.8941604681    2.1700417647
     34  C         5.2213355913    1.0456368869    0.3802196480
     35  C         6.1699771580    1.9854183565   -0.4617507637
     36  C         5.1680835424    2.5150454342   -1.5542736884
     37  C         3.8127660918    1.8537784326   -1.0784470522
     38  O         3.9441389819    1.7925639952    0.3953916062
     39  H         5.8182726253   -0.5226169930   -1.0757017965
     40  H         4.0848312807    0.1668132358   -2.5519576953
     41  H         5.0475520854   -3.8083317985    1.5453226766
     42  H         5.5579117459    0.8160256729    1.4095967900
     43  H         6.5485782464    2.8067452117    0.1673853292
     44  H         7.0275403311    1.4430808894   -0.8907406595
     45  H         5.0900209177    3.6135975968   -1.5359100712
     46  H         5.4436632356    2.1978199602   -2.5727432496
     47  H         2.8959900598    2.4061005398   -1.3624026630
     48  H         3.9495459239   -2.8176032508    2.5720303105
     49  H         5.7003169279   -2.9630732270    3.0062093518
     50  H        -2.6991246559    3.4236595668    1.9135358436
     51  H        -4.4670193744    3.7994340068    1.8062936762
     52  H        -3.4827746889    3.6828486440    0.3008348931
     53  H        -0.4719229639    0.2483006703    1.9901916003
     54  H         0.0061560387    1.3194873432    0.6057976499
     55  H         0.8670200104   -1.5611318833    1.0983989798
     56  H         0.3267673282   -1.1985581755   -0.5978619328
   Point Group: c1    Number of degrees of freedom:   162


   Energy is  -1510.275863357


 Attempting to Generate Delocalized Internal Coordinates

162 Hessian modes will be used to form the next step
  Hessian Eigenvalues:
     0.002000    0.002000    0.002000    0.002000    0.002000    0.002713
     0.002745    0.004194    0.004290    0.004433    0.004794    0.004887
     0.004902    0.005062    0.005403    0.006803    0.006810    0.010714
     0.011050    0.011632    0.012079    0.021526    0.021714    0.025476
     0.025873    0.030547    0.030872    0.035085    0.035306    0.038446
     0.040088    0.041893    0.041931    0.043921    0.045171    0.047769
     0.048102    0.049360    0.049854    0.051014    0.051083    0.053603
     0.054530    0.054846    0.055222    0.055381    0.055687    0.055722
     0.056126    0.058517    0.058528    0.060490    0.060775    0.063515
     0.063570    0.064262    0.064295    0.069597    0.070091    0.072966
     0.073175    0.092131    0.092167    0.093029    0.093363    0.096272
     0.096505    0.096699    0.097063    0.102639    0.103003    0.110635
     0.111411    0.111498    0.111579    0.122138    0.122313    0.136080
     0.136160    0.157805    0.157952    0.160000    0.160000    0.160000
     0.160000    0.160000    0.160000    0.164314    0.164872    0.218867
     0.220467    0.220501    0.220532    0.227501    0.228967    0.238303
     0.238425    0.239275    0.239729    0.244534    0.245568    0.246916
     0.249916    0.249928    0.249979    0.250000    0.250000    0.250000
     0.250000    0.250000    0.250000    0.250000    0.250000    0.252880
     0.253301    0.255751    0.256624    0.257710    0.261164    0.261759
     0.291916    0.293249    0.306623    0.307917    0.322596    0.324526
     0.324957    0.326466    0.326770    0.326912    0.326926    0.327012
     0.328506    0.328849    0.329113    0.329534    0.329672    0.330373
     0.330594    0.330746    0.330791    0.332590    0.334676    0.334688
     0.334892    0.334955    0.335031    0.335089    0.335195    0.335260
     0.343377    0.344178    0.344303    0.345685    0.399606    0.403159
     0.409402    0.414290    0.824784    0.828919    0.829522    0.831379

 Minimum Search - Taking Simple RFO Step
 Searching for Lamda that Minimizes Along All modes
 Value Taken    Lamda =  -0.01010957
 Calculated Step too Large.  Step scaled by  0.380558
 Step Taken.  Stepsize is  0.300000

                             Maximum     Tolerance    Cnvgd?
         Gradient           0.004876      0.000300      NO
         Displacement       0.096058      0.001200      NO
         Energy change     *********      0.000001      NO


 New Cartesian Coordinates Obtained by Inverse Iteration

 Displacement from previous Coordinates is:  3.855989
 Adding empirical dispersion correction 
 ----------------------------------------------------------------
 Doing -D3(op) with
 s6 =   1.00000
 s8 =   0.78311
 a1 =   0.30000
 a2 =   4.25000
 n  =  10.00000
 -D3 energy without 3body term =     -0.0651746206 hartrees
 ----------------------------------------------------------------
             Standard Nuclear Orientation (Angstroms)
    I     Atom           X                Y                Z
 ----------------------------------------------------------------
    1      O       3.7544665156    -2.3440008168     0.0769035232
    2      C       4.6104893424    -1.4718799906     0.3434801222
    3      C       4.9268858995    -0.1690206541    -0.4694956935
    4      C       3.7637342143     0.2818592213    -1.4437993107
    5      C       2.3956570038    -0.4500335831    -1.2122240298
    6      O       1.9657591741    -0.2077088114     0.1349450462
    7      C       0.6849030554    -0.9037639649     0.3970897317
    8      C      -0.3901407764     0.1435357207     0.8732022089
    9      O      -1.6904607716    -0.1556264542     0.2281536570
   10      C      -2.6678296805    -0.5106538185     1.2202301765
   11      C      -3.9818634941    -1.0238069220     0.5239356326
   12      C      -5.1612302134     0.0259674478     0.3599926154
   13      C      -4.7659474468     1.5487174386     0.4482473252
   14      O      -5.3827048995     2.4948671963    -0.0880201863
   15      O       5.5163850372    -1.5526998310     1.4474479338
   16      O      -3.5817218082     1.7187882364     1.2259299115
   17      O      -2.4582381870    -0.4768177190     2.4541377339
   18      C      -3.1691985439     3.1400159923     1.2464484595
   19      C      -3.8229968648    -1.5311375781    -0.9763178259
   20      C      -4.9496185616    -2.6080574176    -1.2280265591
   21      C      -6.2299811429    -1.6923671039    -1.2633483132
   22      C      -5.5866564900    -0.2549627533    -1.1427601414
   23      O      -4.2681114988    -0.3889189906    -1.8068073804
   24      H      -4.3359714811    -1.8536237949     1.1631147960
   25      H      -5.9796049797    -0.1699289282     1.0776148783
   26      H      -2.7941967968    -1.8330266477    -1.2501053382
   27      H      -4.7890890905    -3.1100080390    -2.1957000795
   28      H      -4.9892123749    -3.3717559766    -0.4350069578
   29      H      -6.7769201025    -1.7929398930    -2.2141045317
   30      H      -6.9238714343    -1.9021376688    -0.4334473636
   31      H      -6.1689811048     0.5721275169    -1.5941546435
   32      O       1.7167251660    -1.0542139006    -2.0718001385
   33      C       5.2637780780    -2.7918594946     2.2188688309
   34      C       5.1263880472     1.1408008253     0.4110584675
   35      C       5.9768468243     2.1601009959    -0.4427601604
   36      C       4.9193137281     2.5942319008    -1.5252671890
   37      C       3.6344949106     1.8141324155    -1.0336002101
   38      O       3.7868347459     1.7691893199     0.4387150439
   39      H       5.8485542916    -0.3711964767    -1.0477802078
   40      H       4.0428645578     0.1506760144    -2.5036233377
   41      H       5.4156926772    -3.6979478291     1.5972874694
   42      H       5.4933395342     0.9458091866     1.4371935063
   43      H       6.2865183659     3.0139230852     0.1808278817
   44      H       6.8753073804     1.6962632894    -0.8801370389
   45      H       4.7421638925     3.6811971878    -1.5076730579
   46      H       5.2120531915     2.3010844823    -2.5462136131
   47      H       2.6683786631     2.2800538985    -1.3087105685
   48      H       4.2328299605    -2.8141529754     2.6273040495
   49      H       5.9919865110    -2.7866706930     3.0506268650
   50      H      -2.2408725816     3.1761271344     1.8457474222
   51      H      -3.9430684468     3.7797027177     1.7177531687
   52      H      -2.9700770527     3.5186632667     0.2232082203
   53      H      -0.5347812913     0.1246137079     1.9749931266
   54      H      -0.0670121638     1.1591524604     0.5595239724
   55      H       0.8634489644    -1.6779276751     1.1716435371
   56      H       0.3502190812    -1.3896118692    -0.5469988898
 ----------------------------------------------------------------
 Molecular Point Group                 C1    NOp =  1
 Largest Abelian Subgroup              C1    NOp =  1
 Nuclear Repulsion Energy =  3064.9188281184 hartrees
 There are      113 alpha and      113 beta electrons
 Applying Cartesian multipole field
    Component          Value
    ---------          -----
     (2,0,0)        1.00000E-12
     (0,2,0)        2.00000E-11
     (0,0,2)       -3.00000E-11
 Nucleus-field energy     =     0.0000000227 hartrees
 Requested basis set is STO-3G
 There are 86 shells and 176 basis functions
 A cutoff of  1.0D-12 yielded   2014 shell pairs
 There are      9376 function pairs
 Smallest overlap matrix eigenvalue = 2.13E-01
 Guess MOs from SCF MO coefficient file
 Reading MOs from coefficient file
 Reading MOs from coefficient file
 A restricted hybrid HF-DFT SCF calculation will be
 performed using Pulay DIIS extrapolation
 Exchange:     0.2000 Hartree-Fock + 0.0800 Slater + 0.7200 B88
 Correlation:  0.1900 VWN1RPA + 0.8100 LYP
 Using SG-1 standard quadrature grid
 Dispersion:   Grimme D3
 SCF converges when DIIS error is below 1.0E-08
 Geometry optimization detected.  Setting ReadMinima to 0
 Setting SaveMinima to 0
 using 48 threads for integral computing
 -------------------------------------------------------
 OpenMP Integral computing Module                
 Release: version 1.0, May 2013, Q-Chem Inc. Pittsburgh 
 -------------------------------------------------------
 -------------------------------------------------------
 OpenMP BLAS3 based DFT computing Module                
 Release: version 1.0, May 2013, Q-Chem Inc. Pittsburgh 
 -------------------------------------------------------
 ---------------------------------------
  Cycle       Energy         DIIS Error
 ---------------------------------------
    1   -1510.1323730039      5.46E-03
    2   -1510.2759275629      5.98E-04
    3   -1510.2741834372      9.50E-04
    4   -1510.2777532492      2.89E-04
    5   -1510.2781107082      7.23E-05
    6   -1510.2781330654      2.65E-05
    7   -1510.2781362568      8.58E-06
    8   -1510.2781365153      4.19E-06
    9   -1510.2781365949      6.06E-07
   10   -1510.2781365965      3.35E-07
   11   -1510.2781365970      1.97E-07
   12   -1510.2781365972      3.78E-08
   13   -1510.2781365972      1.45E-08
   14   -1510.2781365972      2.02E-09 Convergence criterion met
 ---------------------------------------
 SCF time:  CPU 97.02 s  wall 2.03 s
 SCF   energy in the final basis set = -1510.27813660
 Total energy in the final basis set = -1510.27813660
 
 --------------------------------------------------------------
 
                    Orbital Energies (a.u.)
 --------------------------------------------------------------
 
 Alpha MOs
 -- Occupied --
-18.941 -18.940 -18.922 -18.921 -18.889 -18.883 -18.880 -18.874
-18.868 -18.862 -10.104 -10.100 -10.094 -10.093 -10.068 -10.066
-10.061 -10.060 -10.057 -10.056 -10.055 -10.054 -10.040 -10.038
-10.036 -10.033 -10.021 -10.020 -10.018 -10.016  -1.016  -1.015
 -1.003  -0.999  -0.971  -0.966  -0.940  -0.937  -0.930  -0.924
 -0.764  -0.759  -0.725  -0.720  -0.711  -0.704  -0.687  -0.665
 -0.663  -0.610  -0.596  -0.575  -0.545  -0.541  -0.538  -0.534
 -0.513  -0.508  -0.485  -0.476  -0.467  -0.463  -0.442  -0.437
 -0.434  -0.432  -0.420  -0.414  -0.413  -0.409  -0.406  -0.403
 -0.388  -0.379  -0.376  -0.374  -0.358  -0.352  -0.351  -0.348
 -0.341  -0.333  -0.330  -0.327  -0.326  -0.324  -0.319  -0.314
 -0.309  -0.305  -0.304  -0.297  -0.296  -0.288  -0.286  -0.276
 -0.273  -0.258  -0.242  -0.240  -0.235  -0.234  -0.229  -0.183
 -0.180  -0.172  -0.159  -0.156  -0.155  -0.149  -0.147  -0.143
 -0.139
 -- Virtual --
  0.095   0.098   0.109   0.114   0.224   0.237   0.244   0.246
  0.259   0.282   0.285   0.288   0.307   0.315   0.326   0.331
  0.335   0.336   0.342   0.348   0.352   0.359   0.362   0.374
  0.377   0.384   0.390   0.401   0.404   0.407   0.409   0.411
  0.415   0.418   0.419   0.423   0.427   0.429   0.430   0.434
  0.436   0.440   0.444   0.446   0.449   0.453   0.455   0.466
  0.468   0.474   0.488   0.492   0.503   0.505   0.513   0.535
  0.540   0.552   0.558   0.636   0.638   0.645   0.650
 --------------------------------------------------------------
 
          Ground-State Mulliken Net Atomic Charges

     Atom                 Charge (a.u.)
  ----------------------------------------
      1 O                    -0.211652
      2 C                     0.214040
      3 C                    -0.078373
      4 C                    -0.079114
      5 C                     0.214550
      6 O                    -0.172769
      7 C                    -0.057174
      8 C                    -0.057031
      9 O                    -0.174111
     10 C                     0.218224
     11 C                    -0.081161
     12 C                    -0.076604
     13 C                     0.213548
     14 O                    -0.213768
     15 O                    -0.170177
     16 O                    -0.165440
     17 O                    -0.221579
     18 C                    -0.125467
     19 C                     0.024457
     20 C                    -0.142912
     21 C                    -0.145312
     22 C                     0.023833
     23 O                    -0.190245
     24 H                     0.082749
     25 H                     0.085834
     26 H                     0.089750
     27 H                     0.077947
     28 H                     0.072676
     29 H                     0.078239
     30 H                     0.072947
     31 H                     0.089352
     32 O                    -0.214591
     33 C                    -0.127853
     34 C                     0.025164
     35 C                    -0.142905
     36 C                    -0.144846
     37 C                     0.026478
     38 O                    -0.185929
     39 H                     0.084964
     40 H                     0.085342
     41 H                     0.089734
     42 H                     0.090027
     43 H                     0.077995
     44 H                     0.073380
     45 H                     0.078121
     46 H                     0.074148
     47 H                     0.082671
     48 H                     0.090868
     49 H                     0.091453
     50 H                     0.093666
     51 H                     0.091027
     52 H                     0.092513
     53 H                     0.099990
     54 H                     0.086096
     55 H                     0.083443
     56 H                     0.103792
  ----------------------------------------
  Sum of atomic charges =     0.000000

 -----------------------------------------------------------------
                    Cartesian Multipole Moments
 -----------------------------------------------------------------
    Charge (ESU x 10^10)
                 0.0000
    Dipole Moment (Debye)
         X       2.1029      Y      -0.3605      Z       0.8781
       Tot       2.3072
    Quadrupole Moments (Debye-Ang)
        XX    -137.4378     XY       7.7138     YY    -153.4541
        XZ      -2.9178     YZ      -4.0892     ZZ    -164.9317
    Octopole Moments (Debye-Ang^2)
       XXX      62.1078    XXY     -63.4096    XYY       8.7741
       YYY      14.2755    XXZ       8.6616    XYZ     -40.9402
       YYZ      22.4611    XZZ      29.1133    YZZ       5.3210
       ZZZ      12.5814
    Hexadecapole Moments (Debye-Ang^3)
      XXXX  -16427.1016   XXXY      74.5489   XXYY   -3279.5804
      XYYY    -206.1211   YYYY   -2757.6735   XXXZ    -226.0939
      XXYZ     -40.3004   XYYZ     -24.0382   YYYZ      24.1530
      XXZZ   -3040.8241   XYZZ    -111.8031   YYZZ    -681.8420
      XZZZ     -44.6178   YZZZ      12.3293   ZZZZ   -1572.0656
 -----------------------------------------------------------------
 Calculating analytic gradient of the SCF energy
 Gradient of SCF Energy
            1           2           3           4           5           6
    1   0.0009666   0.0002604  -0.0010208   0.0007577   0.0003857  -0.0010755
    2  -0.0007195  -0.0009156   0.0013385  -0.0018488  -0.0010793   0.0014561
    3   0.0006557  -0.0007279   0.0015766  -0.0015901   0.0009963  -0.0008624
            7           8           9          10          11          12
    1   0.0002454   0.0002211   0.0013665  -0.0005917   0.0002851  -0.0012389
    2  -0.0003473  -0.0022614   0.0022869  -0.0033469   0.0009582  -0.0014182
    3   0.0002146  -0.0001490   0.0003557   0.0007033  -0.0040997   0.0025322
           13          14          15          16          17          18
    1  -0.0002107   0.0000953   0.0002662   0.0011305  -0.0010971   0.0000796
    2  -0.0001818  -0.0000725  -0.0000201  -0.0010895   0.0040490   0.0002454
    3  -0.0002924  -0.0000313  -0.0001072  -0.0000433   0.0006669  -0.0000622
           19          20          21          22          23          24
    1  -0.0003379  -0.0001996  -0.0001987   0.0001022  -0.0003772   0.0007392
    2   0.0003049  -0.0001561   0.0000185   0.0004056  -0.0001242  -0.0004088
    3  -0.0003691   0.0005136  -0.0002736  -0.0003077   0.0001523   0.0002209
           25          26          27          28          29          30
    1  -0.0001825  -0.0000376  -0.0000182   0.0000375   0.0000584  -0.0000206
    2  -0.0000708   0.0001888   0.0000323   0.0001187   0.0000478   0.0000445
    3  -0.0000084   0.0003354  -0.0000104  -0.0000631  -0.0000325   0.0000055
           31          32          33          34          35          36
    1  -0.0000007  -0.0008602   0.0000498  -0.0002556   0.0001566   0.0000619
    2  -0.0000333   0.0019389  -0.0000430  -0.0001915  -0.0001184   0.0004598
    3   0.0000287  -0.0004187   0.0000002  -0.0001385   0.0000089  -0.0000716
           37          38          39          40          41          42
    1  -0.0000633  -0.0002521   0.0000674   0.0001855  -0.0000142   0.0000232
    2   0.0000473   0.0001737   0.0000798  -0.0000422   0.0000458  -0.0000929
    3  -0.0003234  -0.0000842   0.0000654   0.0000465   0.0000113  -0.0000115
           43          44          45          46          47          48
    1  -0.0000584   0.0000148   0.0000411  -0.0001756  -0.0000152   0.0000263
    2  -0.0000580  -0.0000293   0.0000150  -0.0001724   0.0000910  -0.0000198
    3   0.0000398   0.0001437  -0.0000340   0.0001395   0.0000231   0.0000090
           49          50          51          52          53          54
    1  -0.0000208   0.0000153  -0.0000545  -0.0000592  -0.0002503   0.0005766
    2  -0.0000165   0.0000443  -0.0000612  -0.0000233   0.0003069   0.0001058
    3  -0.0000231   0.0000368   0.0000349  -0.0000174  -0.0000155   0.0006064
           55          56
    1   0.0005671  -0.0000958
    2   0.0002368  -0.0000779
    3  -0.0000185   0.0000637
 Max gradient component =       4.100E-03
 RMS gradient           =       7.858E-04
 Gradient time:  CPU 29.68 s  wall 0.63 s
 Geometry Optimization Parameters
   NAtoms,    NIC,     NZ,  NCons,   NDum,   NFix, NCnnct, MaxDiis
       56     458       0       0       0       0       0       0

 Cartesian Hessian Update
 Hessian Updated using BFGS Update


** GEOMETRY OPTIMIZATION IN DELOCALIZED INTERNAL COORDINATES **
   Searching for a Minimum

   Optimization Cycle:   2

                       Coordinates (Angstroms)
     ATOM                X               Y               Z
      1  O         3.7544665156   -2.3440008168    0.0769035232
      2  C         4.6104893424   -1.4718799906    0.3434801222
      3  C         4.9268858995   -0.1690206541   -0.4694956935
      4  C         3.7637342143    0.2818592213   -1.4437993107
      5  C         2.3956570038   -0.4500335831   -1.2122240298
      6  O         1.9657591741   -0.2077088114    0.1349450462
      7  C         0.6849030554   -0.9037639649    0.3970897317
      8  C        -0.3901407764    0.1435357207    0.8732022089
      9  O        -1.6904607716   -0.1556264542    0.2281536570
     10  C        -2.6678296805   -0.5106538185    1.2202301765
     11  C        -3.9818634941   -1.0238069220    0.5239356326
     12  C        -5.1612302134    0.0259674478    0.3599926154
     13  C        -4.7659474468    1.5487174386    0.4482473252
     14  O        -5.3827048995    2.4948671963   -0.0880201863
     15  O         5.5163850372   -1.5526998310    1.4474479338
     16  O        -3.5817218082    1.7187882364    1.2259299115
     17  O        -2.4582381870   -0.4768177190    2.4541377339
     18  C        -3.1691985439    3.1400159923    1.2464484595
     19  C        -3.8229968648   -1.5311375781   -0.9763178259
     20  C        -4.9496185616   -2.6080574176   -1.2280265591
     21  C        -6.2299811429   -1.6923671039   -1.2633483132
     22  C        -5.5866564900   -0.2549627533   -1.1427601414
     23  O        -4.2681114988   -0.3889189906   -1.8068073804
     24  H        -4.3359714811   -1.8536237949    1.1631147960
     25  H        -5.9796049797   -0.1699289282    1.0776148783
     26  H        -2.7941967968   -1.8330266477   -1.2501053382
     27  H        -4.7890890905   -3.1100080390   -2.1957000795
     28  H        -4.9892123749   -3.3717559766   -0.4350069578
     29  H        -6.7769201025   -1.7929398930   -2.2141045317
     30  H        -6.9238714343   -1.9021376688   -0.4334473636
     31  H        -6.1689811048    0.5721275169   -1.5941546435
     32  O         1.7167251660   -1.0542139006   -2.0718001385
     33  C         5.2637780780   -2.7918594946    2.2188688309
     34  C         5.1263880472    1.1408008253    0.4110584675
     35  C         5.9768468243    2.1601009959   -0.4427601604
     36  C         4.9193137281    2.5942319008   -1.5252671890
     37  C         3.6344949106    1.8141324155   -1.0336002101
     38  O         3.7868347459    1.7691893199    0.4387150439
     39  H         5.8485542916   -0.3711964767   -1.0477802078
     40  H         4.0428645578    0.1506760144   -2.5036233377
     41  H         5.4156926772   -3.6979478291    1.5972874694
     42  H         5.4933395342    0.9458091866    1.4371935063
     43  H         6.2865183659    3.0139230852    0.1808278817
     44  H         6.8753073804    1.6962632894   -0.8801370389
     45  H         4.7421638925    3.6811971878   -1.5076730579
     46  H         5.2120531915    2.3010844823   -2.5462136131
     47  H         2.6683786631    2.2800538985   -1.3087105685
     48  H         4.2328299605   -2.8141529754    2.6273040495
     49  H         5.9919865110   -2.7866706930    3.0506268650
     50  H        -2.2408725816    3.1761271344    1.8457474222
     51  H        -3.9430684468    3.7797027177    1.7177531687
     52  H        -2.9700770527    3.5186632667    0.2232082203
     53  H        -0.5347812913    0.1246137079    1.9749931266
     54  H        -0.0670121638    1.1591524604    0.5595239724
     55  H         0.8634489644   -1.6779276751    1.1716435371
     56  H         0.3502190812   -1.3896118692   -0.5469988898
   Point Group: c1    Number of degrees of freedom:   162


   Energy is  -1510.278136597

 Hessian Updated using BFGS Update

149 Hessian modes will be used to form the next step
  Hessian Eigenvalues:
     0.001844    0.002158    0.002696    0.002746    0.004277    0.004332
     0.004444    0.004793    0.004887    0.004902    0.005062    0.006690
     0.006808    0.007484    0.010995    0.011631    0.012076    0.021412
     0.021629    0.024896    0.025536    0.030094    0.030618    0.032835
     0.035169    0.036992    0.038218    0.040889    0.041923    0.042076
     0.043835    0.045655    0.047316    0.048524    0.049487    0.050424
     0.051036    0.051344    0.053612    0.054738    0.055040    0.055318
     0.055418    0.055684    0.055876    0.056551    0.058523    0.059121
     0.060771    0.060901    0.063515    0.063574    0.064261    0.064307
     0.069597    0.070135    0.072993    0.073186    0.092093    0.092187
     0.093046    0.093364    0.096333    0.096699    0.097052    0.097334
     0.102638    0.103003    0.111148    0.111411    0.111516    0.111857
     0.122231    0.127301    0.136095    0.136390    0.157868    0.159987
     0.159997    0.161679    0.164828    0.168921    0.219120    0.220360
     0.220510    0.221082    0.227831    0.229432    0.238390    0.238450
     0.239325    0.239730    0.244555    0.245578    0.246976    0.249768
     0.249928    0.249943    0.249979    0.252866    0.253294    0.255174
     0.256599    0.256721    0.260935    0.261164    0.265976    0.292057
     0.293369    0.306915    0.308261    0.322597    0.324526    0.324960
     0.326469    0.326773    0.326912    0.326926    0.327013    0.328505
     0.328849    0.329114    0.329534    0.329680    0.330389    0.330610
     0.330747    0.330793    0.332592    0.334680    0.334688    0.334892
     0.334955    0.335030    0.335082    0.335195    0.335260    0.343419
     0.344179    0.344347    0.345707    0.400138    0.403163    0.409411
     0.414512    0.824864    0.828928    0.829556    0.831382

 Minimum Search - Taking Simple RFO Step
 Searching for Lamda that Minimizes Along All modes
 Value Taken    Lamda =  -0.00525863
 Calculated Step too Large.  Step scaled by  0.408875
 Step Taken.  Stepsize is  0.300000

                             Maximum     Tolerance    Cnvgd?
         Gradient           0.004624      0.000300      NO
         Displacement       0.095999      0.001200      NO
         Energy change     -0.002273      0.000001      NO


 New Cartesian Coordinates Obtained by Inverse Iteration

 Displacement from previous Coordinates is:  2.625476
 Adding empirical dispersion correction 
 ----------------------------------------------------------------
 Doing -D3(op) with
 s6 =   1.00000
 s8 =   0.78311
 a1 =   0.30000
 a2 =   4.25000
 n  =  10.00000
 -D3 energy without 3body term =     -0.0655299331 hartrees
 ----------------------------------------------------------------
             Standard Nuclear Orientation (Angstroms)
    I     Atom           X                Y                Z
 ----------------------------------------------------------------
    1      O       3.7787819521    -2.2886397916     0.1646304067
    2      C       4.6205791968    -1.3958886464     0.4075678799
    3      C       4.9190258083    -0.1172083613    -0.4477821227
    4      C       3.7526838965     0.2605842174    -1.4468677876
    5      C       2.4210684015    -0.5358085714    -1.2157267012
    6      O       1.9677575662    -0.2997690269     0.1247580927
    7      C       0.6979351933    -1.0216840850     0.3706290888
    8      C      -0.4003708256     0.0043964652     0.8394002296
    9      O      -1.6941798558    -0.3249061277     0.1964195975
   10      C      -2.6567126816    -0.7106786511     1.1903636626
   11      C      -4.0152458154    -1.0925819208     0.4982211601
   12      C      -5.0964015420     0.0627802819     0.3498401409
   13      C      -4.5780659400     1.5471779605     0.4646648634
   14      O      -5.1113579598     2.5477885689    -0.0622267699
   15      O       5.5007736001    -1.4103388165     1.5348735138
   16      O      -3.4080556151     1.6152083652     1.2778340259
   17      O      -2.4084787710    -0.7932991629     2.4145806530
   18      C      -2.8867822929     2.9992647191     1.3310507599
   19      C      -3.8993131684    -1.5829127386    -1.0125525239
   20      C      -5.1143202123    -2.5528974131    -1.2850615357
   21      C      -6.3097212397    -1.5287996577    -1.3007522869
   22      C      -5.5434582730    -0.1552194582    -1.1566566770
   23      O      -4.2406087490    -0.3914935639    -1.8226437595
   24      H      -4.4396765340    -1.9025018508     1.1195896130
   25      H      -5.9306706873    -0.0738215301     1.0627536803
   26      H      -2.9006739476    -1.9687462390    -1.2930314632
   27      H      -4.9969795501    -3.0478387374    -2.2624511236
   28      H      -5.2211959465    -3.3257570778    -0.5070717227
   29      H      -6.8640570544    -1.5642741592    -2.2519075233
   30      H      -7.0187820104    -1.6923452708    -0.4733014423
   31      H      -6.0512030754     0.7269154635    -1.5937640638
   32      O       1.8023613358    -1.2200155037    -2.0607422339
   33      C       5.2494395367    -2.6164982541     2.3573431899
   34      C       5.0622592526     1.2275417016     0.3905882609
   35      C       5.8746030572     2.2548655583    -0.4904978971
   36      C       4.8046653156     2.6159701776    -1.5876429245
   37      C       3.5515533050     1.7956440275    -1.0801533804
   38      O       3.6974842724     1.7998482683     0.3934493767
   39      H       5.8541094468    -0.3109408204    -1.0071038408
   40      H       4.0526114275     0.1126166838    -2.4987246799
   41      H       5.4311524067    -3.5478530665     1.7828525954
   42      H       5.4301865486     1.0798662120     1.4242379863
   43      H       6.1476202362     3.1379996294     0.1089866024
   44      H       6.7925613542     1.8153630765    -0.9123701408
   45      H       4.5819190448     3.6945687297    -1.5994822310
   46      H       5.1149742998     2.3091800527    -2.5994801238
   47      H       2.5679230645     2.2105826632    -1.3740265485
   48      H       4.2092524094    -2.6374779336     2.7417656827
   49      H       5.9568049500    -2.5599415184     3.2050453778
   50      H      -1.9771937566     2.9549530100     1.9578524181
   51      H      -3.6220654385     3.6923464305     1.7884076273
   52      H      -2.6271496946     3.3735136761     0.3198061904
   53      H      -0.5452453857    -0.0156220763     1.9411371209
   54      H      -0.1007749437     1.0260538585     0.5222390163
   55      H       0.8822009059    -1.7935520619     1.1462279372
   56      H       0.3821127152    -1.5125753164    -0.5773526996
 ----------------------------------------------------------------
 Molecular Point Group                 C1    NOp =  1
 Largest Abelian Subgroup              C1    NOp =  1
 Nuclear Repulsion Energy =  3073.8282551229 hartrees
 There are      113 alpha and      113 beta electrons
 Applying Cartesian multipole field
    Component          Value
    ---------          -----
     (2,0,0)        1.00000E-12
     (0,2,0)        2.00000E-11
     (0,0,2)       -3.00000E-11
 Nucleus-field energy     =     0.0000000201 hartrees
 Requested basis set is STO-3G
 There are 86 shells and 176 basis functions
 A cutoff of  1.0D-12 yielded   2035 shell pairs
 There are      9481 function pairs
 Smallest overlap matrix eigenvalue = 2.13E-01
 Guess MOs from SCF MO coefficient file
 Reading MOs from coefficient file
 Reading MOs from coefficient file
 A restricted hybrid HF-DFT SCF calculation will be
 performed using Pulay DIIS extrapolation
 Exchange:     0.2000 Hartree-Fock + 0.0800 Slater + 0.7200 B88
 Correlation:  0.1900 VWN1RPA + 0.8100 LYP
 Using SG-1 standard quadrature grid
 Dispersion:   Grimme D3
 SCF converges when DIIS error is below 1.0E-08
 Geometry optimization detected.  Setting ReadMinima to 0
 Setting SaveMinima to 0
 using 48 threads for integral computing
 -------------------------------------------------------
 OpenMP Integral computing Module                
 Release: version 1.0, May 2013, Q-Chem Inc. Pittsburgh 
 -------------------------------------------------------
 -------------------------------------------------------
 OpenMP BLAS3 based DFT computing Module                
 Release: version 1.0, May 2013, Q-Chem Inc. Pittsburgh 
 -------------------------------------------------------
 ---------------------------------------
  Cycle       Energy         DIIS Error
 ---------------------------------------
    1   -1510.2101946250      4.06E-03
    2   -1510.2785468151      3.41E-04
    3   -1510.2782046711      5.18E-04
    4   -1510.2792618594      1.68E-04
    5   -1510.2793746444      5.59E-05
    6   -1510.2793886112      1.74E-05
    7   -1510.2793897913      8.67E-06
    8   -1510.2793901122      2.28E-06
    9   -1510.2793901364      4.03E-07
   10   -1510.2793901370      2.83E-07
   11   -1510.2793901374      1.33E-07
   12   -1510.2793901373      2.65E-08
   13   -1510.2793901374      1.01E-08
   14   -1510.2793901375      1.51E-09 Convergence criterion met
 ---------------------------------------
 SCF time:  CPU 97.83 s  wall 2.04 s
 SCF   energy in the final basis set = -1510.27939014
 Total energy in the final basis set = -1510.27939014
 
 --------------------------------------------------------------
 
                    Orbital Energies (a.u.)
 --------------------------------------------------------------
 
 Alpha MOs
 -- Occupied --
-18.941 -18.940 -18.922 -18.921 -18.889 -18.883 -18.880 -18.874
-18.867 -18.863 -10.104 -10.101 -10.095 -10.092 -10.068 -10.067
-10.061 -10.060 -10.057 -10.056 -10.055 -10.055 -10.040 -10.038
-10.036 -10.033 -10.021 -10.020 -10.018 -10.016  -1.017  -1.015
 -1.003  -0.999  -0.971  -0.967  -0.940  -0.937  -0.930  -0.924
 -0.764  -0.759  -0.725  -0.720  -0.711  -0.704  -0.686  -0.665
 -0.664  -0.610  -0.596  -0.575  -0.545  -0.541  -0.538  -0.534
 -0.513  -0.509  -0.485  -0.476  -0.467  -0.463  -0.442  -0.437
 -0.434  -0.432  -0.420  -0.414  -0.414  -0.409  -0.406  -0.403
 -0.387  -0.379  -0.375  -0.374  -0.357  -0.353  -0.351  -0.349
 -0.340  -0.334  -0.330  -0.327  -0.326  -0.324  -0.318  -0.314
 -0.309  -0.305  -0.304  -0.297  -0.294  -0.289  -0.285  -0.276
 -0.273  -0.258  -0.243  -0.242  -0.235  -0.234  -0.229  -0.183
 -0.180  -0.172  -0.159  -0.156  -0.155  -0.149  -0.147  -0.143
 -0.139
 -- Virtual --
  0.095   0.098   0.110   0.113   0.224   0.236   0.244   0.246
  0.259   0.283   0.285   0.288   0.307   0.315   0.326   0.331
  0.336   0.337   0.342   0.347   0.352   0.359   0.362   0.374
  0.376   0.384   0.390   0.402   0.403   0.407   0.409   0.412
  0.415   0.418   0.420   0.422   0.427   0.429   0.430   0.433
  0.436   0.440   0.443   0.446   0.450   0.454   0.455   0.466
  0.469   0.474   0.489   0.492   0.504   0.505   0.512   0.535
  0.540   0.552   0.558   0.635   0.638   0.645   0.650
 --------------------------------------------------------------
 
          Ground-State Mulliken Net Atomic Charges

     Atom                 Charge (a.u.)
  ----------------------------------------
      1 O                    -0.210637
      2 C                     0.214725
      3 C                    -0.078457
      4 C                    -0.079422
      5 C                     0.214820
      6 O                    -0.173437
      7 C                    -0.057013
      8 C                    -0.056588
      9 O                    -0.173487
     10 C                     0.217695
     11 C                    -0.081090
     12 C                    -0.076446
     13 C                     0.213741
     14 O                    -0.213955
     15 O                    -0.169956
     16 O                    -0.166806
     17 O                    -0.221006
     18 C                    -0.125630
     19 C                     0.024825
     20 C                    -0.142906
     21 C                    -0.145372
     22 C                     0.023834
     23 O                    -0.189919
     24 H                     0.082894
     25 H                     0.085807
     26 H                     0.088881
     27 H                     0.077947
     28 H                     0.072796
     29 H                     0.078201
     30 H                     0.072995
     31 H                     0.089479
     32 O                    -0.215150
     33 C                    -0.127862
     34 C                     0.025225
     35 C                    -0.143032
     36 C                    -0.144695
     37 C                     0.026342
     38 O                    -0.186450
     39 H                     0.085033
     40 H                     0.085180
     41 H                     0.089734
     42 H                     0.090087
     43 H                     0.078009
     44 H                     0.073444
     45 H                     0.077998
     46 H                     0.074156
     47 H                     0.082598
     48 H                     0.091140
     49 H                     0.091454
     50 H                     0.093478
     51 H                     0.091100
     52 H                     0.092352
     53 H                     0.099724
     54 H                     0.085851
     55 H                     0.083979
     56 H                     0.103792
  ----------------------------------------
  Sum of atomic charges =    -0.000000

 -----------------------------------------------------------------
                    Cartesian Multipole Moments
 -----------------------------------------------------------------
    Charge (ESU x 10^10)
                 0.0000
    Dipole Moment (Debye)
         X       1.9213      Y      -0.0851      Z       0.8881
       Tot       2.1184
    Quadrupole Moments (Debye-Ang)
        XX    -136.0602     XY       7.9707     YY    -155.1283
        XZ      -2.1756     YZ      -3.5529     ZZ    -164.2662
    Octopole Moments (Debye-Ang^2)
       XXX      41.8926    XXY     -56.2023    XYY       8.2191
       YYY      18.1901    XXZ       8.3755    XYZ     -42.0737
       YYZ      21.3061    XZZ      28.0595    YZZ      10.5593
       ZZZ      14.8338
    Hexadecapole Moments (Debye-Ang^3)
      XXXX  -16033.1633   XXXY     -35.1795   XXYY   -3239.6115
      XYYY    -261.2843   YYYY   -2722.0894   XXXZ    -244.5790
      XXYZ     -38.5777   XYYZ     -33.9484   YYYZ      45.1608
      XXZZ   -2992.8664   XYZZ    -145.6313   YYZZ    -687.2139
      XZZZ     -82.9873   YZZZ      34.6583   ZZZZ   -1624.0806
 -----------------------------------------------------------------
 Calculating analytic gradient of the SCF energy
 Gradient of SCF Energy
            1           2           3           4           5           6
    1  -0.0010617   0.0005219  -0.0015671   0.0015646  -0.0010815   0.0014532
    2   0.0007876  -0.0012514   0.0007733  -0.0015473   0.0025528  -0.0018451
    3   0.0006746  -0.0021229   0.0011011  -0.0002111  -0.0002468   0.0002455
            7           8           9          10          11          12
    1  -0.0003004  -0.0001717   0.0019300  -0.0001770   0.0000753  -0.0015189
    2  -0.0003697  -0.0008179  -0.0000784  -0.0028886   0.0009052  -0.0009543
    3  -0.0005717  -0.0005406   0.0001234   0.0014551  -0.0023197   0.0021084
           13          14          15          16          17          18
    1   0.0004387  -0.0001090   0.0001331  -0.0001180  -0.0000961   0.0002980
    2  -0.0001515   0.0001679   0.0003240   0.0008492   0.0014409   0.0002005
    3  -0.0017566   0.0008468   0.0003018  -0.0009422   0.0006733   0.0000040
           19          20          21          22          23          24
    1  -0.0006488   0.0003277   0.0002064  -0.0004715  -0.0000889   0.0007732
    2   0.0006954   0.0002934  -0.0000683   0.0000409   0.0004974  -0.0010390
    3   0.0001129   0.0002335   0.0001534  -0.0005113   0.0001311  -0.0003669
           25          26          27          28          29          30
    1  -0.0000871  -0.0000070  -0.0000345  -0.0001737  -0.0000223  -0.0001277
    2  -0.0001176   0.0001951  -0.0000229  -0.0000965   0.0000948  -0.0000015
    3  -0.0002494   0.0002776   0.0000242   0.0000722  -0.0000776  -0.0000063
           31          32          33          34          35          36
    1  -0.0000492   0.0001420   0.0000177   0.0000376   0.0001159  -0.0000616
    2  -0.0000174  -0.0004279   0.0000676   0.0000231  -0.0002873   0.0006838
    3  -0.0000334   0.0001833   0.0000351  -0.0001735   0.0001617  -0.0000054
           37          38          39          40          41          42
    1  -0.0003546  -0.0000372   0.0001526   0.0001407  -0.0000489  -0.0001043
    2   0.0003322   0.0002253   0.0000857  -0.0004663   0.0000366  -0.0000618
    3  -0.0001638  -0.0002442  -0.0000511   0.0001711  -0.0000058   0.0000460
           43          44          45          46          47          48
    1  -0.0000796   0.0001503  -0.0000052  -0.0000133   0.0000719   0.0000367
    2  -0.0000238   0.0000465  -0.0000364  -0.0001434   0.0000321  -0.0000448
    3  -0.0000053   0.0001550  -0.0001065   0.0001120  -0.0000671   0.0000351
           49          50          51          52          53          54
    1  -0.0000022   0.0000035  -0.0000312   0.0000028  -0.0007751   0.0006801
    2  -0.0000094   0.0000238  -0.0001025   0.0000431   0.0006595   0.0002419
    3  -0.0000077  -0.0000082   0.0000334  -0.0000261   0.0001329   0.0010157
           55          56
    1   0.0006206  -0.0004689
    2   0.0004133   0.0001382
    3   0.0002403  -0.0000392
 Max gradient component =       2.889E-03
 RMS gradient           =       6.835E-04
 Gradient time:  CPU 30.27 s  wall 0.64 s
 Geometry Optimization Parameters
   NAtoms,    NIC,     NZ,  NCons,   NDum,   NFix, NCnnct, MaxDiis
       56     458       0       0       0       0       0       0

 Cartesian Hessian Update
 Hessian Updated using BFGS Update


** GEOMETRY OPTIMIZATION IN DELOCALIZED INTERNAL COORDINATES **
   Searching for a Minimum

   Optimization Cycle:   3

                       Coordinates (Angstroms)
     ATOM                X               Y               Z
      1  O         3.7787819521   -2.2886397916    0.1646304067
      2  C         4.6205791968   -1.3958886464    0.4075678799
      3  C         4.9190258083   -0.1172083613   -0.4477821227
      4  C         3.7526838965    0.2605842174   -1.4468677876
      5  C         2.4210684015   -0.5358085714   -1.2157267012
      6  O         1.9677575662   -0.2997690269    0.1247580927
      7  C         0.6979351933   -1.0216840850    0.3706290888
      8  C        -0.4003708256    0.0043964652    0.8394002296
      9  O        -1.6941798558   -0.3249061277    0.1964195975
     10  C        -2.6567126816   -0.7106786511    1.1903636626
     11  C        -4.0152458154   -1.0925819208    0.4982211601
     12  C        -5.0964015420    0.0627802819    0.3498401409
     13  C        -4.5780659400    1.5471779605    0.4646648634
     14  O        -5.1113579598    2.5477885689   -0.0622267699
     15  O         5.5007736001   -1.4103388165    1.5348735138
     16  O        -3.4080556151    1.6152083652    1.2778340259
     17  O        -2.4084787710   -0.7932991629    2.4145806530
     18  C        -2.8867822929    2.9992647191    1.3310507599
     19  C        -3.8993131684   -1.5829127386   -1.0125525239
     20  C        -5.1143202123   -2.5528974131   -1.2850615357
     21  C        -6.3097212397   -1.5287996577   -1.3007522869
     22  C        -5.5434582730   -0.1552194582   -1.1566566770
     23  O        -4.2406087490   -0.3914935639   -1.8226437595
     24  H        -4.4396765340   -1.9025018508    1.1195896130
     25  H        -5.9306706873   -0.0738215301    1.0627536803
     26  H        -2.9006739476   -1.9687462390   -1.2930314632
     27  H        -4.9969795501   -3.0478387374   -2.2624511236
     28  H        -5.2211959465   -3.3257570778   -0.5070717227
     29  H        -6.8640570544   -1.5642741592   -2.2519075233
     30  H        -7.0187820104   -1.6923452708   -0.4733014423
     31  H        -6.0512030754    0.7269154635   -1.5937640638
     32  O         1.8023613358   -1.2200155037   -2.0607422339
     33  C         5.2494395367   -2.6164982541    2.3573431899
     34  C         5.0622592526    1.2275417016    0.3905882609
     35  C         5.8746030572    2.2548655583   -0.4904978971
     36  C         4.8046653156    2.6159701776   -1.5876429245
     37  C         3.5515533050    1.7956440275   -1.0801533804
     38  O         3.6974842724    1.7998482683    0.3934493767
     39  H         5.8541094468   -0.3109408204   -1.0071038408
     40  H         4.0526114275    0.1126166838   -2.4987246799
     41  H         5.4311524067   -3.5478530665    1.7828525954
     42  H         5.4301865486    1.0798662120    1.4242379863
     43  H         6.1476202362    3.1379996294    0.1089866024
     44  H         6.7925613542    1.8153630765   -0.9123701408
     45  H         4.5819190448    3.6945687297   -1.5994822310
     46  H         5.1149742998    2.3091800527   -2.5994801238
     47  H         2.5679230645    2.2105826632   -1.3740265485
     48  H         4.2092524094   -2.6374779336    2.7417656827
     49  H         5.9568049500   -2.5599415184    3.2050453778
     50  H        -1.9771937566    2.9549530100    1.9578524181
     51  H        -3.6220654385    3.6923464305    1.7884076273
     52  H        -2.6271496946    3.3735136761    0.3198061904
     53  H        -0.5452453857   -0.0156220763    1.9411371209
     54  H        -0.1007749437    1.0260538585    0.5222390163
     55  H         0.8822009059   -1.7935520619    1.1462279372
     56  H         0.3821127152   -1.5125753164   -0.5773526996
   Point Group: c1    Number of degrees of freedom:   162


   Energy is  -1510.279390137

 Hessian Updated using BFGS Update

152 Hessian modes will be used to form the next step
  Hessian Eigenvalues:
     0.001459    0.002101    0.002312    0.002693    0.002879    0.004285
     0.004354    0.004773    0.004886    0.004895    0.005056    0.005112
     0.006584    0.006853    0.010979    0.011623    0.012066    0.017153
     0.021567    0.022090    0.025359    0.025710    0.029592    0.031028
     0.032447    0.035450    0.036843    0.038106    0.041259    0.041939
     0.042048    0.043642    0.046373    0.047632    0.049484    0.050089
     0.050897    0.051048    0.051632    0.053754    0.054731    0.055112
     0.055415    0.055680    0.055749    0.055983    0.056520    0.058522
     0.059496    0.060735    0.063076    0.063568    0.063883    0.064283
     0.064307    0.069598    0.070134    0.072994    0.073249    0.092129
     0.092589    0.093190    0.093435    0.096377    0.096699    0.097064
     0.099207    0.102638    0.103001    0.111251    0.111427    0.111670
     0.113443    0.122230    0.135341    0.136084    0.137150    0.157903
     0.159992    0.159998    0.160011    0.162769    0.165620    0.180377
     0.219444    0.219870    0.220510    0.221006    0.228136    0.234070
     0.238393    0.239248    0.239520    0.239741    0.244851    0.245897
     0.246997    0.249435    0.249928    0.249942    0.249979    0.252108
     0.252944    0.253351    0.254939    0.256622    0.257872    0.260795
     0.261285    0.289529    0.292563    0.293710    0.307215    0.316896
     0.322624    0.324682    0.324960    0.326481    0.326772    0.326921
     0.326926    0.327017    0.328510    0.328863    0.329113    0.329577
     0.329668    0.330516    0.330619    0.330753    0.330799    0.332595
     0.334680    0.334700    0.334891    0.334955    0.335034    0.335184
     0.335214    0.335288    0.343804    0.344181    0.344664    0.345704
     0.399466    0.403304    0.409468    0.415766    0.824725    0.828948
     0.829595    0.831384

 Minimum Search - Taking Simple RFO Step
 Searching for Lamda that Minimizes Along All modes
 Value Taken    Lamda =  -0.00373298
 Calculated Step too Large.  Step scaled by  0.389611
 Step Taken.  Stepsize is  0.300000

                             Maximum     Tolerance    Cnvgd?
         Gradient           0.003925      0.000300      NO
         Displacement       0.081558      0.001200      NO
         Energy change     -0.001254      0.000001      NO


 New Cartesian Coordinates Obtained by Inverse Iteration

 Displacement from previous Coordinates is:  1.760296
 Adding empirical dispersion correction 
 ----------------------------------------------------------------
 Doing -D3(op) with
 s6 =   1.00000
 s8 =   0.78311
 a1 =   0.30000
 a2 =   4.25000
 n  =  10.00000
 -D3 energy without 3body term =     -0.0655177642 hartrees
 ----------------------------------------------------------------
             Standard Nuclear Orientation (Angstroms)
    I     Atom           X                Y                Z
 ----------------------------------------------------------------
    1      O       3.8882845687    -2.3233018642     0.1563934094
    2      C       4.6914722223    -1.3958579568     0.4004198850
    3      C       4.9227211959    -0.1004575613    -0.4498823339
    4      C       3.7093130304     0.2466034131    -1.4034824414
    5      C       2.4212723054    -0.6126271464    -1.1492997493
    6      O       1.9445071547    -0.3491515950     0.1779089757
    7      C       0.6730717122    -1.0702987750     0.4179354117
    8      C      -0.4346949062    -0.0338125701     0.8384340524
    9      O      -1.7235697432    -0.3893071035     0.1995984811
   10      C      -2.6917362921    -0.7347498044     1.2012433250
   11      C      -4.0573798914    -1.0816836773     0.5103269325
   12      C      -5.0692493851     0.1232902089     0.2829432774
   13      C      -4.4830391586     1.5836542376     0.3763699432
   14      O      -4.9229454861     2.5848053439    -0.2299064646
   15      O       5.6014724269    -1.3935497454     1.5036017667
   16      O      -3.3884208421     1.6334568030     1.2893722193
   17      O      -2.4338315977    -0.8552885445     2.4200281772
   18      C      -2.8046395114     2.9923790960     1.3341215959
   19      C      -3.9297808532    -1.6414173211    -0.9766254597
   20      C      -5.1929450610    -2.5468228662    -1.2524688900
   21      C      -6.3214942292    -1.4539734281    -1.3488890740
   22      C      -5.4768092499    -0.1246455967    -1.2297896547
   23      O      -4.1709441747    -0.4651755108    -1.8423838533
   24      H      -4.5371465384    -1.8405885230     1.1549228858
   25      H      -5.9344233257     0.0544532127     0.9681991063
   26      H      -2.9492502537    -2.0980357505    -1.2117517565
   27      H      -5.0752732046    -3.0873931190    -2.2053418085
   28      H      -5.3714534077    -3.2794923578    -0.4491339874
   29      H      -6.8458712507    -1.4940975199    -2.3166651768
   30      H      -7.0656183097    -1.5414148759    -0.5409890802
   31      H      -5.9156048339     0.7687547846    -1.7159587583
   32      O       1.8252918299    -1.3293870953    -1.9836475982
   33      C       5.4216313637    -2.6234449391     2.3095213713
   34      C       5.0457881169     1.2390661404     0.4002552802
   35      C       5.7826793515     2.3091321551    -0.4965768770
   36      C       4.6577969681     2.6425332541    -1.5461129217
   37      C       3.4587668954     1.7655239343    -1.0047436730
   38      O       3.6603137699     1.7552972799     0.4624009324
   39      H       5.8448944135    -0.2551476114    -1.0416880564
   40      H       3.9818967107     0.1271917547    -2.4663734311
   41      H       5.6280699636    -3.5362511129     1.7139069353
   42      H       5.4578562525     1.0936761214     1.4174281279
   43      H       6.0447017728     3.1944211398     0.1047214335
   44      H       6.6994711178     1.9118361781    -0.9607265254
   45      H       4.3921512127     3.7113529416    -1.5317857920
   46      H       4.9412223453     2.3640850850    -2.5740346058
   47      H       2.4488287574     2.1437009589    -1.2558362040
   48      H       4.3930097016    -2.6950439478     2.7182771775
   49      H       6.1467634549    -2.5515429794     3.1409152189
   50      H      -1.9593444273     2.9336699770     2.0441839073
   51      H      -3.5417520379     3.7398978197     1.6920000999
   52      H      -2.4349077545     3.3073841983     0.3370672939
   53      H      -0.5855276376    -0.0170161334     1.9392874574
   54      H      -0.1397172237     0.9769234470     0.4845156086
   55      H       0.8423134417    -1.8207993137     1.2176416791
   56      H       0.3774680648    -1.5881707513    -0.5221052483
 ----------------------------------------------------------------
 Molecular Point Group                 C1    NOp =  1
 Largest Abelian Subgroup              C1    NOp =  1
 Nuclear Repulsion Energy =  3074.0058519022 hartrees
 There are      113 alpha and      113 beta electrons
 Applying Cartesian multipole field
    Component          Value
    ---------          -----
     (2,0,0)        1.00000E-12
     (0,2,0)        2.00000E-11
     (0,0,2)       -3.00000E-11
 Nucleus-field energy     =     0.0000000215 hartrees
 Requested basis set is STO-3G
 There are 86 shells and 176 basis functions
 A cutoff of  1.0D-12 yielded   2040 shell pairs
 There are      9492 function pairs
 Smallest overlap matrix eigenvalue = 2.13E-01
 Guess MOs from SCF MO coefficient file
 Reading MOs from coefficient file
 Reading MOs from coefficient file
 A restricted hybrid HF-DFT SCF calculation will be
 performed using Pulay DIIS extrapolation
[...]
      7  C         0.4291745518   -0.4423858639   -0.2701342439
      8  C        -0.6654517306    0.6461264412    0.0178362463
      9  O        -2.0338120675    0.1089624940   -0.1765596072
     10  C        -2.4272831827   -0.6982496517    0.9427250183
     11  C        -3.8764507905   -1.2252514476    0.6710349822
     12  C        -4.9080448817   -0.0816370228    0.2894452497
     13  C        -4.2874483244    1.3607238164    0.3082748075
     14  O        -4.3206534846    2.2203210130   -0.5962929004
     15  O         5.2458191170   -1.6846486599    1.4046068917
     16  O        -3.6905024144    1.5667828146    1.5978029518
     17  O        -1.7012077559   -0.9420450606    1.9299961711
     18  C        -3.0662505047    2.9072920910    1.6584351320
     19  C        -3.9353199749   -2.1140090656   -0.6486459703
     20  C        -5.3110082719   -2.8923539765   -0.6643720982
     21  C        -6.3091623129   -1.7433877176   -1.0680192331
     22  C        -5.3244953366   -0.5140786359   -1.1767106953
     23  O        -4.0856382090   -1.1127809345   -1.7266371265
     24  H        -4.2030199186   -1.7898425354    1.5615915439
     25  H        -5.7733234364   -0.0958230766    0.9777024055
     26  H        -3.0383143513   -2.7398973782   -0.8220812765
     27  H        -5.2906003750   -3.6950605825   -1.4188419974
     28  H        -5.5469947235   -3.3355000878    0.3162577915
     29  H        -6.7849783322   -1.9446692615   -2.0409186249
     30  H        -7.0965902188   -1.5792164170   -0.3153538805
     31  H        -5.6625231831    0.3268340209   -1.8131322384
     32  O         2.0186768837   -0.8519058330   -2.3899221551
     33  C         4.7347950647   -2.8686285219    2.1349620738
     34  C         5.2193109561    1.1189862046    0.5503955195
     35  C         6.1613501745    2.1343878963   -0.2069440741
     36  C         5.1517136116    2.7724874573   -1.2324752186
     37  C         3.8132094312    2.0204757247   -0.8552173600
     38  O         3.9220016196    1.8283284411    0.6093494974
     39  H         5.8531288638   -0.4126938593   -0.9468126359
     40  H         4.2828946508    0.5234926202   -2.4619983444
     41  H         4.6932157584   -3.7637612862    1.4812081308
     42  H         5.5516736954    0.8184958493    1.5629453671
     43  H         6.5568970115    2.8875535799    0.4931893157
     44  H         7.0079582040    1.6288465635   -0.6985054881
     45  H         5.0430045248    3.8569125970   -1.0721068675
     46  H         5.4430835423    2.5976474712   -2.2805414234
     47  H         2.8808874755    2.5619121106   -1.1060391315
     48  H         3.7215176905   -2.6858186907    2.5470718054
     49  H         5.4460865517   -3.0465915916    2.9622160912
     50  H        -2.5413925053    2.9572910609    2.6301595337
     51  H        -3.8264278531    3.7137040376    1.6067219951
     52  H        -2.3403867976    3.0562818623    0.8338032405
     53  H        -0.5391442564    1.0403834219    1.0485942319
     54  H        -0.5687015978    1.4775086465   -0.7093176999
     55  H         0.4163320699   -1.2127315885    0.5297986052
     56  H         0.2596822355   -0.9276558125   -1.2562672449
   Point Group: c1    Number of degrees of freedom:   162


   Energy is  -1510.287890675

 Hessian Updated using BFGS Update

162 Hessian modes will be used to form the next step
  Hessian Eigenvalues:
     0.000723    0.002245    0.002562    0.002793    0.002958    0.004049
     0.004932    0.005601    0.005907    0.006512    0.008607    0.011531
     0.012155    0.013531    0.014130    0.020732    0.021962    0.022111
     0.025601    0.027419    0.029375    0.031090    0.031174    0.032698
     0.034423    0.035436    0.036802    0.038135    0.041763    0.042331
     0.043047    0.043560    0.045688    0.048308    0.048721    0.049908
     0.050976    0.051927    0.052241    0.052756    0.054164    0.054610
     0.055583    0.055689    0.055872    0.056194    0.056661    0.057187
     0.057843    0.061579    0.062439    0.063691    0.063998    0.064290
     0.064644    0.065553    0.069114    0.070203    0.071051    0.073286
     0.073637    0.091575    0.092761    0.093266    0.096728    0.097078
     0.097466    0.100325    0.100834    0.102422    0.102731    0.109624
     0.112493    0.114105    0.119213    0.134961    0.137012    0.138681
     0.143673    0.159975    0.160023    0.160053    0.160263    0.160466
     0.160988    0.162676    0.168057    0.181828    0.191077    0.209098
     0.217776    0.222775    0.225170    0.231782    0.235821    0.237488
     0.238863    0.240099    0.240462    0.242051    0.243723    0.246433
     0.248991    0.249906    0.250310    0.250472    0.251259    0.252765
     0.253198    0.253745    0.254114    0.255441    0.260006    0.260563
     0.270609    0.276987    0.277864    0.292004    0.293268    0.300842
     0.303288    0.317465    0.322838    0.324409    0.325882    0.326640
     0.326782    0.326837    0.326949    0.327213    0.328547    0.328989
     0.329254    0.329501    0.329739    0.330586    0.330735    0.330804
     0.331156    0.332911    0.334234    0.334672    0.334953    0.335008
     0.335078    0.335182    0.335268    0.335599    0.336625    0.344640
     0.345321    0.357666    0.376680    0.400383    0.409242    0.412257
     0.421270    0.481482    0.826110    0.829894    0.830646    0.831662

 Minimum Search - Taking Simple RFO Step
 Searching for Lamda that Minimizes Along All modes
 Value Taken    Lamda =   0.00000000
 Step Taken.  Stepsize is  0.003190

                             Maximum     Tolerance    Cnvgd?
         Gradient           0.000014      0.000300     YES
         Displacement       0.000885      0.001200     YES
         Energy change     -0.000001      0.000001     YES

 Final energy is   -1510.28789067489     


 ******************************
 **  OPTIMIZATION CONVERGED  **
 ******************************

                       Coordinates (Angstroms)
     ATOM                X               Y               Z
      1  O         3.3249832714   -1.9975633322    0.0557750637
      2  C         4.3632657033   -1.3552340661    0.3307928412
      3  C         4.9296081125   -0.1039212375   -0.4226863247
      4  C         3.8906431623    0.5407060076   -1.4298130201
      5  C         2.4858576843   -0.1619549301   -1.4569343637
      6  O         1.7540147070    0.2199962697   -0.2816687121
      7  C         0.4291745518   -0.4423858639   -0.2701342439
      8  C        -0.6654517306    0.6461264412    0.0178362463
      9  O        -2.0338120675    0.1089624940   -0.1765596072
     10  C        -2.4272831827   -0.6982496517    0.9427250183
     11  C        -3.8764507905   -1.2252514476    0.6710349822
     12  C        -4.9080448817   -0.0816370228    0.2894452497
     13  C        -4.2874483244    1.3607238164    0.3082748075
     14  O        -4.3206534846    2.2203210130   -0.5962929004
     15  O         5.2458191170   -1.6846486599    1.4046068917
     16  O        -3.6905024144    1.5667828146    1.5978029518
     17  O        -1.7012077559   -0.9420450606    1.9299961711
     18  C        -3.0662505047    2.9072920910    1.6584351320
     19  C        -3.9353199749   -2.1140090656   -0.6486459703
     20  C        -5.3110082719   -2.8923539765   -0.6643720982
     21  C        -6.3091623129   -1.7433877176   -1.0680192331
     22  C        -5.3244953366   -0.5140786359   -1.1767106953
     23  O        -4.0856382090   -1.1127809345   -1.7266371265
     24  H        -4.2030199186   -1.7898425354    1.5615915439
     25  H        -5.7733234364   -0.0958230766    0.9777024055
     26  H        -3.0383143513   -2.7398973782   -0.8220812765
     27  H        -5.2906003750   -3.6950605825   -1.4188419974
     28  H        -5.5469947235   -3.3355000878    0.3162577915
     29  H        -6.7849783322   -1.9446692615   -2.0409186249
     30  H        -7.0965902188   -1.5792164170   -0.3153538805
     31  H        -5.6625231831    0.3268340209   -1.8131322384
     32  O         2.0186768837   -0.8519058330   -2.3899221551
     33  C         4.7347950647   -2.8686285219    2.1349620738
     34  C         5.2193109561    1.1189862046    0.5503955195
     35  C         6.1613501745    2.1343878963   -0.2069440741
     36  C         5.1517136116    2.7724874573   -1.2324752186
     37  C         3.8132094312    2.0204757247   -0.8552173600
     38  O         3.9220016196    1.8283284411    0.6093494974
     39  H         5.8531288638   -0.4126938593   -0.9468126359
     40  H         4.2828946508    0.5234926202   -2.4619983444
     41  H         4.6932157584   -3.7637612862    1.4812081308
     42  H         5.5516736954    0.8184958493    1.5629453671
     43  H         6.5568970115    2.8875535799    0.4931893157
     44  H         7.0079582040    1.6288465635   -0.6985054881
     45  H         5.0430045248    3.8569125970   -1.0721068675
     46  H         5.4430835423    2.5976474712   -2.2805414234
     47  H         2.8808874755    2.5619121106   -1.1060391315
     48  H         3.7215176905   -2.6858186907    2.5470718054
     49  H         5.4460865517   -3.0465915916    2.9622160912
     50  H        -2.5413925053    2.9572910609    2.6301595337
     51  H        -3.8264278531    3.7137040376    1.6067219951
     52  H        -2.3403867976    3.0562818623    0.8338032405
     53  H        -0.5391442564    1.0403834219    1.0485942319
     54  H        -0.5687015978    1.4775086465   -0.7093176999
     55  H         0.4163320699   -1.2127315885    0.5297986052
     56  H         0.2596822355   -0.9276558125   -1.2562672449

Z-matrix Print:
$molecule
0 1
O 
C  1 1.434994
O  2 1.249530 1 124.520817
C  1 1.482817 2 110.766094 3 -1.697923 0
H  4 1.108742 1 105.437281 2 -163.214325 0
H  4 1.110790 1 110.803499 2 -44.924070 0
C  2 1.565769 1 107.924628 3 -178.467682 0
H  7 1.103858 2 107.816680 1 -176.294276 0
C  4 1.570348 1 111.598978 2 77.628328 0
H  9 1.110626 4 109.916440 1 -70.423156 0
H  9 1.112058 4 111.029678 1 50.921836 0
O  9 1.481244 4 108.355717 1 170.519913 0
C  12 1.436221 9 110.072294 4 -130.716128 0
O  13 1.250902 12 124.521039 9 6.179448 0
C  13 1.570952 12 108.819278 9 -179.257341 0
H  15 1.104339 13 107.128337 12 -160.940464 0
C  15 1.584076 13 114.548488 12 75.755736 0
H  17 1.105866 15 111.101882 13 123.156448 0
C  17 1.566607 15 113.186269 13 1.617594 0
O  19 1.251500 17 127.169762 15 13.290765 0
O  19 1.428458 17 108.807932 15 -167.669019 0
C  21 1.482016 19 109.977653 17 -179.908209 0
H  22 1.105421 21 105.994303 19 -178.424677 0
H  22 1.109047 21 111.498562 19 -59.152653 0
H  22 1.109228 21 111.541425 19 62.358904 0
C  7 1.586711 2 113.632815 1 -51.877267 0
H  26 1.105715 7 110.476976 2 -124.034075 0
C  26 1.570318 7 113.715226 2 -2.051964 0
O  28 1.248300 26 127.828565 7 127.598772 0
O  28 1.435858 26 107.871744 7 -54.479154 0
C  30 1.479977 28 110.007181 26 178.915138 0
H  31 1.105542 30 106.094515 28 -174.326120 0
H  31 1.108645 30 111.556340 28 -54.922004 0
H  31 1.109434 30 111.558262 28 66.524478 0
C  26 1.584314 7 101.345389 2 117.652026 0
H  35 1.107443 26 113.877988 7 -153.781535 0
O  35 1.481766 26 103.530797 7 -33.862369 0
C  37 1.478891 35 95.048664 26 56.319923 0
H  38 1.107445 37 110.536051 35 179.638112 0
C  35 1.578792 26 108.225729 7 75.460151 0
H  40 1.101566 35 110.540476 26 168.312392 0
H  40 1.101590 35 112.136386 26 46.741372 0
C  40 1.574600 35 100.979190 26 -73.536751 0
H  43 1.101682 40 112.700107 35 118.676067 0
H  43 1.101807 40 111.580534 35 -118.709736 0
C  15 1.589300 13 112.279883 12 -37.958174 0
H  46 1.106928 15 114.490270 13 -34.322233 0
O  46 1.481119 15 103.481453 13 85.943253 0
C  48 1.479748 46 95.001984 15 57.270306 0
H  49 1.107256 48 110.904977 46 -178.742933 0
C  49 1.578620 48 103.529721 46 56.512675 0
H  51 1.101772 49 110.431041 48 82.435997 0
H  51 1.101794 49 112.175294 48 -156.091123 0
C  51 1.574246 49 100.983536 48 -35.688170 0
H  54 1.101596 51 111.559842 49 118.414822 0
H  54 1.101775 51 112.690722 49 -118.964768 0
$end

 
 --------------------------------------------------------------
 
                    Orbital Energies (a.u.)
 --------------------------------------------------------------
 
 Alpha MOs
 -- Occupied --
-18.941 -18.930 -18.929 -18.919 -18.888 -18.885 -18.883 -18.873
-18.871 -18.863 -10.105 -10.097 -10.096 -10.091 -10.068 -10.066
-10.062 -10.060 -10.059 -10.058 -10.055 -10.054 -10.040 -10.035
-10.034 -10.034 -10.021 -10.019 -10.018 -10.017  -1.018  -1.013
 -1.003  -0.998  -0.970  -0.967  -0.941  -0.934  -0.933  -0.924
 -0.763  -0.761  -0.725  -0.722  -0.710  -0.703  -0.688  -0.665
 -0.660  -0.610  -0.595  -0.578  -0.545  -0.543  -0.537  -0.535
 -0.512  -0.508  -0.484  -0.474  -0.464  -0.461  -0.446  -0.437
 -0.433  -0.430  -0.427  -0.414  -0.413  -0.408  -0.404  -0.395
 -0.386  -0.378  -0.378  -0.367  -0.359  -0.353  -0.351  -0.347
 -0.341  -0.337  -0.330  -0.330  -0.327  -0.324  -0.322  -0.314
 -0.307  -0.305  -0.303  -0.298  -0.290  -0.287  -0.281  -0.276
 -0.271  -0.259  -0.251  -0.248  -0.236  -0.234  -0.231  -0.184
 -0.179  -0.174  -0.159  -0.157  -0.153  -0.146  -0.145  -0.143
 -0.140
 -- Virtual --
  0.095   0.095   0.112   0.115   0.219   0.238   0.243   0.247
  0.265   0.282   0.286   0.294   0.307   0.323   0.328   0.333
  0.336   0.344   0.349   0.352   0.354   0.361   0.364   0.368
  0.376   0.386   0.389   0.401   0.402   0.403   0.408   0.413
  0.413   0.418   0.420   0.423   0.427   0.429   0.430   0.432
  0.436   0.436   0.440   0.442   0.452   0.454   0.457   0.458
  0.468   0.471   0.489   0.492   0.495   0.505   0.508   0.536
  0.540   0.553   0.555   0.638   0.646   0.650   0.653
 --------------------------------------------------------------
 
          Ground-State Mulliken Net Atomic Charges

     Atom                 Charge (a.u.)
  ----------------------------------------
      1 O                    -0.207062
      2 C                     0.214769
      3 C                    -0.078150
      4 C                    -0.080665
      5 C                     0.215339
      6 O                    -0.174041
      7 C                    -0.057354
      8 C                    -0.048847
      9 O                    -0.169750
     10 C                     0.212506
     11 C                    -0.078772
     12 C                    -0.078255
     13 C                     0.215876
     14 O                    -0.211490
     15 O                    -0.169438
     16 O                    -0.174519
     17 O                    -0.214435
     18 C                    -0.128902
     19 C                     0.025997
     20 C                    -0.143924
     21 C                    -0.143913
     22 C                     0.024620
     23 O                    -0.185308
     24 H                     0.084937
     25 H                     0.083891
     26 H                     0.083045
     27 H                     0.078042
     28 H                     0.073395
     29 H                     0.078017
     30 H                     0.072632
     31 H                     0.090280
     32 O                    -0.217405
     33 C                    -0.128073
     34 C                     0.024836
     35 C                    -0.143616
     36 C                    -0.144398
     37 C                     0.026889
     38 O                    -0.186846
     39 H                     0.086122
     40 H                     0.084014
     41 H                     0.090193
     42 H                     0.088771
     43 H                     0.077984
     44 H                     0.073392
     45 H                     0.077658
     46 H                     0.073769
     47 H                     0.083945
     48 H                     0.092980
     49 H                     0.091871
     50 H                     0.090877
     51 H                     0.087161
     52 H                     0.089642
     53 H                     0.091293
     54 H                     0.088651
     55 H                     0.090242
     56 H                     0.101524
  ----------------------------------------
  Sum of atomic charges =    -0.000000

 -----------------------------------------------------------------
                    Cartesian Multipole Moments
 -----------------------------------------------------------------
    Charge (ESU x 10^10)
                -0.0000
    Dipole Moment (Debye)
         X       1.2147      Y      -0.0216      Z       1.4432
       Tot       1.8865
    Quadrupole Moments (Debye-Ang)
        XX    -131.2800     XY       5.4505     YY    -152.2114
        XZ      -5.2853     YZ      -3.4038     ZZ    -166.0329
    Octopole Moments (Debye-Ang^2)
       XXX      -7.8113    XXY     -32.6078    XYY      -1.2855
       YYY      10.5051    XXZ      19.4700    XYZ     -38.4765
       YYZ      27.4576    XZZ      13.2853    YZZ      12.2121
       ZZZ      42.0647
    Hexadecapole Moments (Debye-Ang^3)
      XXXX  -15507.0661   XXXY    -465.6283   XXYY   -3114.5082
      XYYY    -671.7735   YYYY   -2835.3448   XXXZ    -203.5619
      XXYZ     -41.7003   XYYZ     -19.2617   YYYZ      34.3126
      XXZZ   -2948.5360   XYZZ    -244.1207   YYZZ    -694.1562
      XZZZ     -15.7273   YZZZ      -2.2067   ZZZZ   -1449.5354
 -----------------------------------------------------------------
Archival summary:
1\1\vega02.cac.cornell.edu\OPT\ProcedureUnspecified\STO-3G\102026\jj585\SunJan1411:16:172018SunJan1411:16:172018\0\\#,OPT,ProcedureUnspecified,STO-3G,\\0,1\O\C,1,1.43499\O,2,1.24953,1,124.521\C,1,1.48282,2,110.766,3,-1.69792,0\H,4,1.10874,1,105.437,2,-163.214,0\H,4,1.11079,1,110.803,2,-44.9241,0\C,2,1.56577,1,107.925,3,-178.468,0\H,7,1.10386,2,107.817,1,-176.294,0\C,4,1.57035,1,111.599,2,77.6283,0\H,9,1.11063,4,109.916,1,-70.4232,0\H,9,1.11206,4,111.03,1,50.9218,0\O,9,1.48124,4,108.356,1,170.52,0\C,12,1.43622,9,110.072,4,-130.716,0\O,13,1.2509,12,124.521,9,6.17945,0\C,13,1.57095,12,108.819,9,-179.257,0\H,15,1.10434,13,107.128,12,-160.94,0\C,15,1.58408,13,114.548,12,75.7557,0\H,17,1.10587,15,111.102,13,123.156,0\C,17,1.56661,15,113.186,13,1.61759,0\O,19,1.2515,17,127.17,15,13.2908,0\O,19,1.42846,17,108.808,15,-167.669,0\C,21,1.48202,19,109.978,17,-179.908,0\H,22,1.10542,21,105.994,19,-178.425,0\H,22,1.10905,21,111.499,19,-59.1527,0\H,22,1.10923,21,111.541,19,62.3589,0\C,7,1.58671,2,113.633,1,-51.8773,0\H,26,1.10572,7,110.477,2,-124.034,0\C,26,1.57032,7,113.715,2,-2.05196,0\O,28,1.2483,26,127.829,7,127.599,0\O,28,1.43586,26,107.872,7,-54.4792,0\C,30,1.47998,28,110.007,26,178.915,0\H,31,1.10554,30,106.095,28,-174.326,0\H,31,1.10865,30,111.556,28,-54.922,0\H,31,1.10943,30,111.558,28,66.5245,0\C,26,1.58431,7,101.345,2,117.652,0\H,35,1.10744,26,113.878,7,-153.782,0\O,35,1.48177,26,103.531,7,-33.8624,0\C,37,1.47889,35,95.0487,26,56.3199,0\H,38,1.10745,37,110.536,35,179.638,0\C,35,1.57879,26,108.226,7,75.4602,0\H,40,1.10157,35,110.54,26,168.312,0\H,40,1.10159,35,112.136,26,46.7414,0\C,40,1.5746,35,100.979,26,-73.5368,0\H,43,1.10168,40,112.7,35,118.676,0\H,43,1.10181,40,111.581,35,-118.71,0\C,15,1.5893,13,112.28,12,-37.9582,0\H,46,1.10693,15,114.49,13,-34.3222,0\O,46,1.48112,15,103.481,13,85.9433,0\C,48,1.47975,46,95.002,15,57.2703,0\H,49,1.10726,48,110.905,46,-178.743,0\C,49,1.57862,48,103.53,46,56.5127,0\H,51,1.10177,49,110.431,48,82.436,0\H,51,1.10179,49,112.175,48,-156.091,0\C,51,1.57425,49,100.984,48,-35.6882,0\H,54,1.1016,51,111.56,49,118.415,0\H,54,1.10178,51,112.691,49,-118.965,0\\\@

 Total job time:  74.91s(wall), 3565.13s(cpu) 
 Sun Jan 14 11:16:17 2018

        *************************************************************
        *                                                           *
        *  Thank you very much for using Q-Chem.  Have a nice day.  *
        *                                                           *
        *************************************************************


0 sent ACK to 0 
now end server 0 ... 
