mFile = /opt/software/qchem/qchem-5.0.1//bin/mpi/machines
Process 0 of 1 is on vega02.cac.cornell.edu - thread support 0
initial socket setup ...start
initial socket setup ...done 
now start server 0 ... 
vega02.cac.cornell.edu 10.84.3
Q-Chem Developer Version! Running on 10.84.3.*
                  Welcome to Q-Chem
     A Quantum Leap Into The Future Of Chemistry


 Q-Chem 5.0, Q-Chem, Inc., Pleasanton, CA (2017)

 Yihan Shao,  Zhengting Gan,  E. Epifanovsky,  A. T. B. Gilbert,  M. Wormit,  
 J. Kussmann,  A. W. Lange,  A. Behn,  Jia Deng,  Xintian Feng,  D. Ghosh,  
 M. Goldey,  P. R. Horn,  L. D. Jacobson,  I. Kaliman,  T. Kus,  A. Landau,  
 Jie Liu,  E. I. Proynov,  R. M. Richard,  R. P. Steele,  E. J. Sundstrom,  
 H. L. Woodcock III,  P. M. Zimmerman,  D. Zuev,  B. Albrecht,  E. Alguire,  
 S. A. Baeppler,  Z. Benda,  Y. A. Bernard,  E. J. Berquist,  K. B. Bravaya,  
 D. Casanova,  Chun-Min Chang,  Yunqing Chen,  A. Chien,  K. D. Closser,  
 M. P. Coons,  S. Dasgupta,  M. Diedenhofen,  Hainam Do,  R. G. Edgar,  
 Po-Tung Fang,  S. Fatehi,  Qingguo Feng,  Qinghui Ge,  A. Ghysels,  
 J. Gomes,  J. Gonthier,  A. Gunina,  M. W. D. Hanson-Heine,  
 P. H. P. Harbach,  A. W. Hauser,  J. E. Herr,  E. G. Hohenstein,  
 Z. C. Holden,  Kerwin Hui,  T.-C. Jagau,  Hyunjun Ji,  B. Kaduk,  
 K. Khistyaev,  Jaehoon Kim,  P. Klunzinger,  K. Koh,  D. Kosenkov,  
 T. Kowalczyk,  C. M. Krauter,  A. Kunitsa,  Ka Un Lao,  A. Laurent,  
 K. V. Lawler,  Joonho Lee,  D. Lefrancois,  S. Lehtola,  D. S. Levine,  
 Yi-Pei Li,  You-Sheng Lin,  Fenglai Liu,  E. Livshits,  A. Luenser,  
 P. Manohar,  E. Mansoor,  S. F. Manzer,  Shan-Ping Mao,  Yuezhi Mao,  
 N. Mardirossian,  A. V. Marenich,  L. A. Martinez-Martinez,  S. A. Maurer,  
 N. J. Mayhall,  S. C. McKenzie,  J.-M. Mewes,  A. F. Morrison,  K. Nanda,  
 T. S. Nguyen-Beck,  R. Olivares-Amaya,  J. A. Parkhill,  T. M. Perrine,  
 F. Plasser,  S. Prager,  A. Prociuk,  D. R. Rehn,  F. Rob,  M. Schneider,  
 N. Sergueev,  S. M. Sharada,  S. Sharma,  D. W. Small,  T. Stauch,  
 T. Stein,  Yu-Chuan Su,  A. J. W. Thom,  T. Tsuchimochi,  L. Vogt,  
 O. Vydrov,  M. A. Watson,  J. Wenzel,  M. de Wergifosse,  T. A. Wesolowski,  
 A. White,  J. Witte,  A. Yamada,  Jun Yang,  K. Yao,  S. Yeganeh,  
 S. R. Yost,  Zhi-Qiang You,  A. Zech,  Igor Ying Zhang,  Xing Zhang,  
 Yan Zhao,  Ying Zhu,  B. R. Brooks,  G. K. L. Chan,  C. J. Cramer,  
 M. S. Gordon,  W. J. Hehre,  A. Klamt,  M. W. Schmidt,  C. D. Sherrill,  
 D. G. Truhlar,  A. Aspuru-Guzik,  R. Baer,  A. T. Bell,  N. A. Besley,  
 Jeng-Da Chai,  A. Dreuw,  B. D. Dunietz,  T. R. Furlani,  Chao-Ping Hsu,  
 Yousung Jung,  Jing Kong,  D. S. Lambrecht,  WanZhen Liang,  C. Ochsenfeld,  
 V. A. Rassolov,  L. V. Slipchenko,  J. E. Subotnik,  T. Van Voorhis,  
 J. M. Herbert,  A. I. Krylov,  P. M. W. Gill,  M. Head-Gordon

 Contributors to earlier versions of Q-Chem not listed above: 
 R. D. Adamson,  B. Austin,  J. Baker,  G. J. O. Beran,  K. Brandhorst,  
 S. T. Brown,  E. F. C. Byrd,  A. K. Chakraborty,  C.-L. Cheng,  
 Siu Hung Chien,  D. M. Chipman,  D. L. Crittenden,  H. Dachsel,  
 R. A. DiStasio Jr.,  R. J. Doerksen,  A. D. Dutoi,  L. Fusti-Molnar,  
 W. A. Goddard III,  A. Golubeva-Zadorozhnaya,  S. R. Gwaltney,  G. Hawkins,  
 A. Heyden,  S. Hirata,  G. Kedziora,  F. J. Keil,  C. Kelley,  Jihan Kim,  
 R. A. King,  R. Z. Khaliullin,  P. P. Korambath,  W. Kurlancheek,  
 A. M. Lee,  M. S. Lee,  S. V. Levchenko,  Ching Yeh Lin,  D. Liotard,  
 R. C. Lochan,  I. Lotan,  P. E. Maslen,  N. Nair,  D. P. O'Neill,  
 D. Neuhauser,  E. Neuscamman,  C. M. Oana,  R. Olson,  B. Peters,  
 R. Peverati,  P. A. Pieniazek,  Y. M. Rhee,  J. Ritchie,  M. A. Rohrdanz,  
 E. Rosta,  N. J. Russ,  H. F. Schaefer III,  N. E. Schultz,  N. Shenvi,  
 A. C. Simmonett,  A. Sodt,  D. Stuck,  K. S. Thanthiriwatte,  V. Vanovschi,  
 Tao Wang,  A. Warshel,  C. F. Williams,  Q. Wu,  X. Xu,  W. Zhang

 Please cite Q-Chem as follows:
 Y. Shao et al., Mol. Phys. 113, 184-215 (2015)
 DOI: 10.1080/00268976.2014.952696

 Q-Chem 5.0.1 for Intel X86 EM64T Linux

 Parts of Q-Chem use Armadillo 5.200.1 (Boston Tea Smuggler).
 http://arma.sourceforge.net/

 Q-Chem begins on Sun Jan 14 11:24:58 2018  

Host: vega02.cac.cornell.edu
0

     Scratch files written to /scratch/jj585/SOT1001/0411c.save//
 Parallel job on  1  processors

Checking the input file for inconsistencies... 	...done.

--------------------------------------------------------------
User input:
--------------------------------------------------------------
$molecule
0  1
O -3.94934 -3.66094 2.70899
C -3.26408 -4.56952 2.26188
C -3.36658 -6.02376 2.66595
C -4.5725 -6.42992 3.52889
C -5.63467 -5.37442 3.74293
O -6.53271 -5.40459 2.71433
C -7.18015 -4.14682 2.49498
C -8.68614 -4.28995 2.68901
O -9.26473 -3.01012 2.98923
C -9.79177 -2.34575 1.93094
C -10.16597 -0.9198 2.2585
C -11.12805 -0.25766 1.26139
C -11.84307 -1.19625 0.31033
O -12.74115 -0.87969 -0.45635
O -2.27082 -4.26576 1.38544
O -11.73856 -2.54845 0.4304
O -9.34884 -2.58337 0.80891
C -12.41204 -3.49236 -0.32216
C -10.98883 -0.76447 3.56018
C -10.8206 0.65386 4.10321
C -11.60212 1.44548 3.07453
C -12.17963 0.30254 2.23171
O -12.33181 -0.75806 3.14287
H -9.21252 -0.35501 2.37089
H -10.62352 0.51289 0.63861
H -10.72993 -1.50128 4.35063
H -11.36948 0.69324 5.07173
H -9.77374 0.98934 4.26542
H -12.4086 2.00361 3.59983
H -10.99876 2.13998 2.45044
H -13.10533 0.63267 1.7105
O -5.84871 -4.83164 4.8195
C -2.00823 -2.99503 0.91823
C -3.57531 -6.96785 1.45906
C -3.06505 -8.36599 1.80507
C -4.12298 -8.81682 2.79132
C -5.0941 -7.63283 2.7142
O -4.96499 -7.17306 1.39099
H -2.39479 -6.27518 3.14782
H -4.23878 -6.7395 4.54465
H -1.74972 -2.32179 1.76336
H -3.09066 -6.60843 0.52524
H -3.15755 -8.98188 0.8816
H -2.01804 -8.41806 2.17367
H -4.59752 -9.74329 2.39829
H -3.76398 -8.9837 3.82995
H -6.11355 -7.94398 3.03228
H -2.893 -2.59645 0.3771
H -1.14913 -3.03536 0.21767
H -12.10632 -4.50555 0.00997
H -12.15662 -3.37611 -1.39704
H -13.50872 -3.38634 -0.1803
H -9.18185 -4.84698 1.86132
H -8.84023 -4.89746 3.60636
H -6.96209 -3.76977 1.4739
H -6.82283 -3.358 3.19975
$end

$opt
CONSTRAINT
tors           1           2           3           4     +10.625
tors           3           4           5           6     +86.418
tors           4           5           6           7    -153.723
tors           5           6           7           8    -119.116
tors           6           7           8           9    +157.547
tors           7           8           9          10     +96.221
tors           8           9          10          11    -170.058
tors           9          10          11          12    -162.652
tors          11          12          13          14    +172.098
ENDCONSTRAINT
$end

$rem
JOBTYPE                   OPT
METHOD                    B3LYP
DFT_D                     d3_op
BASIS                     STO-3G
GEOM_OPT_MAX_CYCLES       100
GEOM_OPT_TOL_GRADIENT     300
GEOM_OPT_TOL_DISPLACEMENT 1200
GEOM_OPT_TOL_ENERGY       100
SYMMETRY                  False
THRESH                    12
SCF_CONVERGENCE           8
MAX_SUB_FILE_NUM          128
MEM_STATIC                400
MEM_TOTAL                 4000
$end
--------------------------------------------------------------
 Adding empirical dispersion correction 
 ----------------------------------------------------------------
 Doing -D3(op) with
 s6 =   1.00000
 s8 =   0.78311
 a1 =   0.30000
 a2 =   4.25000
 n  =  10.00000
 -D3 energy without 3body term =     -0.0654161291 hartrees
 ----------------------------------------------------------------
             Standard Nuclear Orientation (Angstroms)
    I     Atom           X                Y                Z
 ----------------------------------------------------------------
    1      O       3.1186657994    -2.0694516189     0.3980244334
    2      C       4.1764970223    -1.5601131708     0.7394533210
    3      C       4.9486910713    -0.5298772553    -0.0548533588
    4      C       4.2418900134     0.0960702313    -1.2683180036
    5      C       2.7794133060    -0.2461972424    -1.4475199489
    6      O       2.0085079496     0.6181967894    -0.7236885321
    7      C       0.7459721738     0.0620389721    -0.3416280052
    8      C      -0.3923405469     0.8841489515    -0.9370430281
    9      O      -1.5838262689     0.0859250855    -1.0149127882
   10      C      -2.4517242012     0.2315462923     0.0169224825
   11      C      -3.5585973430    -0.7957435460     0.0041932916
   12      C      -4.7775017877    -0.4447440460     0.8698300306
   13      C      -4.8733880096     0.9985990308     1.3218106798
   14      O      -5.8294845917     1.4995722210     1.8957979016
   15      O       4.7675666239    -1.9915382292     1.8846571386
   16      O      -4.0055883352     1.9458906400     0.8708713079
   17      O      -2.0126545209     0.5939025877     1.1066551567
   18      C      -4.0539888862     3.2994679926     1.1472292085
   19      C      -4.2514313164    -0.9626066354    -1.3697552538
   20      C      -4.8992710732    -2.3442044606    -1.4493416965
   21      C      -6.0465988995    -2.1755731658    -0.4742413823
   22      C      -5.9071132084    -0.6851023864    -0.1437632533
   23      O      -5.3746481134    -0.1180740222    -1.3156008763
   24      H      -3.0976361530    -1.7684648778     0.2905744200
   25      H      -4.8403255645    -1.0755896752     1.7831972717
   26      H      -3.5752334130    -0.8154076916    -2.2391333389
   27      H      -5.3192596642    -2.4423711668    -2.4763879031
   28      H      -4.2277378626    -3.2063198201    -1.2479092564
   29      H      -6.9982325002    -2.3795246145    -1.0133670391
   30      H      -5.9850808235    -2.7984795896     0.4444887094
   31      H      -6.8806023578    -0.2696881761     0.1987510981
   32      O       2.3498564228    -0.9467703327    -2.3553219340
   33      C       4.2281835900    -2.9400577980     2.7280846668
   34      C       5.2561915637     0.7479611946     0.7600269737
   35      C       6.4938742163     1.4377391947     0.1879853585
   36      C       5.9401623938     1.9764431743    -1.1152237100
   37      C       4.4629695527     1.5936167411    -0.9662300819
   38      O       4.2347118309     1.6531264375     0.4206006784
   39      H       5.9125942149    -1.0157447236    -0.3280017623
   40      H       4.7459386559    -0.2079248735    -2.2130397269
   41      H       4.0976994442    -3.9025992498     2.1888147197
   42      H       5.3966457628     0.5585578659     1.8465292279
   43      H       6.7229706532     2.2982645787     0.8570776309
   44      H       7.3988539680     0.7999593961     0.0928235882
   45      H       6.0633199783     3.0822584200    -1.1187315676
   46      H       6.3841801771     1.5406754773    -2.0363300739
   47      H       3.8252435710     2.2477411367    -1.6008121166
   48      H       3.2478058781    -2.5915593961     3.1178461991
   49      H       4.9163864322    -3.0998759078     3.5832446824
   50      H      -3.2051205203     3.8029484724     0.6410089647
   51      H      -3.9687552346     3.4684778710     2.2418941522
   52      H      -5.0035575117     3.7354015889     0.7699324452
   53      H      -0.5214717688     1.8736933996    -0.4418577357
   54      H      -0.1211454235     1.0996576964    -1.9926719101
   55      H       0.6538393098     0.0292461153     0.7641556067
   56      H       0.6224885951    -0.9900411304    -0.6944659160
 ----------------------------------------------------------------
 Molecular Point Group                 C1    NOp =  1
 Largest Abelian Subgroup              C1    NOp =  1
 Nuclear Repulsion Energy =  3096.5216900378 hartrees
 There are      113 alpha and      113 beta electrons
 Requested basis set is STO-3G
 There are 86 shells and 176 basis functions

 Total QAlloc Memory Limit   4000 MB
 Mega-Array Size       392 MB
 MEM_STATIC part       400 MB
 A cutoff of  1.0D-12 yielded   1995 shell pairs
 There are      9315 function pairs
 
 -------------------------------------------------------
 OpenMP Integral Computing Module                       
 Release: version 1.0, May 2013, Q-Chem Inc. Pittsburgh 
 -------------------------------------------------------
 Integral Job Info:
 Integral job number is                      11
 Integral operator is                         1
 short-range coefficients                     0
 long-range coefficients              100000000
 Omega coefficients                           0
 if combine SR and LR in K                    0
 Integral screening is                        0
 Integral computing path is                   2
 max size of driver memory is            800000
 size of driver memory is                 45569
 size of scratch memory is              1046100
 max col of scratch BK array                289
 max len of scratch array in speh3           22
 max len of scratch index in speh4            8
 max int batch size is                      520
 min int batch size is                       52
 fixed nKL is                                52
 max L of basis functions is                  1
 order of int derivative is                   0
 number of shells is                         86
 number of basis is                         176
 number of cartesian basis is               176
 number of contracted shell pairs          1995
 number of primitive shell pairs          10632
 maxK2 (contraction) of shell pair            9
 max number of K2 of shell pair               1
 max number of CS2 of shell pair            287
 max number of PS2 of shell pair           1254
 mem total for path MDJ                   52138
 -------------------------------------------------------
 Smallest overlap matrix eigenvalue = 1.94E-01

 Scale SEOQF with 1.000000e-02/1.000000e-01/1.000000e-01

 Standard Electronic Orientation quadrupole field applied
 Nucleus-field energy     =     0.0000000164 hartrees
 Guess from superposition of atomic densities
 Warning:  Energy on first SCF cycle will be non-variational
 A restricted hybrid HF-DFT SCF calculation will be
 performed using Pulay DIIS extrapolation
 Exchange:     0.2000 Hartree-Fock + 0.0800 Slater + 0.7200 B88
 Correlation:  0.1900 VWN1RPA + 0.8100 LYP
 Using SG-1 standard quadrature grid
 Dispersion:   Grimme D3
 SCF converges when DIIS error is below 1.0E-08
 using 48 threads for integral computing
 -------------------------------------------------------
 OpenMP Integral computing Module                
 Release: version 1.0, May 2013, Q-Chem Inc. Pittsburgh 
 -------------------------------------------------------
 -------------------------------------------------------
 OpenMP BLAS3 based DFT computing Module                
 Release: version 1.0, May 2013, Q-Chem Inc. Pittsburgh 
 -------------------------------------------------------
 ---------------------------------------
  Cycle       Energy         DIIS Error
 ---------------------------------------
    1   -1509.4457988244      8.29E-02
    2   -1509.5592843393      1.05E-02
    3   -1507.5517161517      2.50E-02
    4   -1510.0595440270      3.47E-03
    5   -1510.1071234543      1.23E-03
    6   -1510.1136582200      3.31E-04
    7   -1510.1140598706      1.39E-04
    8   -1510.1141416708      2.92E-05
    9   -1510.1141454519      5.39E-06
   10   -1510.1141455691      2.28E-06
   11   -1510.1141455878      1.11E-06
   12   -1510.1141455931      2.04E-07
   13   -1510.1141455933      5.75E-08
   14   -1510.1141455932      1.17E-08
   15   -1510.1141455933      6.41E-09 Convergence criterion met
 ---------------------------------------
 SCF time:  CPU 125.86 s  wall 2.69 s
 SCF   energy in the final basis set = -1510.11414559
 Total energy in the final basis set = -1510.11414559
 
 --------------------------------------------------------------
 
                    Orbital Energies (a.u.)
 --------------------------------------------------------------
 
 Alpha MOs
 -- Occupied --
-18.939 -18.937 -18.930 -18.915 -18.900 -18.897 -18.867 -18.864
-18.844 -18.839 -10.120 -10.107 -10.103 -10.102 -10.088 -10.075
-10.074 -10.070 -10.069 -10.068 -10.068 -10.061 -10.045 -10.044
-10.036 -10.034 -10.018 -10.016 -10.015 -10.012  -1.052  -1.043
 -1.037  -1.033  -1.023  -1.022  -0.956  -0.947  -0.937  -0.927
 -0.783  -0.781  -0.745  -0.741  -0.735  -0.725  -0.708  -0.686
 -0.672  -0.629  -0.607  -0.588  -0.555  -0.550  -0.539  -0.535
 -0.530  -0.524  -0.504  -0.492  -0.488  -0.478  -0.460  -0.455
 -0.450  -0.447  -0.436  -0.432  -0.424  -0.420  -0.418  -0.411
 -0.406  -0.398  -0.397  -0.387  -0.372  -0.367  -0.355  -0.352
 -0.349  -0.347  -0.345  -0.337  -0.330  -0.323  -0.321  -0.316
 -0.311  -0.309  -0.305  -0.301  -0.300  -0.295  -0.285  -0.282
 -0.274  -0.247  -0.241  -0.236  -0.235  -0.232  -0.211  -0.181
 -0.180  -0.162  -0.157  -0.156  -0.153  -0.148  -0.145  -0.129
 -0.122
 -- Virtual --
  0.102   0.107   0.111   0.121   0.240   0.253   0.262   0.267
  0.275   0.318   0.323   0.328   0.340   0.344   0.349   0.359
  0.369   0.377   0.381   0.383   0.389   0.391   0.395   0.399
  0.402   0.407   0.411   0.411   0.415   0.416   0.421   0.430
  0.433   0.435   0.437   0.439   0.450   0.453   0.457   0.460
  0.464   0.467   0.474   0.476   0.481   0.483   0.486   0.490
  0.497   0.504   0.514   0.521   0.530   0.535   0.552   0.561
  0.570   0.579   0.592   0.672   0.684   0.692   0.694
 --------------------------------------------------------------
 
          Ground-State Mulliken Net Atomic Charges

     Atom                 Charge (a.u.)
  ----------------------------------------
      1 O                    -0.235120
      2 C                     0.240384
      3 C                    -0.082058
      4 C                    -0.083733
      5 C                     0.243865
      6 O                    -0.194487
      7 C                    -0.038236
      8 C                    -0.034684
      9 O                    -0.192212
     10 C                     0.235831
     11 C                    -0.079348
     12 C                    -0.076760
     13 C                     0.238949
     14 O                    -0.244278
     15 O                    -0.212769
     16 O                    -0.211517
     17 O                    -0.234446
     18 C                    -0.093215
     19 C                     0.036464
     20 C                    -0.142411
     21 C                    -0.143951
     22 C                     0.040282
     23 O                    -0.213571
     24 H                     0.088978
     25 H                     0.092829
     26 H                     0.089606
     27 H                     0.074120
     28 H                     0.071799
     29 H                     0.076544
     30 H                     0.072081
     31 H                     0.090179
     32 O                    -0.223167
     33 C                    -0.097818
     34 C                     0.039163
     35 C                    -0.141793
     36 C                    -0.144314
     37 C                     0.042308
     38 O                    -0.207362
     39 H                     0.089460
     40 H                     0.084483
     41 H                     0.088269
     42 H                     0.086757
     43 H                     0.074903
     44 H                     0.071929
     45 H                     0.076063
     46 H                     0.072246
     47 H                     0.085796
     48 H                     0.088422
     49 H                     0.095775
     50 H                     0.091768
     51 H                     0.087852
     52 H                     0.086549
     53 H                     0.094652
     54 H                     0.089487
     55 H                     0.091381
     56 H                     0.098074
  ----------------------------------------
  Sum of atomic charges =    -0.000000

 -----------------------------------------------------------------
                    Cartesian Multipole Moments
 -----------------------------------------------------------------
    Charge (ESU x 10^10)
                 0.0000
    Dipole Moment (Debye)
         X       3.2287      Y      -1.1912      Z       0.5531
       Tot       3.4856
    Quadrupole Moments (Debye-Ang)
        XX    -150.6706     XY       6.8623     YY    -152.2357
        XZ       5.6759     YZ      -9.4248     ZZ    -162.4360
    Octopole Moments (Debye-Ang^2)
       XXX     179.4496    XXY     -64.3169    XYY     -12.4807
       YYY      16.9759    XXZ     -23.3945    XYZ     -18.1040
       YYZ      17.3073    XZZ      31.7990    YZZ      -8.1284
       ZZZ      26.7909
    Hexadecapole Moments (Debye-Ang^3)
      XXXX  -18206.8861   XXXY     179.2687   XXYY   -3341.4906
      XYYY    -257.8007   YYYY   -2379.8753   XXXZ     149.2134
      XXYZ    -128.4416   XYYZ      48.0829   YYYZ     -25.4313
      XXZZ   -3383.6166   XYZZ     -36.5592   YYZZ    -646.3538
      XZZZ      96.8021   YZZZ     -51.8464   ZZZZ   -1572.8734
 -----------------------------------------------------------------
 Calculating analytic gradient of the SCF energy
 Gradient of SCF Energy
            1           2           3           4           5           6
    1   0.0674656   0.0217958  -0.0417175  -0.0335758  -0.0194219   0.0043281
    2   0.0181513   0.0139114   0.0136545   0.0182072  -0.0006003  -0.0382962
    3   0.0309618   0.0040718  -0.0059090   0.0353982   0.0155307  -0.0451264
            7           8           9          10          11          12
    1   0.0147380  -0.0037585   0.0054606  -0.0139413   0.0033963  -0.0233746
    2   0.0303065  -0.0325673   0.0139714   0.0300045   0.0247606   0.0192724
    3  -0.0188074   0.0210041   0.0804857  -0.0472290   0.0188447  -0.0342380
           13          14          15          16          17          18
    1   0.0175415   0.0786236  -0.1050776  -0.0972975  -0.0188873   0.0248139
    2  -0.0440416   0.0014345  -0.0644336   0.0581989  -0.0414459  -0.0387262
    3  -0.0065268  -0.0555216  -0.0097995   0.0780968  -0.0583163  -0.0242260
           19          20          21          22          23          24
    1  -0.0560003  -0.0098442   0.0299070   0.0602564   0.0253386   0.0021129
    2   0.0258829   0.0413462   0.0334581   0.0024448  -0.0664001  -0.0073500
    3   0.0349523   0.0311340  -0.0164425  -0.0413544   0.0495780  -0.0024462
           25          26          27          28          29          30
    1   0.0019741   0.0036873  -0.0073645   0.0033072  -0.0030901   0.0014847
    2  -0.0015992  -0.0126588   0.0052336  -0.0076938  -0.0019198  -0.0012534
    3   0.0058270  -0.0034160  -0.0071684   0.0009869  -0.0128749   0.0089660
           31          32          33          34          35          36
    1  -0.0054664   0.0223978   0.0407339  -0.0389493  -0.0480678  -0.0233027
    2  -0.0091020   0.0440077   0.0393738   0.0284938  -0.0076074  -0.0211489
    3   0.0069031   0.0330082  -0.0182772  -0.0519734  -0.0204006   0.0363056
           37          38          39          40          41          42
    1   0.0208806   0.0573508   0.0055631   0.0017694   0.0056857   0.0128399
    2  -0.0241012  -0.0424594  -0.0030803  -0.0008783   0.0052579  -0.0021670
    3   0.0614902  -0.0494354   0.0030056  -0.0062746  -0.0044771   0.0014286
           43          44          45          46          47          48
    1  -0.0045401   0.0074816   0.0033466   0.0002078   0.0058767   0.0044537
    2   0.0097834  -0.0033158   0.0088921  -0.0049414   0.0006677   0.0070828
    3   0.0037912  -0.0012579   0.0089390  -0.0073620  -0.0121755  -0.0033550
           49          50          51          52          53          54
    1  -0.0016623  -0.0011223   0.0030048   0.0023309   0.0033312  -0.0000470
    2  -0.0025362   0.0041356  -0.0082820  -0.0078670   0.0062721  -0.0005792
    3   0.0019915   0.0012401  -0.0018578  -0.0039327  -0.0054236   0.0016817
           55          56
    1  -0.0036835  -0.0032938
    2  -0.0035229  -0.0036302
    3  -0.0026562   0.0026388
 Max gradient component =       1.051E-01
 RMS gradient           =       2.889E-02
 Gradient time:  CPU 30.85 s  wall 0.67 s
 Geometry Optimization Parameters
   NAtoms,    NIC,     NZ,  NCons,   NDum,   NFix, NCnnct, MaxDiis
       56     458       0       9       0       0       0       0


** CONSTRAINED OPTIMIZATION IN DELOCALIZED INTERNAL COORDINATES **
   Searching for a Minimum

   Optimization Cycle:   1

                       Coordinates (Angstroms)
     ATOM                X               Y               Z
      1  O         3.1186657994   -2.0694516189    0.3980244334
      2  C         4.1764970223   -1.5601131708    0.7394533210
      3  C         4.9486910713   -0.5298772553   -0.0548533588
      4  C         4.2418900134    0.0960702313   -1.2683180036
      5  C         2.7794133060   -0.2461972424   -1.4475199489
      6  O         2.0085079496    0.6181967894   -0.7236885321
      7  C         0.7459721738    0.0620389721   -0.3416280052
      8  C        -0.3923405469    0.8841489515   -0.9370430281
      9  O        -1.5838262689    0.0859250855   -1.0149127882
     10  C        -2.4517242012    0.2315462923    0.0169224825
     11  C        -3.5585973430   -0.7957435460    0.0041932916
     12  C        -4.7775017877   -0.4447440460    0.8698300306
     13  C        -4.8733880096    0.9985990308    1.3218106798
     14  O        -5.8294845917    1.4995722210    1.8957979016
     15  O         4.7675666239   -1.9915382292    1.8846571386
     16  O        -4.0055883352    1.9458906400    0.8708713079
     17  O        -2.0126545209    0.5939025877    1.1066551567
     18  C        -4.0539888862    3.2994679926    1.1472292085
     19  C        -4.2514313164   -0.9626066354   -1.3697552538
     20  C        -4.8992710732   -2.3442044606   -1.4493416965
     21  C        -6.0465988995   -2.1755731658   -0.4742413823
     22  C        -5.9071132084   -0.6851023864   -0.1437632533
     23  O        -5.3746481134   -0.1180740222   -1.3156008763
     24  H        -3.0976361530   -1.7684648778    0.2905744200
     25  H        -4.8403255645   -1.0755896752    1.7831972717
     26  H        -3.5752334130   -0.8154076916   -2.2391333389
     27  H        -5.3192596642   -2.4423711668   -2.4763879031
     28  H        -4.2277378626   -3.2063198201   -1.2479092564
     29  H        -6.9982325002   -2.3795246145   -1.0133670391
     30  H        -5.9850808235   -2.7984795896    0.4444887094
     31  H        -6.8806023578   -0.2696881761    0.1987510981
     32  O         2.3498564228   -0.9467703327   -2.3553219340
     33  C         4.2281835900   -2.9400577980    2.7280846668
     34  C         5.2561915637    0.7479611946    0.7600269737
     35  C         6.4938742163    1.4377391947    0.1879853585
     36  C         5.9401623938    1.9764431743   -1.1152237100
     37  C         4.4629695527    1.5936167411   -0.9662300819
     38  O         4.2347118309    1.6531264375    0.4206006784
     39  H         5.9125942149   -1.0157447236   -0.3280017623
     40  H         4.7459386559   -0.2079248735   -2.2130397269
     41  H         4.0976994442   -3.9025992498    2.1888147197
     42  H         5.3966457628    0.5585578659    1.8465292279
     43  H         6.7229706532    2.2982645787    0.8570776309
     44  H         7.3988539680    0.7999593961    0.0928235882
     45  H         6.0633199783    3.0822584200   -1.1187315676
     46  H         6.3841801771    1.5406754773   -2.0363300739
     47  H         3.8252435710    2.2477411367   -1.6008121166
     48  H         3.2478058781   -2.5915593961    3.1178461991
     49  H         4.9163864322   -3.0998759078    3.5832446824
     50  H        -3.2051205203    3.8029484724    0.6410089647
     51  H        -3.9687552346    3.4684778710    2.2418941522
     52  H        -5.0035575117    3.7354015889    0.7699324452
     53  H        -0.5214717688    1.8736933996   -0.4418577357
     54  H        -0.1211454235    1.0996576964   -1.9926719101
     55  H         0.6538393098    0.0292461153    0.7641556067
     56  H         0.6224885951   -0.9900411304   -0.6944659160
   Point Group: c1    Number of degrees of freedom:   162


   Energy is  -1510.114145593

              Constraints and their Current Values
                                        Value     Constraint
   Dihedral:        1   2   3   4       10.625       10.625
   Dihedral:        3   4   5   6       86.418       86.418
   Dihedral:        4   5   6   7     -153.723     -153.723
   Dihedral:        5   6   7   8     -119.116     -119.116
   Dihedral:        6   7   8   9      157.547      157.547
   Dihedral:        7   8   9  10       96.221       96.221
   Dihedral:        8   9  10  11     -170.059     -170.058
   Dihedral:        9  10  11  12     -162.652     -162.652
   Dihedral:       11  12  13  14      172.098      172.098

 Attempting to Generate Delocalized Internal Coordinates

   Using Lagrange Multiplier Algorithm


169 Hessian modes will be used to form the next step
  Hessian Eigenvalues:
    -0.977753   -0.977753   -0.977753   -0.977753   -0.977753   -0.977753
    -0.977753   -0.977753    0.045000    0.045000    0.045000    0.045000
     0.045065    0.045588    0.045602    0.045717    0.046417    0.048868
     0.048882    0.051087    0.054164    0.059936    0.059961    0.062372
     0.062873    0.066938    0.067085    0.067577    0.067911    0.069125
     0.070639    0.072378    0.073904    0.074216    0.075672    0.075723
     0.076719    0.077094    0.082515    0.082601    0.083284    0.083373
     0.084362    0.084462    0.085663    0.085715    0.085856    0.086607
     0.086641    0.087116    0.088483    0.088768    0.089021    0.089084
     0.089876    0.089944    0.093848    0.093912    0.096626    0.096674
     0.111567    0.111591    0.114586    0.114651    0.115893    0.115995
     0.116716    0.117131    0.117964    0.119093    0.119696    0.122715
     0.124173    0.131133    0.131145    0.131759    0.139345    0.141079
     0.160000    0.160000    0.160000    0.160000    0.160000    0.160000
     0.171142    0.171992    0.172015    0.173488    0.213763    0.219963
     0.219992    0.236468    0.239656    0.241362    0.247308    0.249725
     0.250000    0.250000    0.250000    0.250000    0.250000    0.250000
     0.250000    0.250000    0.258213    0.258792    0.267014    0.267076
     0.278690    0.278736    0.281002    0.283790    0.295202    0.295213
     0.298741    0.308048    0.310698    0.310860    0.313320    0.319194
     0.321762    0.321869    0.321946    0.321952    0.322367    0.322747
     0.323202    0.323272    0.323410    0.323551    0.324077    0.324107
     0.324214    0.324394    0.324713    0.324729    0.324750    0.324856
     0.324933    0.324942    0.325039    0.325062    0.325895    0.326782
     0.326847    0.369118    0.369267    0.384067    0.384397    0.401019
     0.407703    0.486754    0.492621    0.517927    0.526380    0.531426
     0.537339    0.913067    0.934124    0.941950    0.942752    1.022753
     1.022753    1.022753    1.022753    1.022753    1.022753    1.022753
     1.022753

 Minimum Search - Taking P-RFO Step
 Searching for Lamda that Maximizes Along the Constraint modes Only
 Value Taken    Lamda =   0.00118389
 Searching for Lamda that Minimizes Along All other modes
 Value Taken    Lamda =  -0.18692543
 Calculated Step too Large.  Step scaled by  0.498298
 Step Taken.  Stepsize is  0.300000

                             Maximum     Tolerance    Cnvgd?
         Gradient            0.129805       0.000300      NO
         Displacement        0.109369       0.001200      NO
         Energy change     *********       0.000001      NO


 New Cartesian Coordinates Obtained by Inverse Iteration

 Displacement from previous Coordinates is:  1.401533
 Adding empirical dispersion correction 
 ----------------------------------------------------------------
 Doing -D3(op) with
 s6 =   1.00000
 s8 =   0.78311
 a1 =   0.30000
 a2 =   4.25000
 n  =  10.00000
 -D3 energy without 3body term =     -0.0649642257 hartrees
 ----------------------------------------------------------------
             Standard Nuclear Orientation (Angstroms)
    I     Atom           X                Y                Z
 ----------------------------------------------------------------
    1      O       3.1163047581    -2.0487149170     0.3443005324
    2      C       4.1952395215    -1.5647063361     0.7178594126
    3      C       5.0187087258    -0.5408463949    -0.0613227270
    4      C       4.3232719475     0.1006658686    -1.2885578674
    5      C       2.8378115063    -0.2449073954    -1.4680293843
    6      O       2.0513147874     0.6339702672    -0.7322942109
    7      C       0.7750121597     0.0754860482    -0.3437945875
    8      C      -0.3822329106     0.9033882235    -0.9437555729
    9      O      -1.5880287178     0.1030989762    -1.0203680973
   10      C      -2.4553618396     0.2718810426     0.0437363396
   11      C      -3.5780464269    -0.7740966135     0.0230125649
   12      C      -4.8232541182    -0.4395362582     0.8995833921
   13      C      -4.9870579082     1.0184673403     1.3551776264
   14      O      -5.9973127188     1.4542555472     1.9331722418
   15      O       4.7974178515    -1.9938120339     1.8790690038
   16      O      -4.1155456163     1.9730138703     0.8668558287
   17      O      -2.0090807777     0.6736695549     1.1359514868
   18      C      -4.2620449123     3.3393122161     1.1570713671
   19      C      -4.2702217980    -0.9601219197    -1.3693488993
   20      C      -4.8982781930    -2.3733565348    -1.4405535795
   21      C      -6.0657444741    -2.2202500528    -0.4549938988
   22      C      -5.9615728550    -0.7060786039    -0.1286502913
   23      O      -5.4293354273    -0.1181894477    -1.3222447371
   24      H      -3.1037859748    -1.7338136739     0.3180129528
   25      H      -4.8742010679    -1.0708813480     1.8098411780
   26      H      -3.5942750402    -0.7977522659    -2.2340770640
   27      H      -5.3091459354    -2.4918822088    -2.4641335375
   28      H      -4.2100706037    -3.2148089568    -1.2313193742
   29      H      -7.0119416020    -2.4468901639    -0.9847213974
   30      H      -5.9906380540    -2.8351669706     0.4629982380
   31      H      -6.9406495314    -0.3056558670     0.2098853005
   32      O       2.3981291249    -0.9669575103    -2.3724947366
   33      C       4.1780620001    -2.9533440576     2.6981870349
   34      C       5.3496622470     0.7428588367     0.7718304077
   35      C       6.6210504935     1.4076212896     0.1899419530
   36      C       6.0707933859     1.9622660692    -1.1360242477
   37      C       4.5642123765     1.6137805804    -0.9859896449
   38      O       4.3289630721     1.6845273667     0.4245018157
   39      H       5.9737371757    -1.0415099000    -0.3274072296
   40      H       4.8257231623    -0.2116154901    -2.2275354817
   41      H       4.0270762852    -3.9097742462     2.1501989472
   42      H       5.4701254961     0.5506022988     1.8584446816
   43      H       6.8754205333     2.2588533473     0.8541100185
   44      H       7.5052969037     0.7479212420     0.0980328874
   45      H       6.2181719800     3.0602270565    -1.1515089278
   46      H       6.5039840225     1.5127618969    -2.0506129122
   47      H       3.9347714323     2.2762592474    -1.6165749514
   48      H       3.1941334182    -2.5881752843     3.0674150541
   49      H       4.8350777531    -3.1446267721     3.5706548963
   50      H      -3.4383861372     3.8893689460     0.6582504761
   51      H      -4.2004985457     3.5230628040     2.2524574735
   52      H      -5.2321733124     3.7290339164     0.7758720077
   53      H      -0.5123367092     1.8882246879    -0.4426977998
   54      H      -0.1149933530     1.1209811901    -2.0008956976
   55      H       0.6891915114     0.0444887773     0.7637021697
   56      H       0.6563551987    -0.9750945335    -0.6978892874
 ----------------------------------------------------------------
 Molecular Point Group                 C1    NOp =  1
 Largest Abelian Subgroup              C1    NOp =  1
 Nuclear Repulsion Energy =  3060.7261065777 hartrees
 There are      113 alpha and      113 beta electrons
 Applying Cartesian multipole field
    Component          Value
    ---------          -----
     (2,0,0)        1.00000E-12
     (0,2,0)        2.00000E-11
     (0,0,2)       -3.00000E-11
 Nucleus-field energy     =     0.0000000171 hartrees
 Requested basis set is STO-3G
 There are 86 shells and 176 basis functions
 A cutoff of  1.0D-12 yielded   1987 shell pairs
 There are      9292 function pairs
 Smallest overlap matrix eigenvalue = 2.02E-01
 Guess MOs from SCF MO coefficient file
 Reading MOs from coefficient file
 Reading MOs from coefficient file
 A restricted hybrid HF-DFT SCF calculation will be
 performed using Pulay DIIS extrapolation
 Exchange:     0.2000 Hartree-Fock + 0.0800 Slater + 0.7200 B88
 Correlation:  0.1900 VWN1RPA + 0.8100 LYP
 Using SG-1 standard quadrature grid
 Dispersion:   Grimme D3
 SCF converges when DIIS error is below 1.0E-08
 Geometry optimization detected.  Setting ReadMinima to 0
 Setting SaveMinima to 0
 using 48 threads for integral computing
 -------------------------------------------------------
 OpenMP Integral computing Module                
 Release: version 1.0, May 2013, Q-Chem Inc. Pittsburgh 
 -------------------------------------------------------
 -------------------------------------------------------
 OpenMP BLAS3 based DFT computing Module                
 Release: version 1.0, May 2013, Q-Chem Inc. Pittsburgh 
 -------------------------------------------------------
 ---------------------------------------
  Cycle       Energy         DIIS Error
 ---------------------------------------
    1   -1510.0170624260      3.46E-03
    2   -1510.1850010696      9.07E-04
    3   -1510.1789131444      1.50E-03
    4   -1510.1883972894      2.94E-04
    5   -1510.1888006088      5.46E-05
    6   -1510.1888124094      2.40E-05
    7   -1510.1888142536      1.32E-05
    8   -1510.1888150194      2.10E-06
    9   -1510.1888150426      5.66E-07
   10   -1510.1888150433      4.33E-07
   11   -1510.1888150440      8.46E-08
   12   -1510.1888150441      1.87E-08
   13   -1510.1888150441      9.79E-09 Convergence criterion met
 ---------------------------------------
 SCF time:  CPU 92.31 s  wall 1.93 s
 SCF   energy in the final basis set = -1510.18881504
 Total energy in the final basis set = -1510.18881504
 
 --------------------------------------------------------------
 
                    Orbital Energies (a.u.)
 --------------------------------------------------------------
 
 Alpha MOs
 -- Occupied --
-18.945 -18.934 -18.924 -18.923 -18.898 -18.894 -18.871 -18.862
-18.849 -18.844 -10.116 -10.101 -10.098 -10.098 -10.084 -10.072
-10.071 -10.067 -10.066 -10.066 -10.064 -10.059 -10.043 -10.042
-10.036 -10.034 -10.018 -10.017 -10.015 -10.012  -1.042  -1.029
 -1.022  -1.019  -1.004  -1.003  -0.951  -0.937  -0.931  -0.924
 -0.776  -0.771  -0.737  -0.733  -0.727  -0.717  -0.700  -0.681
 -0.667  -0.622  -0.603  -0.584  -0.552  -0.546  -0.538  -0.533
 -0.525  -0.518  -0.498  -0.488  -0.481  -0.471  -0.453  -0.450
 -0.444  -0.442  -0.430  -0.427  -0.419  -0.415  -0.413  -0.404
 -0.399  -0.394  -0.392  -0.381  -0.367  -0.362  -0.352  -0.349
 -0.345  -0.344  -0.342  -0.334  -0.329  -0.322  -0.318  -0.316
 -0.309  -0.307  -0.302  -0.299  -0.297  -0.291  -0.282  -0.279
 -0.270  -0.246  -0.241  -0.239  -0.235  -0.234  -0.218  -0.183
 -0.179  -0.163  -0.157  -0.156  -0.151  -0.148  -0.143  -0.132
 -0.130
 -- Virtual --
  0.097   0.101   0.107   0.114   0.232   0.250   0.257   0.261
  0.271   0.303   0.311   0.317   0.333   0.340   0.348   0.350
  0.358   0.370   0.373   0.375   0.378   0.382   0.386   0.388
  0.392   0.398   0.400   0.402   0.408   0.414   0.416   0.419
  0.425   0.428   0.430   0.436   0.437   0.443   0.443   0.453
  0.457   0.460   0.462   0.465   0.468   0.473   0.475   0.480
  0.481   0.494   0.501   0.507   0.515   0.517   0.530   0.553
  0.560   0.561   0.566   0.646   0.660   0.661   0.670
 --------------------------------------------------------------
 
          Ground-State Mulliken Net Atomic Charges

     Atom                 Charge (a.u.)
  ----------------------------------------
      1 O                    -0.225629
      2 C                     0.229573
      3 C                    -0.081147
      4 C                    -0.082254
      5 C                     0.233286
      6 O                    -0.190680
      7 C                    -0.040914
      8 C                    -0.038949
      9 O                    -0.185924
     10 C                     0.224477
     11 C                    -0.078152
     12 C                    -0.075672
     13 C                     0.225956
     14 O                    -0.235351
     15 O                    -0.199142
     16 O                    -0.197236
     17 O                    -0.225577
     18 C                    -0.101270
     19 C                     0.031898
     20 C                    -0.143315
     21 C                    -0.144787
     22 C                     0.034955
     23 O                    -0.204612
     24 H                     0.088253
     25 H                     0.090615
     26 H                     0.089767
     27 H                     0.074777
     28 H                     0.072577
     29 H                     0.076553
     30 H                     0.072630
     31 H                     0.089633
     32 O                    -0.218964
     33 C                    -0.105565
     34 C                     0.034787
     35 C                    -0.142828
     36 C                    -0.144856
     37 C                     0.037472
     38 O                    -0.198846
     39 H                     0.088890
     40 H                     0.084233
     41 H                     0.088946
     42 H                     0.086643
     43 H                     0.075403
     44 H                     0.072687
     45 H                     0.076443
     46 H                     0.072829
     47 H                     0.085960
     48 H                     0.089107
     49 H                     0.095705
     50 H                     0.092516
     51 H                     0.087900
     52 H                     0.087072
     53 H                     0.094393
     54 H                     0.088774
     55 H                     0.089627
     56 H                     0.097331
  ----------------------------------------
  Sum of atomic charges =     0.000000

 -----------------------------------------------------------------
                    Cartesian Multipole Moments
 -----------------------------------------------------------------
    Charge (ESU x 10^10)
                 0.0000
    Dipole Moment (Debye)
         X       3.2361      Y      -1.2326      Z       0.6732
       Tot       3.5277
    Quadrupole Moments (Debye-Ang)
        XX    -150.4433     XY       5.7006     YY    -151.3693
        XZ       5.2832     YZ      -9.4581     ZZ    -162.3424
    Octopole Moments (Debye-Ang^2)
       XXX     189.2346    XXY     -59.2851    XYY     -16.9735
       YYY      15.5797    XXZ     -24.7669    XYZ     -20.6370
       YYZ      18.4194    XZZ      31.8254    YZZ      -8.2450
       ZZZ      26.2707
    Hexadecapole Moments (Debye-Ang^3)
      XXXX  -18733.7857   XXXY     181.6871   XXYY   -3405.2984
      XYYY    -265.6515   YYYY   -2397.6340   XXXZ     191.9912
      XXYZ    -122.9346   XYYZ      58.6275   YYYZ     -30.3194
      XXZZ   -3481.3199   XYZZ     -33.5140   YYZZ    -649.4503
      XZZZ     145.7661   YZZZ     -57.0546   ZZZZ   -1584.4234
 -----------------------------------------------------------------
 Calculating analytic gradient of the SCF energy
 Gradient of SCF Energy
            1           2           3           4           5           6
    1   0.0331569   0.0287652  -0.0287804  -0.0215080  -0.0078299  -0.0008557
    2   0.0052444   0.0157052   0.0057266   0.0112182   0.0010282  -0.0249933
    3   0.0145325   0.0094936  -0.0085036   0.0245050   0.0187507  -0.0341768
            7           8           9          10          11          12
    1   0.0124260  -0.0066300   0.0109018  -0.0225330   0.0077080  -0.0205979
    2   0.0229624  -0.0227892   0.0073746   0.0274990   0.0086404   0.0104167
    3  -0.0106923   0.0178111   0.0530905  -0.0505856   0.0154588  -0.0186609
           13          14          15          16          17          18
    1   0.0308397   0.0309559  -0.0752165  -0.0674162  -0.0048923   0.0223252
    2  -0.0380072   0.0069806  -0.0439488   0.0462628  -0.0290210  -0.0317894
    3  -0.0091415  -0.0281492  -0.0087116   0.0518275  -0.0230271  -0.0196001
           19          20          21          22          23          24
    1  -0.0369508  -0.0044846   0.0158228   0.0378602   0.0160035   0.0023068
    2   0.0206290   0.0232071   0.0191161   0.0080051  -0.0403812  -0.0039317
    3   0.0198066   0.0192183  -0.0085281  -0.0278124   0.0309269  -0.0028086
           25          26          27          28          29          30
    1   0.0020410   0.0034816  -0.0051454   0.0013860  -0.0008295   0.0004591
    2   0.0001917  -0.0117875   0.0043201  -0.0053608  -0.0013524  -0.0000244
    3   0.0042839  -0.0019375  -0.0043190  -0.0005637  -0.0093341   0.0058352
           31          32          33          34          35          36
    1  -0.0039839   0.0119486   0.0335116  -0.0288297  -0.0263005  -0.0139892
    2  -0.0088278   0.0258820   0.0294667   0.0198311  -0.0070231  -0.0111140
    3   0.0064869   0.0132606  -0.0118381  -0.0308044  -0.0110699   0.0184568
           37          38          39          40          41          42
    1   0.0108447   0.0357177   0.0040571   0.0008162   0.0034709   0.0110695
    2  -0.0126838  -0.0273963  -0.0017297  -0.0006987   0.0016139  -0.0023155
    3   0.0415035  -0.0316402   0.0030733  -0.0038462  -0.0025690   0.0005444
           43          44          45          46          47          48
    1  -0.0038563   0.0053742   0.0026229  -0.0007535   0.0056705   0.0018334
    2   0.0063061  -0.0008962   0.0052383  -0.0025771  -0.0005348   0.0042381
    3   0.0024024  -0.0000084   0.0069556  -0.0049460  -0.0105405  -0.0009032
           49          50          51          52          53          54
    1  -0.0015784  -0.0006340   0.0024241   0.0008306   0.0030075   0.0000468
    2  -0.0025641   0.0039219  -0.0043745  -0.0037029   0.0053303  -0.0000546
    3   0.0021845   0.0008070   0.0000120  -0.0030143  -0.0054458   0.0006844
           55          56
    1  -0.0034705  -0.0026196
    2  -0.0038887  -0.0025878
    3  -0.0013920   0.0026579
 Max gradient component =       7.522E-02
 RMS gradient           =       1.941E-02
 Gradient time:  CPU 30.45 s  wall 0.65 s
 Geometry Optimization Parameters
   NAtoms,    NIC,     NZ,  NCons,   NDum,   NFix, NCnnct, MaxDiis
       56     458       0       9       0       0       0       0

 Cartesian Hessian Update
 Hessian Updated using BFGS Update


** CONSTRAINED OPTIMIZATION IN DELOCALIZED INTERNAL COORDINATES **
   Searching for a Minimum

   Optimization Cycle:   2

                       Coordinates (Angstroms)
     ATOM                X               Y               Z
      1  O         3.1163047581   -2.0487149170    0.3443005324
      2  C         4.1952395215   -1.5647063361    0.7178594126
      3  C         5.0187087258   -0.5408463949   -0.0613227270
      4  C         4.3232719475    0.1006658686   -1.2885578674
      5  C         2.8378115063   -0.2449073954   -1.4680293843
      6  O         2.0513147874    0.6339702672   -0.7322942109
      7  C         0.7750121597    0.0754860482   -0.3437945875
      8  C        -0.3822329106    0.9033882235   -0.9437555729
      9  O        -1.5880287178    0.1030989762   -1.0203680973
     10  C        -2.4553618396    0.2718810426    0.0437363396
     11  C        -3.5780464269   -0.7740966135    0.0230125649
     12  C        -4.8232541182   -0.4395362582    0.8995833921
     13  C        -4.9870579082    1.0184673403    1.3551776264
     14  O        -5.9973127188    1.4542555472    1.9331722418
     15  O         4.7974178515   -1.9938120339    1.8790690038
     16  O        -4.1155456163    1.9730138703    0.8668558287
     17  O        -2.0090807777    0.6736695549    1.1359514868
     18  C        -4.2620449123    3.3393122161    1.1570713671
     19  C        -4.2702217980   -0.9601219197   -1.3693488993
     20  C        -4.8982781930   -2.3733565348   -1.4405535795
     21  C        -6.0657444741   -2.2202500528   -0.4549938988
     22  C        -5.9615728550   -0.7060786039   -0.1286502913
     23  O        -5.4293354273   -0.1181894477   -1.3222447371
     24  H        -3.1037859748   -1.7338136739    0.3180129528
     25  H        -4.8742010679   -1.0708813480    1.8098411780
     26  H        -3.5942750402   -0.7977522659   -2.2340770640
     27  H        -5.3091459354   -2.4918822088   -2.4641335375
     28  H        -4.2100706037   -3.2148089568   -1.2313193742
     29  H        -7.0119416020   -2.4468901639   -0.9847213974
     30  H        -5.9906380540   -2.8351669706    0.4629982380
     31  H        -6.9406495314   -0.3056558670    0.2098853005
     32  O         2.3981291249   -0.9669575103   -2.3724947366
     33  C         4.1780620001   -2.9533440576    2.6981870349
     34  C         5.3496622470    0.7428588367    0.7718304077
     35  C         6.6210504935    1.4076212896    0.1899419530
     36  C         6.0707933859    1.9622660692   -1.1360242477
     37  C         4.5642123765    1.6137805804   -0.9859896449
     38  O         4.3289630721    1.6845273667    0.4245018157
     39  H         5.9737371757   -1.0415099000   -0.3274072296
     40  H         4.8257231623   -0.2116154901   -2.2275354817
     41  H         4.0270762852   -3.9097742462    2.1501989472
     42  H         5.4701254961    0.5506022988    1.8584446816
     43  H         6.8754205333    2.2588533473    0.8541100185
     44  H         7.5052969037    0.7479212420    0.0980328874
     45  H         6.2181719800    3.0602270565   -1.1515089278
     46  H         6.5039840225    1.5127618969   -2.0506129122
     47  H         3.9347714323    2.2762592474   -1.6165749514
     48  H         3.1941334182   -2.5881752843    3.0674150541
     49  H         4.8350777531   -3.1446267721    3.5706548963
     50  H        -3.4383861372    3.8893689460    0.6582504761
     51  H        -4.2004985457    3.5230628040    2.2524574735
     52  H        -5.2321733124    3.7290339164    0.7758720077
     53  H        -0.5123367092    1.8882246879   -0.4426977998
     54  H        -0.1149933530    1.1209811901   -2.0008956976
     55  H         0.6891915114    0.0444887773    0.7637021697
     56  H         0.6563551987   -0.9750945335   -0.6978892874
   Point Group: c1    Number of degrees of freedom:   162


   Energy is  -1510.188815044

              Constraints and their Current Values
                                        Value     Constraint
   Dihedral:        1   2   3   4       10.658       10.625
   Dihedral:        3   4   5   6       86.459       86.418
   Dihedral:        4   5   6   7     -153.707     -153.723
   Dihedral:        5   6   7   8     -119.117     -119.116
   Dihedral:        6   7   8   9      157.520      157.547
   Dihedral:        7   8   9  10       96.221       96.221
   Dihedral:        8   9  10  11     -170.028     -170.058
   Dihedral:        9  10  11  12     -162.721     -162.652
   Dihedral:       11  12  13  14      172.055      172.098
 Hessian Updated using BFGS Update

   Using Lagrange Multiplier Algorithm


157 Hessian modes will be used to form the next step
  Hessian Eigenvalues:
    -0.977753   -0.977753   -0.977753   -0.977753   -0.977753   -0.977753
    -0.977753   -0.977387    0.044999    0.045001    0.045065    0.045576
     0.045629    0.045719    0.046506    0.048861    0.048914    0.050867
     0.054151    0.059879    0.059967    0.062363    0.063029    0.066939
     0.067144    0.067577    0.067853    0.069122    0.070627    0.072696
     0.073898    0.074218    0.075697    0.075726    0.076676    0.077074
     0.082512    0.082642    0.083279    0.083377    0.084341    0.084523
     0.085684    0.085713    0.085832    0.086531    0.086640    0.087247
     0.088457    0.088787    0.089007    0.089112    0.089898    0.089937
     0.093847    0.093961    0.096626    0.096673    0.111577    0.111611
     0.114595    0.114665    0.115893    0.115995    0.116779    0.117121
     0.117965    0.119478    0.119710    0.122722    0.124171    0.131133
     0.131470    0.131756    0.139849    0.141244    0.159656    0.161282
     0.170854    0.171709    0.172550    0.173481    0.212744    0.219900
     0.220092    0.227311    0.236519    0.239944    0.241366    0.248537
     0.249777    0.255139    0.258264    0.263508    0.267019    0.267670
     0.278695    0.279950    0.282816    0.287538    0.295201    0.297222
     0.301566    0.308769    0.310560    0.312129    0.319175    0.320540
     0.321758    0.321892    0.321944    0.322303    0.322489    0.322843
     0.323235    0.323402    0.323520    0.323688    0.324096    0.324116
     0.324270    0.324435    0.324692    0.324723    0.324749    0.324891
     0.324934    0.324993    0.325050    0.325875    0.326729    0.326819
     0.330947    0.369118    0.369244    0.383958    0.400386    0.404469
     0.416035    0.473052    0.490931    0.519204    0.529352    0.531066
     0.540133    0.918334    0.934167    0.941632    1.002363    1.022753
     1.022753    1.022753    1.022753    1.022753    1.022753    1.022753
     1.030314

 Minimum Search - Taking P-RFO Step
 Searching for Lamda that Maximizes Along the Constraint modes Only
 Value Taken    Lamda =   0.00003179
 Searching for Lamda that Minimizes Along All other modes
 Value Taken    Lamda =  -0.09134407
 Calculated Step too Large.  Step scaled by  0.578211
 Step Taken.  Stepsize is  0.300000

                             Maximum     Tolerance    Cnvgd?
         Gradient            0.075326       0.000300      NO
         Displacement        0.095883       0.001200      NO
         Energy change     -0.074669       0.000001      NO


 New Cartesian Coordinates Obtained by Inverse Iteration

 Displacement from previous Coordinates is:  1.286211
 Adding empirical dispersion correction 
 ----------------------------------------------------------------
 Doing -D3(op) with
 s6 =   1.00000
 s8 =   0.78311
 a1 =   0.30000
 a2 =   4.25000
 n  =  10.00000
 -D3 energy without 3body term =     -0.0648992844 hartrees
 ----------------------------------------------------------------
             Standard Nuclear Orientation (Angstroms)
    I     Atom           X                Y                Z
 ----------------------------------------------------------------
    1      O       3.0614611969    -1.9875508721     0.3076001913
    2      C       4.1599049176    -1.5422339156     0.7009426304
    3      C       5.0487056006    -0.5416483558    -0.0642602163
    4      C       4.3717243711     0.1166114854    -1.3040491716
    5      C       2.8674830892    -0.2236504289    -1.4778604174
    6      O       2.0839273267     0.6773136167    -0.7283835986
    7      C       0.8028124284     0.0984540183    -0.3419887558
    8      C      -0.3711779914     0.9281387681    -0.9440826635
    9      O      -1.5831876996     0.1146297786    -1.0311422212
   10      C      -2.4413353974     0.3017777626     0.0667510489
   11      C      -3.5697076942    -0.7631637620     0.0364723881
   12      C      -4.8239617702    -0.4446599839     0.9220821976
   13      C      -5.0226732101     1.0281094762     1.3729056981
   14      O      -6.0435203989     1.4502589459     1.9565887563
   15      O       4.7593301948    -1.9763206163     1.8824415471
   16      O      -4.1305007989     1.9623714292     0.8451261518
   17      O      -1.9970046974     0.7679087382     1.1420300561
   18      C      -4.3817155320     3.3329277293     1.1766914177
   19      C      -4.2552857152    -0.9712163788    -1.3674247748
   20      C      -4.8601765362    -2.4105244928    -1.4204055492
   21      C      -6.0415089617    -2.2695842884    -0.4252205378
   22      C      -5.9724019975    -0.7368485186    -0.1127325846
   23      O      -5.4461367308    -0.1357489858    -1.3295470807
   24      H      -3.0852306584    -1.7112562831     0.3444294028
   25      H      -4.8667175867    -1.0748292010     1.8309463412
   26      H      -3.5821773793    -0.7885178516    -2.2287315150
   27      H      -5.2632294500    -2.5578835718    -2.4393484543
   28      H      -4.1523853776    -3.2276309803    -1.1971564393
   29      H      -6.9854505227    -2.5223531292    -0.9395577960
   30      H      -5.9480750481    -2.8719822089     0.4955134514
   31      H      -6.9530949029    -0.3398406639     0.2194035529
   32      O       2.4073570483    -0.9673740143    -2.3654087992
   33      C       4.0062032848    -2.9299539013     2.6433362938
   34      C       5.4119251340     0.7422249141     0.7807959388
   35      C       6.7132293980     1.3684713695     0.1854580431
   36      C       6.1715080003     1.9366831910    -1.1569550421
   37      C       4.6399935424     1.6375233980    -1.0044383325
   38      O       4.4013246700     1.7248166632     0.4267993384
   39      H       5.9889242709    -1.0669751847    -0.3245053723
   40      H       4.8685491071    -0.2097198286    -2.2382290680
   41      H       3.8249706084    -3.8616605916     2.0644587106
   42      H       5.5056119169     0.5503293616     1.8685586752
   43      H       7.0033518374     2.2105312232     0.8405185011
   44      H       7.5690247903     0.6771535155     0.0947130680
   45      H       6.3517266622     3.0257702016    -1.1891393765
   46      H       6.5895985776     1.4657010167    -2.0638840362
   47      H       4.0183597505     2.3126027676    -1.6263519385
   48      H       3.0257352675    -2.5142616437     2.9623255074
   49      H       4.6007531829    -3.1772404265     3.5441366921
   50      H      -3.5893429260     3.9362016555     0.6924434588
   51      H      -4.3415686187     3.5021984957     2.2746557805
   52      H      -5.3723809714     3.6709728086     0.8008106151
   53      H      -0.5137059623     1.8992685662    -0.4234087530
   54      H      -0.1041194360     1.1598247326    -1.9983157550
   55      H       0.7215256320     0.0610274009     0.7659922097
   56      H       0.7015564350    -0.9476901988    -0.7100682692
 ----------------------------------------------------------------
 Molecular Point Group                 C1    NOp =  1
 Largest Abelian Subgroup              C1    NOp =  1
 Nuclear Repulsion Energy =  3046.4230416624 hartrees
 There are      113 alpha and      113 beta electrons
 Applying Cartesian multipole field
    Component          Value
    ---------          -----
     (2,0,0)        1.00000E-12
     (0,2,0)        2.00000E-11
     (0,0,2)       -3.00000E-11
 Nucleus-field energy     =     0.0000000173 hartrees
 Requested basis set is STO-3G
 There are 86 shells and 176 basis functions
 A cutoff of  1.0D-12 yielded   1984 shell pairs
 There are      9271 function pairs
 Smallest overlap matrix eigenvalue = 2.07E-01
 Guess MOs from SCF MO coefficient file
 Reading MOs from coefficient file
 Reading MOs from coefficient file
 A restricted hybrid HF-DFT SCF calculation will be
 performed using Pulay DIIS extrapolation
 Exchange:     0.2000 Hartree-Fock + 0.0800 Slater + 0.7200 B88
 Correlation:  0.1900 VWN1RPA + 0.8100 LYP
 Using SG-1 standard quadrature grid
 Dispersion:   Grimme D3
 SCF converges when DIIS error is below 1.0E-08
 Geometry optimization detected.  Setting ReadMinima to 0
 Setting SaveMinima to 0
 using 48 threads for integral computing
 -------------------------------------------------------
 OpenMP Integral computing Module                
 Release: version 1.0, May 2013, Q-Chem Inc. Pittsburgh 
 -------------------------------------------------------
 -------------------------------------------------------
 OpenMP BLAS3 based DFT computing Module                
 Release: version 1.0, May 2013, Q-Chem Inc. Pittsburgh 
 -------------------------------------------------------
 ---------------------------------------
  Cycle       Energy         DIIS Error
 ---------------------------------------
    1   -1510.0846877177      3.09E-03
    2   -1510.2275812900      8.07E-04
    3   -1510.2219282391      1.40E-03
    4   -1510.2303378977      2.57E-04
    5   -1510.2306364672      5.40E-05
    6   -1510.2306476802      2.40E-05
    7   -1510.2306494429      1.41E-05
    8   -1510.2306503050      2.37E-06
    9   -1510.2306503348      5.71E-07
   10   -1510.2306503356      4.37E-07
   11   -1510.2306503364      9.51E-08
   12   -1510.2306503364      2.21E-08
   13   -1510.2306503365      1.08E-08
   14   -1510.2306503366      3.34E-09 Convergence criterion met
 ---------------------------------------
 SCF time:  CPU 99.73 s  wall 2.08 s
 SCF   energy in the final basis set = -1510.23065034
 Total energy in the final basis set = -1510.23065034
 
 --------------------------------------------------------------
 
                    Orbital Energies (a.u.)
 --------------------------------------------------------------
 
 Alpha MOs
 -- Occupied --
-18.949 -18.931 -18.930 -18.920 -18.896 -18.892 -18.878 -18.861
-18.854 -18.850 -10.113 -10.097 -10.095 -10.095 -10.080 -10.067
-10.065 -10.064 -10.064 -10.063 -10.061 -10.057 -10.043 -10.039
-10.036 -10.034 -10.019 -10.018 -10.016 -10.013  -1.036  -1.021
 -1.014  -1.009  -0.990  -0.987  -0.950  -0.932  -0.929  -0.922
 -0.772  -0.766  -0.731  -0.727  -0.720  -0.711  -0.694  -0.676
 -0.663  -0.617  -0.600  -0.580  -0.550  -0.544  -0.537  -0.532
 -0.521  -0.514  -0.493  -0.483  -0.475  -0.466  -0.449  -0.446
 -0.440  -0.438  -0.426  -0.424  -0.416  -0.412  -0.409  -0.400
 -0.394  -0.389  -0.388  -0.373  -0.363  -0.358  -0.353  -0.345
 -0.341  -0.339  -0.338  -0.333  -0.330  -0.322  -0.317  -0.314
 -0.309  -0.306  -0.301  -0.299  -0.296  -0.290  -0.281  -0.277
 -0.269  -0.253  -0.245  -0.240  -0.235  -0.234  -0.227  -0.187
 -0.179  -0.166  -0.159  -0.155  -0.150  -0.147  -0.142  -0.135
 -0.134
 -- Virtual --
  0.095   0.096   0.107   0.110   0.229   0.247   0.254   0.257
  0.270   0.293   0.301   0.308   0.325   0.335   0.340   0.343
  0.348   0.360   0.363   0.364   0.370   0.372   0.377   0.381
  0.383   0.389   0.395   0.400   0.407   0.410   0.414   0.414
  0.417   0.422   0.429   0.429   0.433   0.434   0.439   0.448
  0.448   0.450   0.451   0.455   0.462   0.465   0.468   0.472
  0.474   0.488   0.495   0.498   0.500   0.512   0.523   0.547
  0.551   0.553   0.557   0.637   0.644   0.650   0.657
 --------------------------------------------------------------
 
          Ground-State Mulliken Net Atomic Charges

     Atom                 Charge (a.u.)
  ----------------------------------------
      1 O                    -0.218231
      2 C                     0.222173
      3 C                    -0.080853
      4 C                    -0.081877
      5 C                     0.225843
      6 O                    -0.186798
      7 C                    -0.044416
      8 C                    -0.043753
      9 O                    -0.180707
     10 C                     0.218967
     11 C                    -0.078379
     12 C                    -0.076318
     13 C                     0.218220
     14 O                    -0.230011
     15 O                    -0.184527
     16 O                    -0.181662
     17 O                    -0.219743
     18 C                    -0.111173
     19 C                     0.028301
     20 C                    -0.143805
     21 C                    -0.145425
     22 C                     0.030324
     23 O                    -0.197566
     24 H                     0.087376
     25 H                     0.088426
     26 H                     0.090421
     27 H                     0.075617
     28 H                     0.073326
     29 H                     0.076829
     30 H                     0.073173
     31 H                     0.088472
     32 O                    -0.216865
     33 C                    -0.114906
     34 C                     0.030668
     35 C                    -0.143567
     36 C                    -0.145229
     37 C                     0.033088
     38 O                    -0.191766
     39 H                     0.088497
     40 H                     0.083646
     41 H                     0.090235
     42 H                     0.086551
     43 H                     0.076200
     44 H                     0.073379
     45 H                     0.076888
     46 H                     0.073388
     47 H                     0.086179
     48 H                     0.090351
     49 H                     0.094879
     50 H                     0.091725
     51 H                     0.088811
     52 H                     0.088423
     53 H                     0.094510
     54 H                     0.087680
     55 H                     0.087442
     56 H                     0.097569
  ----------------------------------------
  Sum of atomic charges =     0.000000

 -----------------------------------------------------------------
                    Cartesian Multipole Moments
 -----------------------------------------------------------------
    Charge (ESU x 10^10)
                 0.0000
    Dipole Moment (Debye)
         X       3.1539      Y      -1.3919      Z       0.7576
       Tot       3.5297
    Quadrupole Moments (Debye-Ang)
        XX    -149.9833     XY       5.1560     YY    -151.2181
        XZ       4.1303     YZ      -9.3006     ZZ    -162.3919
    Octopole Moments (Debye-Ang^2)
       XXX     186.1094    XXY     -54.4406    XYY     -20.6322
       YYY      11.4119    XXZ     -26.6778    XYZ     -20.2761
       YYZ      17.5912    XZZ      29.3640    YZZ      -8.1080
       ZZZ      24.7614
    Hexadecapole Moments (Debye-Ang^3)
      XXXX  -18846.5582   XXXY     154.0288   XXYY   -3424.0654
      XYYY    -293.2317   YYYY   -2399.2077   XXXZ     201.9337
      XXYZ    -109.9404   XYYZ      65.6279   YYYZ     -34.7372
      XXZZ   -3517.5327   XYZZ     -37.2424   YYZZ    -649.5135
      XZZZ     185.6006   YZZZ     -59.8084   ZZZZ   -1581.4867
 -----------------------------------------------------------------
 Calculating analytic gradient of the SCF energy
 Gradient of SCF Energy
            1           2           3           4           5           6
    1   0.0151102   0.0203341  -0.0165585  -0.0130535  -0.0029484  -0.0029037
    2  -0.0006087   0.0100050   0.0009039   0.0076186  -0.0006535  -0.0123647
    3   0.0052317   0.0109484  -0.0093573   0.0175045   0.0188668  -0.0254596
            7           8           9          10          11          12
    1   0.0122954  -0.0073390   0.0111905  -0.0264691   0.0060576  -0.0121579
    2   0.0147250  -0.0134966  -0.0002127   0.0272144  -0.0001602   0.0034414
    3  -0.0053062   0.0156141   0.0308986  -0.0417138   0.0102192  -0.0095741
           13          14          15          16          17          18
    1   0.0273319   0.0128640  -0.0448391  -0.0396070   0.0005323   0.0142363
    2  -0.0222099   0.0068068  -0.0235265   0.0230660  -0.0175994  -0.0215138
    3  -0.0030934  -0.0177906  -0.0075074   0.0304365  -0.0052357  -0.0115402
           19          20          21          22          23          24
    1  -0.0223276  -0.0005017   0.0069603   0.0212264   0.0091844   0.0017925
    2   0.0153403   0.0111915   0.0088224   0.0083024  -0.0209609  -0.0018799
    3   0.0102150   0.0115968  -0.0029876  -0.0182251   0.0161216  -0.0023791
           25          26          27          28          29          30
    1   0.0018113   0.0031400  -0.0033350   0.0001032   0.0005526  -0.0002716
    2   0.0012733  -0.0098334   0.0036397  -0.0034249  -0.0007111   0.0008162
    3   0.0030372  -0.0008817  -0.0020044  -0.0015723  -0.0061818   0.0033126
           31          32          33          34          35          36
    1  -0.0022336   0.0054578   0.0220159  -0.0192334  -0.0122560  -0.0070214
    2  -0.0074297   0.0140678   0.0181967   0.0125270  -0.0066085  -0.0057475
    3   0.0057646   0.0023904  -0.0076098  -0.0158532  -0.0059214   0.0075027
           37          38          39          40          41          42
    1   0.0050114   0.0190332   0.0028504  -0.0003371   0.0017355   0.0083978
    2  -0.0047393  -0.0147878  -0.0000635  -0.0007886   0.0001224  -0.0023663
    3   0.0252712  -0.0174385   0.0025713  -0.0020924  -0.0010908  -0.0001007
           43          44          45          46          47          48
    1  -0.0033545   0.0036121   0.0017147  -0.0012431   0.0047349   0.0006384
    2   0.0037743   0.0007121   0.0024646  -0.0008391  -0.0014443   0.0020204
    3   0.0010292   0.0008459   0.0052910  -0.0029396  -0.0084718   0.0001327
           49          50          51          52          53          54
    1  -0.0012048  -0.0005789   0.0014522   0.0001562   0.0028150   0.0000253
    2  -0.0015985   0.0025236  -0.0014020  -0.0011165   0.0042555   0.0000678
    3   0.0012214   0.0005794   0.0005714  -0.0018067  -0.0047753   0.0001004
           55          56
    1  -0.0026934  -0.0019058
    2  -0.0038009  -0.0020103
    3  -0.0006516   0.0022873
 Max gradient component =       4.484E-02
 RMS gradient           =       1.207E-02
 Gradient time:  CPU 29.61 s  wall 0.63 s
 Geometry Optimization Parameters
   NAtoms,    NIC,     NZ,  NCons,   NDum,   NFix, NCnnct, MaxDiis
       56     458       0       9       0       0       0       0

 Cartesian Hessian Update
 Hessian Updated using BFGS Update


** CONSTRAINED OPTIMIZATION IN DELOCALIZED INTERNAL COORDINATES **
   Searching for a Minimum

   Optimization Cycle:   3

                       Coordinates (Angstroms)
     ATOM                X               Y               Z
      1  O         3.0614611969   -1.9875508721    0.3076001913
      2  C         4.1599049176   -1.5422339156    0.7009426304
      3  C         5.0487056006   -0.5416483558   -0.0642602163
      4  C         4.3717243711    0.1166114854   -1.3040491716
      5  C         2.8674830892   -0.2236504289   -1.4778604174
      6  O         2.0839273267    0.6773136167   -0.7283835986
      7  C         0.8028124284    0.0984540183   -0.3419887558
      8  C        -0.3711779914    0.9281387681   -0.9440826635
      9  O        -1.5831876996    0.1146297786   -1.0311422212
     10  C        -2.4413353974    0.3017777626    0.0667510489
     11  C        -3.5697076942   -0.7631637620    0.0364723881
     12  C        -4.8239617702   -0.4446599839    0.9220821976
     13  C        -5.0226732101    1.0281094762    1.3729056981
     14  O        -6.0435203989    1.4502589459    1.9565887563
     15  O         4.7593301948   -1.9763206163    1.8824415471
     16  O        -4.1305007989    1.9623714292    0.8451261518
     17  O        -1.9970046974    0.7679087382    1.1420300561
     18  C        -4.3817155320    3.3329277293    1.1766914177
     19  C        -4.2552857152   -0.9712163788   -1.3674247748
     20  C        -4.8601765362   -2.4105244928   -1.4204055492
     21  C        -6.0415089617   -2.2695842884   -0.4252205378
     22  C        -5.9724019975   -0.7368485186   -0.1127325846
     23  O        -5.4461367308   -0.1357489858   -1.3295470807
     24  H        -3.0852306584   -1.7112562831    0.3444294028
     25  H        -4.8667175867   -1.0748292010    1.8309463412
     26  H        -3.5821773793   -0.7885178516   -2.2287315150
     27  H        -5.2632294500   -2.5578835718   -2.4393484543
     28  H        -4.1523853776   -3.2276309803   -1.1971564393
     29  H        -6.9854505227   -2.5223531292   -0.9395577960
     30  H        -5.9480750481   -2.8719822089    0.4955134514
     31  H        -6.9530949029   -0.3398406639    0.2194035529
     32  O         2.4073570483   -0.9673740143   -2.3654087992
     33  C         4.0062032848   -2.9299539013    2.6433362938
     34  C         5.4119251340    0.7422249141    0.7807959388
     35  C         6.7132293980    1.3684713695    0.1854580431
     36  C         6.1715080003    1.9366831910   -1.1569550421
     37  C         4.6399935424    1.6375233980   -1.0044383325
     38  O         4.4013246700    1.7248166632    0.4267993384
     39  H         5.9889242709   -1.0669751847   -0.3245053723
     40  H         4.8685491071   -0.2097198286   -2.2382290680
     41  H         3.8249706084   -3.8616605916    2.0644587106
     42  H         5.5056119169    0.5503293616    1.8685586752
     43  H         7.0033518374    2.2105312232    0.8405185011
     44  H         7.5690247903    0.6771535155    0.0947130680
     45  H         6.3517266622    3.0257702016   -1.1891393765
     46  H         6.5895985776    1.4657010167   -2.0638840362
     47  H         4.0183597505    2.3126027676   -1.6263519385
     48  H         3.0257352675   -2.5142616437    2.9623255074
     49  H         4.6007531829   -3.1772404265    3.5441366921
     50  H        -3.5893429260    3.9362016555    0.6924434588
     51  H        -4.3415686187    3.5021984957    2.2746557805
     52  H        -5.3723809714    3.6709728086    0.8008106151
     53  H        -0.5137059623    1.8992685662   -0.4234087530
     54  H        -0.1041194360    1.1598247326   -1.9983157550
     55  H         0.7215256320    0.0610274009    0.7659922097
     56  H         0.7015564350   -0.9476901988   -0.7100682692
   Point Group: c1    Number of degrees of freedom:   162


   Energy is  -1510.230650337

              Constraints and their Current Values
                                        Value     Constraint
   Dihedral:        1   2   3   4       10.628       10.625
   Dihedral:        3   4   5   6       86.438       86.418
   Dihedral:        4   5   6   7     -153.707     -153.723
   Dihedral:        5   6   7   8     -119.116     -119.116
   Dihedral:        6   7   8   9      157.538      157.547
   Dihedral:        7   8   9  10       96.221       96.221
   Dihedral:        8   9  10  11     -170.044     -170.058
   Dihedral:        9  10  11  12     -162.666     -162.652
   Dihedral:       11  12  13  14      172.090      172.098
 Hessian Updated using BFGS Update

   Using Lagrange Multiplier Algorithm


160 Hessian modes will be used to form the next step
  Hessian Eigenvalues:
    -0.977755   -0.977753   -0.977753   -0.977753   -0.977753   -0.977753
    -0.977735   -0.977252    0.044983    0.045000    0.045001    0.045058
     0.045406    0.045615    0.045785    0.046494    0.048692    0.048888
     0.051656    0.054105    0.058862    0.059947    0.062326    0.062515
     0.066939    0.067013    0.067572    0.067899    0.069089    0.070564
     0.072122    0.073877    0.074196    0.075718    0.075757    0.076793
     0.077299    0.082506    0.082575    0.083295    0.083375    0.084341
     0.084536    0.085531    0.085757    0.085816    0.086408    0.086657
     0.087225    0.088492    0.088865    0.089084    0.089159    0.089888
     0.090048    0.093802    0.093871    0.096626    0.096658    0.111577
     0.111610    0.114594    0.114664    0.115893    0.115995    0.116759
     0.117182    0.117964    0.119527    0.119784    0.122731    0.124165
     0.131131    0.131192    0.131754    0.139581    0.141503    0.159671
     0.160031    0.161391    0.171154    0.171657    0.173442    0.173987
     0.211992    0.219805    0.220129    0.235874    0.237882    0.240974
     0.241367    0.248715    0.249779    0.253425    0.258253    0.260499
     0.265613    0.267014    0.268721    0.279134    0.279997    0.282798
     0.289359    0.295215    0.297360    0.302942    0.307927    0.310748
     0.312035    0.319115    0.319184    0.321750    0.321896    0.321950
     0.322267    0.322400    0.322807    0.323234    0.323400    0.323511
     0.323614    0.324081    0.324110    0.324249    0.324405    0.324676
     0.324722    0.324749    0.324888    0.324936    0.324986    0.325051
     0.325874    0.326763    0.326824    0.332374    0.369117    0.369341
     0.384200    0.389802    0.401169    0.406947    0.461717    0.490271
     0.516650    0.524516    0.529834    0.537571    0.919579    0.935305
     0.942486    1.006938    1.022753    1.022753    1.022753    1.022753
     1.022753    1.022753    1.022869    1.032938

 Minimum Search - Taking P-RFO Step
 Searching for Lamda that Maximizes Along the Constraint modes Only
 Value Taken    Lamda =   0.00001575
 Searching for Lamda that Minimizes Along All other modes
 Value Taken    Lamda =  -0.04540195
 Calculated Step too Large.  Step scaled by  0.613404
 Step Taken.  Stepsize is  0.300000

                             Maximum     Tolerance    Cnvgd?
         Gradient            0.039850       0.000300      NO
         Displacement        0.069817       0.001200      NO
         Energy change     -0.041835       0.000001      NO


 New Cartesian Coordinates Obtained by Inverse Iteration

 Displacement from previous Coordinates is:  2.088071
 Adding empirical dispersion correction 
 ----------------------------------------------------------------
 Doing -D3(op) with
 s6 =   1.00000
 s8 =   0.78311
 a1 =   0.30000
 a2 =   4.25000
 n  =  10.00000
 -D3 energy without 3body term =     -0.0644448610 hartrees
 ----------------------------------------------------------------
             Standard Nuclear Orientation (Angstroms)
    I     Atom           X                Y                Z
 ----------------------------------------------------------------
    1      O       3.0510494211    -1.9593860767     0.3050179265
    2      C       4.1708456555    -1.5509376714     0.6888129209
    3      C       5.1054523655    -0.5824111672    -0.0842958818
    4      C       4.4333825367     0.0935773957    -1.3293190304
    5      C       2.9112733594    -0.2325115656    -1.4920144405
    6      O       2.1390798043     0.6897226051    -0.7253845639
    7      C       0.8476816866     0.1112746103    -0.3298279616
    8      C      -0.3282477930     0.9593105556    -0.9270145743
    9      O      -1.5595303470     0.1557128511    -1.0153409086
   10      C      -2.4063348018     0.3663154101     0.1097726525
   11      C      -3.5506417072    -0.7007754964     0.0630531156
   12      C      -4.8347422940    -0.4228199331     0.9447052814
   13      C      -5.1603295135     1.0453471841     1.3973434043
   14      O      -6.2246769281     1.3713114534     1.9707638752
   15      O       4.7811397314    -1.9860844620     1.8842133726
   16      O      -4.3213440472     2.0443828463     0.8584676015
   17      O      -1.9621787331     0.8875914031     1.1603394138
   18      C      -4.7622290291     3.3849024628     1.2208988560
   19      C      -4.2131998394    -0.9299175938    -1.3560260045
   20      C      -4.7697005326    -2.3977557766    -1.4135077980
   21      C      -5.9710933577    -2.3012566806    -0.4243044374
   22      C      -5.9681342290    -0.7599702368    -0.1089701737
   23      O      -5.4455587911    -0.1261354816    -1.3308083003
   24      H      -3.0496630322    -1.6337843496     0.3867357636
   25      H      -4.8635727894    -1.0627196735     1.8456659779
   26      H      -3.5387078683    -0.7080372784    -2.2060220198
   27      H      -5.1507647686    -2.5720753809    -2.4346062255
   28      H      -4.0305160065    -3.1796362726    -1.1743119566
   29      H      -6.9035281908    -2.5914350396    -0.9361293834
   30      H      -5.8576455846    -2.9005873249     0.4942561434
   31      H      -6.9630684050    -0.3876705586     0.2062284201
   32      O       2.4260908069    -0.9950220713    -2.3547216465
   33      C       3.9346922000    -2.9174761062     2.6218084836
[...]
     15  O         4.8023234895   -2.0598047081    1.8394639869
     16  O        -4.4967878904    2.0235734433    0.7201966698
     17  O        -2.1138017678    1.1386410105    1.2534682222
     18  C        -5.0446984071    3.3801645939    0.9456688452
     19  C        -4.2304572606   -0.7734673962   -1.3420307227
     20  C        -4.5608664601   -2.3075440008   -1.4872764867
     21  C        -5.6988237397   -2.4517804625   -0.4074124862
     22  C        -5.9559681108   -0.9406279059   -0.0146974747
     23  O        -5.5806871483   -0.1741821786   -1.2301394749
     24  H        -3.1061894967   -1.5528005438    0.3800074827
     25  H        -4.8000432222   -1.0172825781    1.9387238927
     26  H        -3.6572467563   -0.3164125561   -2.1713619282
     27  H        -4.9398720002   -2.5227729369   -2.4994343863
     28  H        -3.6897785520   -2.9517646419   -1.2872551434
     29  H        -6.6099513232   -2.9048846075   -0.8285911262
     30  H        -5.3789026984   -3.0479512733    0.4624178437
     31  H        -6.9936061287   -0.7026865088    0.2907830895
     32  O         2.3368238877   -0.9302580345   -2.2840193858
     33  C         3.8879222879   -2.8660801136    2.6815329236
     34  C         5.7612260514    0.4638429109    0.6965267492
     35  C         6.9949307373    1.0368906870   -0.1077735784
     36  C         6.2686794538    1.8931373862   -1.2107763635
     37  C         4.7541815073    1.6145603902   -0.8602365790
     38  O         4.7529316978    1.5434219579    0.6189797976
     39  H         5.8637873901   -1.3906296844   -0.5571162646
     40  H         4.8903935806   -0.1084349232   -2.2816248736
     41  H         3.4479291735   -3.7108201181    2.1132130339
     42  H         5.9643212006    0.1866812156    1.7491403986
     43  H         7.6232960846    1.6632757627    0.5452074470
     44  H         7.6179128805    0.2343562951   -0.5340719255
     45  H         6.4976336626    2.9655309265   -1.1044123137
     46  H         6.5234153224    1.5760226920   -2.2346499782
     47  H         4.0360583233    2.3802355076   -1.2109978498
     48  H         3.0624642939   -2.2484513031    3.0905949451
     49  H         4.5042613432   -3.2574295401    3.5115702230
     50  H        -4.3699229347    4.0710158080    0.4077133508
     51  H        -5.0599187167    3.6406929551    2.0235473038
     52  H        -6.0744726679    3.4748277004    0.5443195415
     53  H        -0.4895601079    1.9422311159   -0.0348201389
     54  H        -0.0807164191    1.5157851168   -1.7540776378
     55  H         0.7794361545    0.0277634538    0.8349643940
     56  H         0.7075105597   -0.8275486017   -0.7660255614
   Point Group: c1    Number of degrees of freedom:   162


   Energy is  -1510.268415452

              Constraints and their Current Values
                                        Value     Constraint
   Dihedral:        1   2   3   4       10.625       10.625
   Dihedral:        3   4   5   6       86.418       86.418
   Dihedral:        4   5   6   7     -153.723     -153.723
   Dihedral:        5   6   7   8     -119.116     -119.116
   Dihedral:        6   7   8   9      157.547      157.547
   Dihedral:        7   8   9  10       96.221       96.221
   Dihedral:        8   9  10  11     -170.058     -170.058
   Dihedral:        9  10  11  12     -162.652     -162.652
   Dihedral:       11  12  13  14      172.098      172.098
 Hessian Updated using BFGS Update

153 Hessian modes will be used to form the next step
  Hessian Eigenvalues:
     0.003030    0.003503    0.007934    0.019666    0.026247    0.044999
     0.045035    0.045079    0.045244    0.046423    0.047757    0.048369
     0.053295    0.054079    0.060070    0.060626    0.062946    0.065408
     0.066966    0.067510    0.068467    0.069019    0.069894    0.070895
     0.074011    0.074189    0.075735    0.075943    0.077417    0.078810
     0.082089    0.082294    0.083293    0.084021    0.084490    0.084584
     0.085345    0.085776    0.086447    0.086516    0.086955    0.088034
     0.088950    0.089021    0.089532    0.089709    0.090510    0.092675
     0.093868    0.093949    0.096643    0.096816    0.111425    0.111678
     0.114695    0.114814    0.115840    0.115986    0.117137    0.117526
     0.118123    0.121049    0.123029    0.123180    0.124565    0.130405
     0.131382    0.131881    0.156893    0.158853    0.160007    0.160059
     0.160072    0.160156    0.161595    0.161749    0.170943    0.173384
     0.198160    0.202146    0.216709    0.220117    0.220513    0.236333
     0.240228    0.240494    0.242856    0.246829    0.250346    0.251092
     0.253065    0.255171    0.262542    0.266495    0.267117    0.274249
     0.275747    0.280431    0.282834    0.295000    0.295623    0.298856
     0.303921    0.305559    0.310660    0.311275    0.317677    0.318955
     0.320247    0.321904    0.321931    0.322210    0.322452    0.322806
     0.323233    0.323446    0.323529    0.323813    0.324042    0.324128
     0.324309    0.324538    0.324707    0.324743    0.324867    0.324883
     0.324989    0.325053    0.325736    0.325929    0.326796    0.327771
     0.334602    0.334847    0.361018    0.365169    0.369581    0.371438
     0.386981    0.414142    0.425059    0.452153    0.476836    0.492110
     0.508039    0.529615    0.536194    0.566193    0.589678    0.920893
     0.936834    0.943904    1.028870

 Minimum Search - Taking Simple RFO Step
 Searching for Lamda that Minimizes Along All modes
 Value Taken    Lamda =   0.00000000
 Step Taken.  Stepsize is  0.009116

                             Maximum     Tolerance    Cnvgd?
         Gradient           0.000055      0.000300     YES
         Displacement       0.003198      0.001200      NO
         Energy change     -0.000001      0.000001     YES

 Final energy is   -1510.26841545173     


 ******************************
 **  OPTIMIZATION CONVERGED  **
 ******************************

                       Coordinates (Angstroms)
     ATOM                X               Y               Z
      1  O         2.8882516851   -1.7668222242    0.4807121729
      2  C         4.0967867214   -1.5411245239    0.7097717682
      3  C         5.0973029620   -0.7021289628   -0.1557953693
      4  C         4.4094808840    0.1299275809   -1.3162654237
      5  C         2.8674096811   -0.1212933433   -1.4920821475
      6  O         2.1365764838    0.7469618765   -0.6088908289
      7  C         0.8213326479    0.1582057338   -0.2665545005
      8  C        -0.3365682620    1.1105342668   -0.7535462831
      9  O        -1.5906832174    0.3373581920   -0.9176823401
     10  C        -2.4127552681    0.4499322205    0.2550200151
     11  C        -3.5773318620   -0.5897430100    0.1018265936
     12  C        -4.8543364605   -0.4177306467    1.0127183105
     13  C        -5.3220955330    1.0502010818    1.3576569001
     14  O        -6.3897334659    1.3341681980    1.9462038174
     15  O         4.8023234895   -2.0598047081    1.8394639869
     16  O        -4.4967878904    2.0235734433    0.7201966698
     17  O        -2.1138017678    1.1386410105    1.2534682222
     18  C        -5.0446984071    3.3801645939    0.9456688452
     19  C        -4.2304572606   -0.7734673962   -1.3420307227
     20  C        -4.5608664601   -2.3075440008   -1.4872764867
     21  C        -5.6988237397   -2.4517804625   -0.4074124862
     22  C        -5.9559681108   -0.9406279059   -0.0146974747
     23  O        -5.5806871483   -0.1741821786   -1.2301394749
     24  H        -3.1061894967   -1.5528005438    0.3800074827
     25  H        -4.8000432222   -1.0172825781    1.9387238927
     26  H        -3.6572467563   -0.3164125561   -2.1713619282
     27  H        -4.9398720002   -2.5227729369   -2.4994343863
     28  H        -3.6897785520   -2.9517646419   -1.2872551434
     29  H        -6.6099513232   -2.9048846075   -0.8285911262
     30  H        -5.3789026984   -3.0479512733    0.4624178437
     31  H        -6.9936061287   -0.7026865088    0.2907830895
     32  O         2.3368238877   -0.9302580345   -2.2840193858
     33  C         3.8879222879   -2.8660801136    2.6815329236
     34  C         5.7612260514    0.4638429109    0.6965267492
     35  C         6.9949307373    1.0368906870   -0.1077735784
     36  C         6.2686794538    1.8931373862   -1.2107763635
     37  C         4.7541815073    1.6145603902   -0.8602365790
     38  O         4.7529316978    1.5434219579    0.6189797976
     39  H         5.8637873901   -1.3906296844   -0.5571162646
     40  H         4.8903935806   -0.1084349232   -2.2816248736
     41  H         3.4479291735   -3.7108201181    2.1132130339
     42  H         5.9643212006    0.1866812156    1.7491403986
     43  H         7.6232960846    1.6632757627    0.5452074470
     44  H         7.6179128805    0.2343562951   -0.5340719255
     45  H         6.4976336626    2.9655309265   -1.1044123137
     46  H         6.5234153224    1.5760226920   -2.2346499782
     47  H         4.0360583233    2.3802355076   -1.2109978498
     48  H         3.0624642939   -2.2484513031    3.0905949451
     49  H         4.5042613432   -3.2574295401    3.5115702230
     50  H        -4.3699229347    4.0710158080    0.4077133508
     51  H        -5.0599187167    3.6406929551    2.0235473038
     52  H        -6.0744726679    3.4748277004    0.5443195415
     53  H        -0.4895601079    1.9422311159   -0.0348201389
     54  H        -0.0807164191    1.5157851168   -1.7540776378
     55  H         0.7794361545    0.0277634538    0.8349643940
     56  H         0.7075105597   -0.8275486017   -0.7660255614

Z-matrix Print:
$molecule
0 1
O 
C  1 1.438058
O  2 1.250244 1 124.333705
C  1 1.481113 2 110.685809 3 27.233893 0
H  4 1.110006 1 108.035000 2 120.263847 0
H  4 1.110918 1 109.863973 2 0.553900 0
C  2 1.572262 1 109.469210 3 179.043163 0
H  7 1.104542 2 107.146769 1 -151.278153 0
C  4 1.576333 1 109.921525 2 -119.115949 0
H  9 1.109392 4 109.263111 1 40.897173 0
H  9 1.109817 4 110.728048 1 -80.416533 0
O  9 1.482412 4 109.909535 1 157.547028 0
C  12 1.436561 9 110.662597 4 96.220967 0
O  13 1.249236 12 123.966203 9 1.795773 0
C  13 1.568640 12 107.048694 9 -170.058053 0
H  15 1.107628 13 103.648114 12 79.098343 0
C  15 1.577990 13 118.175995 12 -162.651952 0
H  17 1.104489 15 112.644509 13 -94.202174 0
C  17 1.578799 15 117.854932 13 35.022414 0
O  19 1.251749 17 124.496079 15 172.098025 0
O  19 1.426514 17 111.431341 15 2.020421 0
C  21 1.480332 19 110.066284 17 174.042775 0
H  22 1.105438 21 105.822869 19 -178.781981 0
H  22 1.109021 21 111.616665 19 62.118630 0
H  22 1.109269 21 111.512133 19 -59.540178 0
C  7 1.584963 2 115.063837 1 86.417961 0
H  26 1.105708 7 111.221260 2 117.237854 0
C  26 1.566574 7 114.112908 2 -5.302267 0
O  28 1.250586 26 127.780921 7 10.624982 0
O  28 1.429341 26 108.408162 7 -170.589495 0
C  30 1.481651 28 110.000264 26 -179.765666 0
H  31 1.105437 30 105.979781 28 178.289860 0
H  31 1.109129 30 111.596409 28 58.976688 0
H  31 1.109134 30 111.462148 28 -62.553968 0
C  26 1.589571 7 100.881274 2 -124.734806 0
H  35 1.107277 26 113.748937 7 157.594549 0
O  35 1.479244 26 102.857301 7 37.522522 0
C  37 1.480927 35 94.982154 26 -57.677114 0
H  38 1.106794 37 110.440493 35 179.331759 0
C  38 1.579300 37 103.355087 35 -56.615670 0
H  40 1.101708 38 110.460438 37 -81.785673 0
H  40 1.101712 38 112.162545 37 156.687194 0
C  40 1.573917 38 101.010280 37 36.284800 0
H  43 1.101629 40 111.670035 38 -119.211962 0
H  43 1.101771 40 112.707265 38 118.057087 0
C  17 1.594552 15 98.708725 13 145.919757 0
H  46 1.107532 17 113.522025 15 -166.259400 0
O  46 1.485118 17 100.574298 15 -48.137222 0
C  48 1.481480 46 94.781384 17 61.751169 0
H  49 1.106914 48 111.193882 46 -176.127967 0
C  49 1.575962 48 102.101616 46 59.304541 0
H  51 1.101736 49 112.748990 48 -163.009486 0
H  51 1.102013 49 110.295863 48 74.971346 0
C  51 1.575391 49 100.217756 48 -42.429267 0
H  54 1.101294 51 111.908565 49 126.491604 0
H  54 1.101986 51 112.388246 49 -110.955505 0
$end

 
 --------------------------------------------------------------
 
                    Orbital Energies (a.u.)
 --------------------------------------------------------------
 
 Alpha MOs
 -- Occupied --
-18.944 -18.931 -18.926 -18.917 -18.889 -18.886 -18.883 -18.871
-18.869 -18.862 -10.108 -10.097 -10.095 -10.092 -10.071 -10.062
-10.062 -10.059 -10.059 -10.058 -10.056 -10.055 -10.043 -10.036
-10.035 -10.034 -10.022 -10.020 -10.018 -10.016  -1.021  -1.009
 -1.003  -0.999  -0.971  -0.967  -0.945  -0.933  -0.928  -0.925
 -0.765  -0.760  -0.725  -0.720  -0.713  -0.704  -0.686  -0.668
 -0.656  -0.612  -0.597  -0.577  -0.546  -0.540  -0.538  -0.534
 -0.514  -0.508  -0.484  -0.476  -0.468  -0.460  -0.443  -0.438
 -0.435  -0.434  -0.421  -0.417  -0.410  -0.409  -0.404  -0.396
 -0.388  -0.382  -0.380  -0.366  -0.360  -0.356  -0.352  -0.344
 -0.339  -0.335  -0.334  -0.329  -0.327  -0.323  -0.315  -0.311
 -0.308  -0.307  -0.301  -0.300  -0.294  -0.293  -0.281  -0.276
 -0.269  -0.261  -0.247  -0.242  -0.238  -0.234  -0.231  -0.186
 -0.180  -0.170  -0.162  -0.156  -0.150  -0.149  -0.145  -0.144
 -0.139
 -- Virtual --
  0.092   0.103   0.107   0.107   0.219   0.240   0.245   0.251
  0.258   0.275   0.284   0.287   0.305   0.318   0.326   0.328
  0.331   0.343   0.344   0.348   0.351   0.361   0.367   0.373
  0.374   0.378   0.384   0.402   0.403   0.407   0.407   0.413
  0.414   0.417   0.417   0.424   0.429   0.429   0.434   0.434
  0.437   0.438   0.444   0.445   0.448   0.451   0.458   0.458
  0.467   0.471   0.488   0.493   0.497   0.504   0.510   0.534
  0.540   0.552   0.558   0.636   0.639   0.646   0.655
 --------------------------------------------------------------
 
          Ground-State Mulliken Net Atomic Charges

     Atom                 Charge (a.u.)
  ----------------------------------------
      1 O                    -0.211859
      2 C                     0.214158
      3 C                    -0.077672
      4 C                    -0.081139
      5 C                     0.216209
      6 O                    -0.179254
      7 C                    -0.050095
      8 C                    -0.053572
      9 O                    -0.176000
     10 C                     0.215734
     11 C                    -0.079363
     12 C                    -0.076040
     13 C                     0.212457
     14 O                    -0.220381
     15 O                    -0.169572
     16 O                    -0.163484
     17 O                    -0.211970
     18 C                    -0.125637
     19 C                     0.024856
     20 C                    -0.141170
     21 C                    -0.146126
     22 C                     0.023452
     23 O                    -0.192738
     24 H                     0.082896
     25 H                     0.085043
     26 H                     0.091290
     27 H                     0.077701
     28 H                     0.073967
     29 H                     0.078250
     30 H                     0.073127
     31 H                     0.086328
     32 O                    -0.212980
     33 C                    -0.128014
     34 C                     0.024760
     35 C                    -0.144144
     36 C                    -0.143938
     37 C                     0.026582
     38 O                    -0.188011
     39 H                     0.087225
     40 H                     0.082646
     41 H                     0.090891
     42 H                     0.088209
     43 H                     0.078359
     44 H                     0.073432
     45 H                     0.078022
     46 H                     0.073532
     47 H                     0.087473
     48 H                     0.090820
     49 H                     0.092403
     50 H                     0.090561
     51 H                     0.089473
     52 H                     0.090177
     53 H                     0.097137
     54 H                     0.087619
     55 H                     0.087084
     56 H                     0.101287
  ----------------------------------------
  Sum of atomic charges =     0.000000

 -----------------------------------------------------------------
                    Cartesian Multipole Moments
 -----------------------------------------------------------------
    Charge (ESU x 10^10)
                 0.0000
    Dipole Moment (Debye)
         X       3.1897      Y      -1.5674      Z       0.2380
       Tot       3.5619
    Quadrupole Moments (Debye-Ang)
        XX    -152.5653     XY       3.4173     YY    -150.8093
        XZ       1.6765     YZ      -9.2314     ZZ    -162.1388
    Octopole Moments (Debye-Ang^2)
       XXX     203.0492    XXY     -44.3196    XYY     -28.7056
       YYY       6.7204    XXZ     -42.8459    XYZ     -17.8194
       YYZ       9.7349    XZZ      30.7537    YZZ     -11.4226
       ZZZ      12.3007
    Hexadecapole Moments (Debye-Ang^3)
      XXXX  -19721.5157   XXXY     254.5667   XXYY   -3493.3105
      XYYY    -138.3171   YYYY   -2364.3890   XXXZ     244.5482
      XXYZ     -81.4544   XYYZ      78.0154   YYYZ       2.4910
      XXZZ   -3636.3696   XYZZ       5.2977   YYZZ    -642.6152
      XZZZ     267.3411   YZZZ     -26.6392   ZZZZ   -1530.1244
 -----------------------------------------------------------------
Archival summary:
1\1\vega02.cac.cornell.edu\OPT\ProcedureUnspecified\STO-3G\102026\jj585\SunJan1411:26:012018SunJan1411:26:012018\0\\#,OPT,ProcedureUnspecified,STO-3G,\\0,1\O\C,1,1.43806\O,2,1.25024,1,124.334\C,1,1.48111,2,110.686,3,27.2339,0\H,4,1.11001,1,108.035,2,120.264,0\H,4,1.11092,1,109.864,2,0.5539,0\C,2,1.57226,1,109.469,3,179.043,0\H,7,1.10454,2,107.147,1,-151.278,0\C,4,1.57633,1,109.922,2,-119.116,0\H,9,1.10939,4,109.263,1,40.8972,0\H,9,1.10982,4,110.728,1,-80.4165,0\O,9,1.48241,4,109.91,1,157.547,0\C,12,1.43656,9,110.663,4,96.221,0\O,13,1.24924,12,123.966,9,1.79577,0\C,13,1.56864,12,107.049,9,-170.058,0\H,15,1.10763,13,103.648,12,79.0983,0\C,15,1.57799,13,118.176,12,-162.652,0\H,17,1.10449,15,112.645,13,-94.2022,0\C,17,1.5788,15,117.855,13,35.0224,0\O,19,1.25175,17,124.496,15,172.098,0\O,19,1.42651,17,111.431,15,2.02042,0\C,21,1.48033,19,110.066,17,174.043,0\H,22,1.10544,21,105.823,19,-178.782,0\H,22,1.10902,21,111.617,19,62.1186,0\H,22,1.10927,21,111.512,19,-59.5402,0\C,7,1.58496,2,115.064,1,86.418,0\H,26,1.10571,7,111.221,2,117.238,0\C,26,1.56657,7,114.113,2,-5.30227,0\O,28,1.25059,26,127.781,7,10.625,0\O,28,1.42934,26,108.408,7,-170.589,0\C,30,1.48165,28,110,26,-179.766,0\H,31,1.10544,30,105.98,28,178.29,0\H,31,1.10913,30,111.596,28,58.9767,0\H,31,1.10913,30,111.462,28,-62.554,0\C,26,1.58957,7,100.881,2,-124.735,0\H,35,1.10728,26,113.749,7,157.595,0\O,35,1.47924,26,102.857,7,37.5225,0\C,37,1.48093,35,94.9822,26,-57.6771,0\H,38,1.10679,37,110.44,35,179.332,0\C,38,1.5793,37,103.355,35,-56.6157,0\H,40,1.10171,38,110.46,37,-81.7857,0\H,40,1.10171,38,112.163,37,156.687,0\C,40,1.57392,38,101.01,37,36.2848,0\H,43,1.10163,40,111.67,38,-119.212,0\H,43,1.10177,40,112.707,38,118.057,0\C,17,1.59455,15,98.7087,13,145.92,0\H,46,1.10753,17,113.522,15,-166.259,0\O,46,1.48512,17,100.574,15,-48.1372,0\C,48,1.48148,46,94.7814,17,61.7512,0\H,49,1.10691,48,111.194,46,-176.128,0\C,49,1.57596,48,102.102,46,59.3045,0\H,51,1.10174,49,112.749,48,-163.009,0\H,51,1.10201,49,110.296,48,74.9713,0\C,51,1.57539,49,100.218,48,-42.4293,0\H,54,1.10129,51,111.909,49,126.492,0\H,54,1.10199,51,112.388,49,-110.956,0\\\@

 Total job time:  62.94s(wall), 2988.34s(cpu) 
 Sun Jan 14 11:26:01 2018

        *************************************************************
        *                                                           *
        *  Thank you very much for using Q-Chem.  Have a nice day.  *
        *                                                           *
        *************************************************************


0 sent ACK to 0 
now end server 0 ... 
