mFile = /opt/software/qchem/qchem-5.0.1//bin/mpi/machines
Process 0 of 1 is on vega02.cac.cornell.edu - thread support 0
initial socket setup ...start
initial socket setup ...done 
now start server 0 ... 
vega02.cac.cornell.edu 10.84.3
Q-Chem Developer Version! Running on 10.84.3.*
                  Welcome to Q-Chem
     A Quantum Leap Into The Future Of Chemistry


 Q-Chem 5.0, Q-Chem, Inc., Pleasanton, CA (2017)

 Yihan Shao,  Zhengting Gan,  E. Epifanovsky,  A. T. B. Gilbert,  M. Wormit,  
 J. Kussmann,  A. W. Lange,  A. Behn,  Jia Deng,  Xintian Feng,  D. Ghosh,  
 M. Goldey,  P. R. Horn,  L. D. Jacobson,  I. Kaliman,  T. Kus,  A. Landau,  
 Jie Liu,  E. I. Proynov,  R. M. Richard,  R. P. Steele,  E. J. Sundstrom,  
 H. L. Woodcock III,  P. M. Zimmerman,  D. Zuev,  B. Albrecht,  E. Alguire,  
 S. A. Baeppler,  Z. Benda,  Y. A. Bernard,  E. J. Berquist,  K. B. Bravaya,  
 D. Casanova,  Chun-Min Chang,  Yunqing Chen,  A. Chien,  K. D. Closser,  
 M. P. Coons,  S. Dasgupta,  M. Diedenhofen,  Hainam Do,  R. G. Edgar,  
 Po-Tung Fang,  S. Fatehi,  Qingguo Feng,  Qinghui Ge,  A. Ghysels,  
 J. Gomes,  J. Gonthier,  A. Gunina,  M. W. D. Hanson-Heine,  
 P. H. P. Harbach,  A. W. Hauser,  J. E. Herr,  E. G. Hohenstein,  
 Z. C. Holden,  Kerwin Hui,  T.-C. Jagau,  Hyunjun Ji,  B. Kaduk,  
 K. Khistyaev,  Jaehoon Kim,  P. Klunzinger,  K. Koh,  D. Kosenkov,  
 T. Kowalczyk,  C. M. Krauter,  A. Kunitsa,  Ka Un Lao,  A. Laurent,  
 K. V. Lawler,  Joonho Lee,  D. Lefrancois,  S. Lehtola,  D. S. Levine,  
 Yi-Pei Li,  You-Sheng Lin,  Fenglai Liu,  E. Livshits,  A. Luenser,  
 P. Manohar,  E. Mansoor,  S. F. Manzer,  Shan-Ping Mao,  Yuezhi Mao,  
 N. Mardirossian,  A. V. Marenich,  L. A. Martinez-Martinez,  S. A. Maurer,  
 N. J. Mayhall,  S. C. McKenzie,  J.-M. Mewes,  A. F. Morrison,  K. Nanda,  
 T. S. Nguyen-Beck,  R. Olivares-Amaya,  J. A. Parkhill,  T. M. Perrine,  
 F. Plasser,  S. Prager,  A. Prociuk,  D. R. Rehn,  F. Rob,  M. Schneider,  
 N. Sergueev,  S. M. Sharada,  S. Sharma,  D. W. Small,  T. Stauch,  
 T. Stein,  Yu-Chuan Su,  A. J. W. Thom,  T. Tsuchimochi,  L. Vogt,  
 O. Vydrov,  M. A. Watson,  J. Wenzel,  M. de Wergifosse,  T. A. Wesolowski,  
 A. White,  J. Witte,  A. Yamada,  Jun Yang,  K. Yao,  S. Yeganeh,  
 S. R. Yost,  Zhi-Qiang You,  A. Zech,  Igor Ying Zhang,  Xing Zhang,  
 Yan Zhao,  Ying Zhu,  B. R. Brooks,  G. K. L. Chan,  C. J. Cramer,  
 M. S. Gordon,  W. J. Hehre,  A. Klamt,  M. W. Schmidt,  C. D. Sherrill,  
 D. G. Truhlar,  A. Aspuru-Guzik,  R. Baer,  A. T. Bell,  N. A. Besley,  
 Jeng-Da Chai,  A. Dreuw,  B. D. Dunietz,  T. R. Furlani,  Chao-Ping Hsu,  
 Yousung Jung,  Jing Kong,  D. S. Lambrecht,  WanZhen Liang,  C. Ochsenfeld,  
 V. A. Rassolov,  L. V. Slipchenko,  J. E. Subotnik,  T. Van Voorhis,  
 J. M. Herbert,  A. I. Krylov,  P. M. W. Gill,  M. Head-Gordon

 Contributors to earlier versions of Q-Chem not listed above: 
 R. D. Adamson,  B. Austin,  J. Baker,  G. J. O. Beran,  K. Brandhorst,  
 S. T. Brown,  E. F. C. Byrd,  A. K. Chakraborty,  C.-L. Cheng,  
 Siu Hung Chien,  D. M. Chipman,  D. L. Crittenden,  H. Dachsel,  
 R. A. DiStasio Jr.,  R. J. Doerksen,  A. D. Dutoi,  L. Fusti-Molnar,  
 W. A. Goddard III,  A. Golubeva-Zadorozhnaya,  S. R. Gwaltney,  G. Hawkins,  
 A. Heyden,  S. Hirata,  G. Kedziora,  F. J. Keil,  C. Kelley,  Jihan Kim,  
 R. A. King,  R. Z. Khaliullin,  P. P. Korambath,  W. Kurlancheek,  
 A. M. Lee,  M. S. Lee,  S. V. Levchenko,  Ching Yeh Lin,  D. Liotard,  
 R. C. Lochan,  I. Lotan,  P. E. Maslen,  N. Nair,  D. P. O'Neill,  
 D. Neuhauser,  E. Neuscamman,  C. M. Oana,  R. Olson,  B. Peters,  
 R. Peverati,  P. A. Pieniazek,  Y. M. Rhee,  J. Ritchie,  M. A. Rohrdanz,  
 E. Rosta,  N. J. Russ,  H. F. Schaefer III,  N. E. Schultz,  N. Shenvi,  
 A. C. Simmonett,  A. Sodt,  D. Stuck,  K. S. Thanthiriwatte,  V. Vanovschi,  
 Tao Wang,  A. Warshel,  C. F. Williams,  Q. Wu,  X. Xu,  W. Zhang

 Please cite Q-Chem as follows:
 Y. Shao et al., Mol. Phys. 113, 184-215 (2015)
 DOI: 10.1080/00268976.2014.952696

 Q-Chem 5.0.1 for Intel X86 EM64T Linux

 Parts of Q-Chem use Armadillo 5.200.1 (Boston Tea Smuggler).
 http://arma.sourceforge.net/

 Q-Chem begins on Sun Jan 14 11:29:38 2018  

Host: vega02.cac.cornell.edu
0

     Scratch files written to /scratch/jj585/SOT1001/0413c.save//
 Parallel job on  1  processors

Checking the input file for inconsistencies... 	...done.

--------------------------------------------------------------
User input:
--------------------------------------------------------------
$molecule
0  1
O -3.94934 -3.66094 2.70899
C -3.26408 -4.56952 2.26188
C -3.36658 -6.02376 2.66595
C -4.13329 -6.341 3.96031
C -4.86336 -5.1874 4.61168
O -6.06871 -4.99566 3.99867
C -6.72334 -3.79026 4.40821
C -7.74317 -4.09135 5.50156
O -7.6749 -3.08582 6.52485
C -8.31598 -1.92411 6.2445
C -8.11263 -0.86898 7.30564
C -9.11994 0.28956 7.26794
C -10.3651 0.05575 6.43632
O -11.50489 -0.01858 6.87212
O -2.43989 -4.30823 1.21359
O -10.2203 0.17542 5.08972
O -8.56441 -1.62832 5.08487
C -11.25352 0.08961 4.1792
C -8.32536 -1.37436 8.75234
C -7.54813 -0.48439 9.72016
C -8.35959 0.79151 9.64175
C -9.52135 0.32129 8.75753
O -9.65645 -1.0452 9.05859
H -7.06012 -0.52018 7.20244
H -8.67283 1.25188 6.93465
H -8.04008 -2.43669 8.90978
H -7.67725 -0.92551 10.73489
H -6.46311 -0.37034 9.5091
H -8.71136 1.04639 10.66606
H -7.83598 1.66114 9.18866
H -10.41859 0.95255 8.94169
O -4.55545 -4.72508 5.70407
C -2.26328 -3.05915 0.65621
C -4.13461 -6.89135 1.65394
C -3.6965 -8.34943 1.78622
C -4.33857 -8.72087 3.10873
C -5.09456 -7.42583 3.42678
O -5.4489 -6.92798 2.15674
H -2.31365 -6.3759 2.75675
H -3.44644 -6.74979 4.73559
H -1.86433 -2.35399 1.41645
H -4.01906 -6.54462 0.60379
H -4.20155 -8.92151 0.97519
H -2.5998 -8.51848 1.72608
H -5.05749 -9.55089 2.92852
H -3.63125 -9.00123 3.91894
H -5.93232 -7.62668 4.13034
H -3.228 -2.67725 0.25882
H -1.53725 -3.13291 -0.17921
H -10.84723 0.21957 3.15526
H -12.00149 0.88837 4.37111
H -11.74042 -0.90671 4.2473
H -8.7673 -4.32003 5.13212
H -7.39213 -5.01117 6.01666
H -7.19236 -3.27501 3.54433
H -5.98346 -3.04946 4.79733
$end

$opt
CONSTRAINT
tors           1           2           3           4     -15.667
tors           3           4           5           6     +81.929
tors           4           5           6           7    -170.342
tors           5           6           7           8     -96.993
tors           6           7           8           9    +137.836
tors           7           8           9          10     +79.978
tors           8           9          10          11    -175.243
tors           9          10          11          12    -162.652
tors          11          12          13          14    +114.505
ENDCONSTRAINT
$end

$rem
JOBTYPE                   OPT
METHOD                    B3LYP
DFT_D                     d3_op
BASIS                     STO-3G
GEOM_OPT_MAX_CYCLES       100
GEOM_OPT_TOL_GRADIENT     300
GEOM_OPT_TOL_DISPLACEMENT 1200
GEOM_OPT_TOL_ENERGY       100
SYMMETRY                  False
THRESH                    12
SCF_CONVERGENCE           8
MAX_SUB_FILE_NUM          128
MEM_STATIC                400
MEM_TOTAL                 4000
$end
--------------------------------------------------------------
 Adding empirical dispersion correction 
 ----------------------------------------------------------------
 Doing -D3(op) with
 s6 =   1.00000
 s8 =   0.78311
 a1 =   0.30000
 a2 =   4.25000
 n  =  10.00000
 -D3 energy without 3body term =     -0.0654849823 hartrees
 ----------------------------------------------------------------
             Standard Nuclear Orientation (Angstroms)
    I     Atom           X                Y                Z
 ----------------------------------------------------------------
    1      O      -3.0626311517    -1.1468523437     1.4711162723
    2      C      -4.2580224663    -0.9001207365     1.3992180437
    3      C      -4.8770774460     0.1934455001     0.5569136980
    4      C      -3.9368351558     1.2865216878     0.0230765179
    5      C      -2.4560892521     1.0681890316     0.2417096847
    6      O      -1.9623407521     0.2364582720    -0.7225778619
    7      C      -0.6223611976    -0.1947052890    -0.4621831892
    8      C       0.3682914277     0.6771410462    -1.2267837276
    9      O       1.4909209858     0.9929243263    -0.3884177018
   10      C       2.4291139804     0.0197752505    -0.2792179125
   11      C       3.5236868360     0.3652444922     0.7022248551
   12      C       4.8023386320    -0.4745794455     0.5678559756
   13      C       4.9414359510    -1.2654365152    -0.7173986285
   14      O       5.7914811461    -1.0788479077    -1.5759879896
   15      O      -5.1352118356    -1.7499215565     1.9949116906
   16      O       4.2142086940    -2.4112487908    -0.8003097530
   17      O       2.1386344898    -1.1397358880    -0.5343776883
   18      C       4.2788415118    -3.3070109599    -1.8478718419
   19      C       4.1066898508     1.7877030077     0.5280894372
   20      C       4.7158565282     2.2516959856     1.8496170010
   21      C       5.9309032388     1.3518468245     1.9300486380
   22      C       5.8481488458     0.6600033654     0.5636144124
   23      O       5.2472055909     1.6156383114    -0.2741284527
   24      H       3.0701128821     0.2890117600     1.7163985182
   25      H       4.9560141361    -1.1819223296     1.4123080123
   26      H       3.3714152756     2.5401733869     0.1704909354
   27      H       5.0598315339     3.2996311199     1.6932553964
   28      H       4.0416916402     2.2186272553     2.7323572173
   29      H       6.8373983707     1.9929429602     2.0020156030
   30      H       5.9193195126     0.6098274760     2.7576883064
   31      H       6.8566763525     0.3061091116     0.2552723356
   32      O      -1.7701149434     1.7767940418     0.9691589613
   33      C      -4.7669732678    -2.8458713481     2.7468151515
   34      C      -5.5013590358    -0.3172182373    -0.7531404127
   35      C      -6.5822513861     0.6552349156    -1.2237169199
   36      C      -5.7329382641     1.8237433222    -1.6847045371
   37      C      -4.3275074184     1.2503264683    -1.4707827433
   38      O      -4.4908614427    -0.1281572243    -1.7147319833
   39      H      -5.6584593005     0.6529519392     1.2043741481
   40      H      -4.1756449933     2.2717942737     0.4836620778
   41      H      -4.1614969484    -2.5240150158     3.6209910570
   42      H      -5.9142842067    -1.3462100645    -0.6691336230
   43      H      -7.0711649283     0.2004496883    -2.1149265671
   44      H      -7.3569100377     0.9004239454    -0.4656061593
   45      H      -5.9201898509     1.9868295997    -2.7694139545
   46      H      -5.8861575083     2.7726952875    -1.1267102837
   47      H      -3.5886770777     1.7813924746    -2.1105310049
   48      H      -4.1817951672    -3.5573242165     2.1256448792
   49      H      -5.6796480594    -3.3589857636     3.1131824484
   50      H       3.5772998411    -4.1440713131    -1.6540070988
   51      H       5.3074911743    -3.7165951474    -1.9396692916
   52      H       3.9863564707    -2.8071473480    -2.7960024409
   53      H       0.6276980796     0.3051338058    -2.2426289495
   54      H      -0.1274155898     1.6598462986    -1.3790691958
   55      H      -0.4921364726    -1.2694923051    -0.7063662523
   56      H      -0.3910028538    -0.1340570020     0.6288789222
 ----------------------------------------------------------------
 Molecular Point Group                 C1    NOp =  1
 Largest Abelian Subgroup              C1    NOp =  1
 Nuclear Repulsion Energy =  3094.9733544795 hartrees
 There are      113 alpha and      113 beta electrons
 Requested basis set is STO-3G
 There are 86 shells and 176 basis functions

 Total QAlloc Memory Limit   4000 MB
 Mega-Array Size       392 MB
 MEM_STATIC part       400 MB
 A cutoff of  1.0D-12 yielded   2005 shell pairs
 There are      9427 function pairs
 
 -------------------------------------------------------
 OpenMP Integral Computing Module                       
 Release: version 1.0, May 2013, Q-Chem Inc. Pittsburgh 
 -------------------------------------------------------
 Integral Job Info:
 Integral job number is                      11
 Integral operator is                         1
 short-range coefficients                     0
 long-range coefficients              100000000
 Omega coefficients                           0
 if combine SR and LR in K                    0
 Integral screening is                        0
 Integral computing path is                   2
 max size of driver memory is            800000
 size of driver memory is                 45569
 size of scratch memory is              1046100
 max col of scratch BK array                289
 max len of scratch array in speh3           22
 max len of scratch index in speh4            8
 max int batch size is                      520
 min int batch size is                       52
 fixed nKL is                                52
 max L of basis functions is                  1
 order of int derivative is                   0
 number of shells is                         86
 number of basis is                         176
 number of cartesian basis is               176
 number of contracted shell pairs          2005
 number of primitive shell pairs          10606
 maxK2 (contraction) of shell pair            9
 max number of K2 of shell pair               1
 max number of CS2 of shell pair            282
 max number of PS2 of shell pair           1218
 mem total for path MDJ                   50922
 -------------------------------------------------------
 Smallest overlap matrix eigenvalue = 1.94E-01

 Scale SEOQF with 1.000000e-02/1.000000e-01/1.000000e-01

 Standard Electronic Orientation quadrupole field applied
 Nucleus-field energy     =     0.0000000102 hartrees
 Guess from superposition of atomic densities
 Warning:  Energy on first SCF cycle will be non-variational
 A restricted hybrid HF-DFT SCF calculation will be
 performed using Pulay DIIS extrapolation
 Exchange:     0.2000 Hartree-Fock + 0.0800 Slater + 0.7200 B88
 Correlation:  0.1900 VWN1RPA + 0.8100 LYP
 Using SG-1 standard quadrature grid
 Dispersion:   Grimme D3
 SCF converges when DIIS error is below 1.0E-08
 using 48 threads for integral computing
 -------------------------------------------------------
 OpenMP Integral computing Module                
 Release: version 1.0, May 2013, Q-Chem Inc. Pittsburgh 
 -------------------------------------------------------
 -------------------------------------------------------
 OpenMP BLAS3 based DFT computing Module                
 Release: version 1.0, May 2013, Q-Chem Inc. Pittsburgh 
 -------------------------------------------------------
 ---------------------------------------
  Cycle       Energy         DIIS Error
 ---------------------------------------
    1   -1509.4582239445      8.30E-02
    2   -1509.5955692626      1.04E-02
    3   -1507.8179653093      2.38E-02
    4   -1510.0857667587      3.36E-03
    5   -1510.1311126796      1.13E-03
    6   -1510.1367425034      2.63E-04
    7   -1510.1370179832      9.35E-05
    8   -1510.1370531183      2.87E-05
    9   -1510.1370567192      5.82E-06
   10   -1510.1370568217      3.37E-06
   11   -1510.1370568682      9.10E-07
   12   -1510.1370568719      1.84E-07
   13   -1510.1370568719      1.07E-07
   14   -1510.1370568720      3.69E-08
   15   -1510.1370568720      6.09E-09 Convergence criterion met
 ---------------------------------------
 SCF time:  CPU 111.99 s  wall 2.39 s
 SCF   energy in the final basis set = -1510.13705687
 Total energy in the final basis set = -1510.13705687
 
 --------------------------------------------------------------
 
                    Orbital Energies (a.u.)
 --------------------------------------------------------------
 
 Alpha MOs
 -- Occupied --
-18.939 -18.938 -18.933 -18.918 -18.900 -18.893 -18.865 -18.858
-18.857 -18.845 -10.117 -10.105 -10.105 -10.100 -10.086 -10.077
-10.072 -10.070 -10.069 -10.069 -10.062 -10.059 -10.042 -10.037
-10.035 -10.034 -10.019 -10.018 -10.012 -10.009  -1.050  -1.045
 -1.035  -1.031  -1.022  -1.019  -0.954  -0.947  -0.943  -0.934
 -0.783  -0.778  -0.745  -0.739  -0.734  -0.723  -0.705  -0.686
 -0.672  -0.630  -0.605  -0.589  -0.556  -0.548  -0.539  -0.532
 -0.529  -0.521  -0.500  -0.489  -0.482  -0.477  -0.463  -0.455
 -0.448  -0.443  -0.436  -0.431  -0.424  -0.420  -0.415  -0.411
 -0.404  -0.397  -0.387  -0.382  -0.373  -0.364  -0.358  -0.355
 -0.347  -0.346  -0.342  -0.340  -0.333  -0.324  -0.322  -0.316
 -0.312  -0.310  -0.305  -0.299  -0.293  -0.287  -0.285  -0.282
 -0.274  -0.247  -0.238  -0.237  -0.231  -0.230  -0.214  -0.187
 -0.179  -0.164  -0.161  -0.154  -0.150  -0.148  -0.143  -0.133
 -0.128
 -- Virtual --
  0.105   0.108   0.116   0.126   0.239   0.250   0.252   0.269
  0.302   0.315   0.325   0.334   0.339   0.344   0.346   0.358
  0.369   0.378   0.385   0.388   0.389   0.393   0.396   0.398
  0.404   0.408   0.411   0.415   0.415   0.420   0.422   0.429
  0.433   0.436   0.437   0.447   0.450   0.456   0.458   0.462
  0.467   0.470   0.472   0.478   0.483   0.484   0.489   0.492
  0.496   0.505   0.511   0.520   0.528   0.530   0.554   0.559
  0.573   0.578   0.584   0.682   0.684   0.699   0.699
 --------------------------------------------------------------
 
          Ground-State Mulliken Net Atomic Charges

     Atom                 Charge (a.u.)
  ----------------------------------------
      1 O                    -0.233908
      2 C                     0.239575
      3 C                    -0.081611
      4 C                    -0.083275
      5 C                     0.239499
      6 O                    -0.187124
      7 C                    -0.037962
      8 C                    -0.036384
      9 O                    -0.189211
     10 C                     0.226109
     11 C                    -0.080964
     12 C                    -0.078796
     13 C                     0.236470
     14 O                    -0.237335
     15 O                    -0.213090
     16 O                    -0.203345
     17 O                    -0.227682
     18 C                    -0.095474
     19 C                     0.036620
     20 C                    -0.142053
     21 C                    -0.144843
     22 C                     0.042304
     23 O                    -0.211258
     24 H                     0.090489
     25 H                     0.088014
     26 H                     0.089175
     27 H                     0.073804
     28 H                     0.071587
     29 H                     0.075638
     30 H                     0.070517
     31 H                     0.089102
     32 O                    -0.232318
     33 C                    -0.097964
     34 C                     0.039909
     35 C                    -0.141188
     36 C                    -0.143983
     37 C                     0.042008
     38 O                    -0.205743
     39 H                     0.086639
     40 H                     0.084493
     41 H                     0.087943
     42 H                     0.086268
     43 H                     0.075520
     44 H                     0.073089
     45 H                     0.076145
     46 H                     0.072582
     47 H                     0.084601
     48 H                     0.088435
     49 H                     0.095234
     50 H                     0.093760
     51 H                     0.082661
     52 H                     0.085429
     53 H                     0.092070
     54 H                     0.092833
     55 H                     0.098689
     56 H                     0.098300
  ----------------------------------------
  Sum of atomic charges =    -0.000000

 -----------------------------------------------------------------
                    Cartesian Multipole Moments
 -----------------------------------------------------------------
    Charge (ESU x 10^10)
                 0.0000
    Dipole Moment (Debye)
         X      -3.5060      Y      -0.5991      Z       1.7810
       Tot       3.9778
    Quadrupole Moments (Debye-Ang)
        XX    -150.0133     XY      -2.7820     YY    -154.1063
        XZ       7.6608     YZ      -3.8564     ZZ    -156.3242
    Octopole Moments (Debye-Ang^2)
       XXX    -157.2930    XXY     -22.3114    XYY     -12.3592
       YYY     -50.9803    XXZ      92.4342    XYZ      36.5149
       YYZ      -4.5294    XZZ      -9.7306    YZZ     -19.8229
       ZZZ       4.6981
    Hexadecapole Moments (Debye-Ang^3)
      XXXX  -18186.3936   XXXY     -79.8078   XXYY   -3252.5879
      XYYY       9.0734   YYYY   -2217.8573   XXXZ     271.6677
      XXYZ     -37.8318   XYYZ    -117.7086   YYYZ      -2.1040
      XXZZ   -3352.8618   XYZZ      23.4171   YYZZ    -642.3274
      XZZZ    -161.7957   YZZZ     -49.1847   ZZZZ   -1747.0061
 -----------------------------------------------------------------
 Calculating analytic gradient of the SCF energy
 Gradient of SCF Energy
            1           2           3           4           5           6
    1  -0.0765985  -0.0257666   0.0411687   0.0203669   0.0124423   0.0145630
    2  -0.0011104   0.0139553  -0.0188487  -0.0312204  -0.0167615   0.0442533
    3  -0.0028946   0.0056686  -0.0420621  -0.0198590   0.0010442   0.0408385
            7           8           9          10          11          12
    1  -0.0138210   0.0057956  -0.0025468   0.0015027   0.0084331   0.0047206
    2   0.0333519  -0.0224800  -0.0799920   0.0242349  -0.0151131   0.0268773
    3  -0.0266865   0.0229050  -0.0007133  -0.0271910  -0.0252880  -0.0377371
           13          14          15          16          17          18
    1  -0.0172407  -0.0507978   0.1133346   0.0691041   0.0107688  -0.0187775
    2   0.0162595  -0.0310647  -0.0444988   0.0079996   0.0658951   0.0180052
    3   0.0192922   0.0491477   0.0244895  -0.1005659   0.0348354   0.0504068
           19          20          21          22          23          24
    1   0.0595465   0.0136857  -0.0293635  -0.0623535  -0.0235436  -0.0027260
    2  -0.0362099  -0.0398337   0.0064595   0.0410734  -0.0339895   0.0035785
    3  -0.0148549  -0.0334265  -0.0360165  -0.0095499   0.0763012   0.0054120
           25          26          27          28          29          30
    1   0.0046484  -0.0036667   0.0070596  -0.0032529   0.0021339  -0.0009197
    2  -0.0047428   0.0063304   0.0062596   0.0006498   0.0133574  -0.0084846
    3   0.0019618   0.0113189  -0.0066936   0.0078317  -0.0010238   0.0032122
           31          32          33          34          35          36
    1   0.0065139  -0.0334148  -0.0383482   0.0458225   0.0522706   0.0140066
    2  -0.0045488  -0.0208585   0.0377911   0.0434166   0.0052379  -0.0430099
    3   0.0120432  -0.0424806  -0.0256855  -0.0252529   0.0034072   0.0161390
           37          38          39          40          41          42
    1  -0.0338145  -0.0396032  -0.0013817  -0.0006815  -0.0042785  -0.0116691
    2  -0.0555548   0.0546845   0.0012153   0.0073596   0.0072783   0.0013264
    3   0.0181513   0.0542633   0.0067741   0.0019980  -0.0032704   0.0054174
           43          44          45          46          47          48
    1   0.0022518  -0.0062444  -0.0053262   0.0016929  -0.0021444  -0.0045161
    2  -0.0027894   0.0024648  -0.0065708   0.0065309   0.0135309   0.0056341
    3  -0.0108613   0.0048364  -0.0094124   0.0054637   0.0016053  -0.0052275
           49          50          51          52          53          54
    1   0.0013462   0.0006492  -0.0017007  -0.0027554  -0.0040341  -0.0003621
    2  -0.0028772  -0.0023920   0.0037532   0.0053368   0.0068153  -0.0008717
    3   0.0018652  -0.0029554   0.0083477   0.0069577  -0.0048434   0.0016656
           55          56
    1   0.0070612   0.0007601
    2  -0.0004013  -0.0066920
    3   0.0075902   0.0033611
 Max gradient component =       1.133E-01
 RMS gradient           =       2.795E-02
 Gradient time:  CPU 31.06 s  wall 0.67 s
 Geometry Optimization Parameters
   NAtoms,    NIC,     NZ,  NCons,   NDum,   NFix, NCnnct, MaxDiis
       56     458       0       9       0       0       0       0


** CONSTRAINED OPTIMIZATION IN DELOCALIZED INTERNAL COORDINATES **
   Searching for a Minimum

   Optimization Cycle:   1

                       Coordinates (Angstroms)
     ATOM                X               Y               Z
      1  O        -3.0626311517   -1.1468523437    1.4711162723
      2  C        -4.2580224663   -0.9001207365    1.3992180437
      3  C        -4.8770774460    0.1934455001    0.5569136980
      4  C        -3.9368351558    1.2865216878    0.0230765179
      5  C        -2.4560892521    1.0681890316    0.2417096847
      6  O        -1.9623407521    0.2364582720   -0.7225778619
      7  C        -0.6223611976   -0.1947052890   -0.4621831892
      8  C         0.3682914277    0.6771410462   -1.2267837276
      9  O         1.4909209858    0.9929243263   -0.3884177018
     10  C         2.4291139804    0.0197752505   -0.2792179125
     11  C         3.5236868360    0.3652444922    0.7022248551
     12  C         4.8023386320   -0.4745794455    0.5678559756
     13  C         4.9414359510   -1.2654365152   -0.7173986285
     14  O         5.7914811461   -1.0788479077   -1.5759879896
     15  O        -5.1352118356   -1.7499215565    1.9949116906
     16  O         4.2142086940   -2.4112487908   -0.8003097530
     17  O         2.1386344898   -1.1397358880   -0.5343776883
     18  C         4.2788415118   -3.3070109599   -1.8478718419
     19  C         4.1066898508    1.7877030077    0.5280894372
     20  C         4.7158565282    2.2516959856    1.8496170010
     21  C         5.9309032388    1.3518468245    1.9300486380
     22  C         5.8481488458    0.6600033654    0.5636144124
     23  O         5.2472055909    1.6156383114   -0.2741284527
     24  H         3.0701128821    0.2890117600    1.7163985182
     25  H         4.9560141361   -1.1819223296    1.4123080123
     26  H         3.3714152756    2.5401733869    0.1704909354
     27  H         5.0598315339    3.2996311199    1.6932553964
     28  H         4.0416916402    2.2186272553    2.7323572173
     29  H         6.8373983707    1.9929429602    2.0020156030
     30  H         5.9193195126    0.6098274760    2.7576883064
     31  H         6.8566763525    0.3061091116    0.2552723356
     32  O        -1.7701149434    1.7767940418    0.9691589613
     33  C        -4.7669732678   -2.8458713481    2.7468151515
     34  C        -5.5013590358   -0.3172182373   -0.7531404127
     35  C        -6.5822513861    0.6552349156   -1.2237169199
     36  C        -5.7329382641    1.8237433222   -1.6847045371
     37  C        -4.3275074184    1.2503264683   -1.4707827433
     38  O        -4.4908614427   -0.1281572243   -1.7147319833
     39  H        -5.6584593005    0.6529519392    1.2043741481
     40  H        -4.1756449933    2.2717942737    0.4836620778
     41  H        -4.1614969484   -2.5240150158    3.6209910570
     42  H        -5.9142842067   -1.3462100645   -0.6691336230
     43  H        -7.0711649283    0.2004496883   -2.1149265671
     44  H        -7.3569100377    0.9004239454   -0.4656061593
     45  H        -5.9201898509    1.9868295997   -2.7694139545
     46  H        -5.8861575083    2.7726952875   -1.1267102837
     47  H        -3.5886770777    1.7813924746   -2.1105310049
     48  H        -4.1817951672   -3.5573242165    2.1256448792
     49  H        -5.6796480594   -3.3589857636    3.1131824484
     50  H         3.5772998411   -4.1440713131   -1.6540070988
     51  H         5.3074911743   -3.7165951474   -1.9396692916
     52  H         3.9863564707   -2.8071473480   -2.7960024409
     53  H         0.6276980796    0.3051338058   -2.2426289495
     54  H        -0.1274155898    1.6598462986   -1.3790691958
     55  H        -0.4921364726   -1.2694923051   -0.7063662523
     56  H        -0.3910028538   -0.1340570020    0.6288789222
   Point Group: c1    Number of degrees of freedom:   162


   Energy is  -1510.137056872

              Constraints and their Current Values
                                        Value     Constraint
   Dihedral:        1   2   3   4      -15.667      -15.667
   Dihedral:        3   4   5   6       81.929       81.929
   Dihedral:        4   5   6   7     -170.342     -170.342
   Dihedral:        5   6   7   8      -96.993      -96.993
   Dihedral:        6   7   8   9      137.835      137.836
   Dihedral:        7   8   9  10       79.977       79.978
   Dihedral:        8   9  10  11     -175.243     -175.243
   Dihedral:        9  10  11  12     -162.652     -162.652
   Dihedral:       11  12  13  14      114.505      114.505

 Attempting to Generate Delocalized Internal Coordinates

   Using Lagrange Multiplier Algorithm


167 Hessian modes will be used to form the next step
  Hessian Eigenvalues:
    -0.977753   -0.977753   -0.977753   -0.977753   -0.977753   -0.977753
    -0.977753    0.045000    0.045000    0.045000    0.045000    0.045244
     0.045563    0.045600    0.045626    0.046195    0.048055    0.048846
     0.048891    0.053858    0.059901    0.059979    0.062129    0.062774
     0.066885    0.067081    0.067537    0.068026    0.068349    0.070449
     0.071947    0.073905    0.074064    0.075746    0.075814    0.076774
     0.077433    0.082404    0.082558    0.083274    0.083766    0.083955
     0.084412    0.085113    0.085293    0.085615    0.085830    0.086719
     0.086993    0.088279    0.088723    0.088979    0.089285    0.089867
     0.089882    0.093650    0.094000    0.096601    0.096668    0.111521
     0.111649    0.114637    0.114648    0.115890    0.115922    0.116493
     0.117742    0.118275    0.119010    0.119368    0.123840    0.125111
     0.130850    0.132165    0.132497    0.139841    0.141913    0.160000
     0.160000    0.160000    0.160000    0.160000    0.160000    0.171485
     0.172211    0.172435    0.173934    0.219074    0.219883    0.227894
     0.238427    0.238892    0.243262    0.247501    0.248974    0.250000
     0.250000    0.250000    0.250000    0.250000    0.250000    0.250000
     0.250000    0.258301    0.258814    0.266951    0.267300    0.277839
     0.279301    0.281014    0.284061    0.295116    0.295397    0.298747
     0.308060    0.310698    0.310867    0.313315    0.318731    0.321830
     0.321842    0.322211    0.322226    0.322300    0.323086    0.323245
     0.323383    0.323468    0.323592    0.323653    0.323965    0.324284
     0.324459    0.324648    0.324706    0.324756    0.324799    0.324882
     0.324917    0.324924    0.324951    0.326167    0.326771    0.326806
     0.367005    0.370344    0.381603    0.385755    0.401014    0.407715
     0.491319    0.492573    0.517919    0.530205    0.531806    0.537329
     0.929849    0.941950    0.942731    0.943833    1.022753    1.022753
     1.022753    1.022753    1.022753    1.022753    1.022753

 Minimum Search - Taking P-RFO Step
 Searching for Lamda that Maximizes Along the Constraint modes Only
 Value Taken    Lamda =   0.00066001
 Searching for Lamda that Minimizes Along All other modes
 Value Taken    Lamda =  -0.17259783
 Calculated Step too Large.  Step scaled by  0.517464
 Step Taken.  Stepsize is  0.300000

                             Maximum     Tolerance    Cnvgd?
         Gradient            0.111148       0.000300      NO
         Displacement        0.096651       0.001200      NO
         Energy change     *********       0.000001      NO


 New Cartesian Coordinates Obtained by Inverse Iteration

 Displacement from previous Coordinates is:  1.199898
 Adding empirical dispersion correction 
 ----------------------------------------------------------------
 Doing -D3(op) with
 s6 =   1.00000
 s8 =   0.78311
 a1 =   0.30000
 a2 =   4.25000
 n  =  10.00000
 -D3 energy without 3body term =     -0.0650180598 hartrees
 ----------------------------------------------------------------
             Standard Nuclear Orientation (Angstroms)
    I     Atom           X                Y                Z
 ----------------------------------------------------------------
    1      O      -3.0713195803    -1.1186766537     1.4517563542
    2      C      -4.2909402204    -0.8959467605     1.3949964875
    3      C      -4.9538006086     0.1995392906     0.5591229564
    4      C      -4.0152864497     1.3152677304     0.0296894208
    5      C      -2.5117544471     1.0901623294     0.2544542626
    6      O      -2.0083444223     0.2536673786    -0.7341002890
    7      C      -0.6545826001    -0.1877601320    -0.4736621762
    8      C       0.3694906250     0.6925679143    -1.2310533594
    9      O       1.5108759595     1.0049429102    -0.3907280489
   10      C       2.4468352554    -0.0098451699    -0.3036427119
   11      C       3.5602495697     0.3472677774     0.6911997242
   12      C       4.8678920071    -0.4950820314     0.5757407314
   13      C       5.0416032940    -1.3124017930    -0.7139695289
   14      O       5.9191451976    -1.1192795228    -1.5697131349
   15      O      -5.1954050191    -1.7501043823     1.9875205407
   16      O       4.2994337690    -2.4743119212    -0.7493830378
   17      O       2.1436791495    -1.1762518895    -0.5955886001
   18      C       4.4259175405    -3.3762332966    -1.8212495015
   19      C       4.1378417153     1.7916862957     0.5086168892
   20      C       4.7395768208     2.2687726957     1.8537155576
   21      C       5.9788360045     1.3643457556     1.9486452705
   22      C       5.9200360795     0.6580759738     0.5648453820
   23      O       5.3076979767     1.6209110594    -0.3032659094
   24      H       3.1036819155     0.2686729496     1.7003223060
   25      H       5.0148452181    -1.1899847433     1.4279460655
   26      H       3.3991833474     2.5299995108     0.1341318360
   27      H       5.0717667786     3.3162428308     1.7043885904
   28      H       4.0577924381     2.2303501803     2.7246553165
   29      H       6.8804749226     2.0022485560     2.0296130056
   30      H       5.9622228741     0.6288063355     2.7760287011
   31      H       6.9293623678     0.3093338518     0.2612720853
   32      O      -1.8140099243     1.7811710638     1.0106274026
   33      C      -4.7502746728    -2.8552479850     2.7361270055
   34      C      -5.5910078684    -0.3137375357    -0.7691855230
   35      C      -6.6965906021     0.6763273334    -1.2155399601
   36      C      -5.8416108804     1.8747984386    -1.6723981609
   37      C      -4.4108464701     1.2964949500    -1.4837077153
   38      O      -4.5700412939    -0.1041181530    -1.7545817104
   39      H      -5.7364909063     0.6420734504     1.2116593322
   40      H      -4.2585447247     2.2889833951     0.5023722888
   41      H      -4.1320985603    -2.5306939607     3.6023344056
   42      H      -5.9849464006    -1.3490459367    -0.6982673651
   43      H      -7.1973043446     0.2366800267    -2.1016783900
   44      H      -7.4588549823     0.9034024450    -0.4459140705
   45      H      -6.0372653955     2.0625011748    -2.7464408000
   46      H      -5.9926720228     2.8086814703    -1.0975003742
   47      H      -3.6750399813     1.8312157171    -2.1199454616
   48      H      -4.1526660101    -3.5516575174     2.1067735913
   49      H      -5.6386964880    -3.3975837427     3.1182854058
   50      H       3.7380073812    -4.2271394620    -1.6421393720
   51      H       5.4647236395    -3.7685903997    -1.8968070408
   52      H       4.1504893435    -2.8941863202    -2.7853961511
   53      H       0.6307463823     0.3147339958    -2.2435405812
   54      H      -0.1138527977     1.6819318841    -1.3833389029
   55      H      -0.5374044962    -1.2612926631    -0.7307601504
   56      H      -0.4292504342    -0.1316852144     0.6171511441
 ----------------------------------------------------------------
 Molecular Point Group                 C1    NOp =  1
 Largest Abelian Subgroup              C1    NOp =  1
 Nuclear Repulsion Energy =  3057.2235249884 hartrees
 There are      113 alpha and      113 beta electrons
 Applying Cartesian multipole field
    Component          Value
    ---------          -----
     (2,0,0)        1.00000E-12
     (0,2,0)        2.00000E-11
     (0,0,2)       -3.00000E-11
 Nucleus-field energy     =     0.0000000116 hartrees
 Requested basis set is STO-3G
 There are 86 shells and 176 basis functions
 A cutoff of  1.0D-12 yielded   1981 shell pairs
 There are      9325 function pairs
 Smallest overlap matrix eigenvalue = 2.02E-01
 Guess MOs from SCF MO coefficient file
 Reading MOs from coefficient file
 Reading MOs from coefficient file
 A restricted hybrid HF-DFT SCF calculation will be
 performed using Pulay DIIS extrapolation
 Exchange:     0.2000 Hartree-Fock + 0.0800 Slater + 0.7200 B88
 Correlation:  0.1900 VWN1RPA + 0.8100 LYP
 Using SG-1 standard quadrature grid
 Dispersion:   Grimme D3
 SCF converges when DIIS error is below 1.0E-08
 Geometry optimization detected.  Setting ReadMinima to 0
 Setting SaveMinima to 0
 using 48 threads for integral computing
 -------------------------------------------------------
 OpenMP Integral computing Module                
 Release: version 1.0, May 2013, Q-Chem Inc. Pittsburgh 
 -------------------------------------------------------
 -------------------------------------------------------
 OpenMP BLAS3 based DFT computing Module                
 Release: version 1.0, May 2013, Q-Chem Inc. Pittsburgh 
 -------------------------------------------------------
 ---------------------------------------
  Cycle       Energy         DIIS Error
 ---------------------------------------
    1   -1510.0326758180      3.23E-03
    2   -1510.2044883964      9.11E-04
    3   -1510.1995892999      1.41E-03
    4   -1510.2079652585      2.78E-04
    5   -1510.2083250086      5.54E-05
    6   -1510.2083391544      1.33E-05
    7   -1510.2083396660      8.98E-06
    8   -1510.2083399862      3.04E-06
    9   -1510.2083400300      5.12E-07
   10   -1510.2083400308      3.47E-07
   11   -1510.2083400312      1.29E-07
   12   -1510.2083400313      1.96E-08
   13   -1510.2083400313      9.33E-09 Convergence criterion met
 ---------------------------------------
 SCF time:  CPU 95.60 s  wall 2.00 s
 SCF   energy in the final basis set = -1510.20834003
 Total energy in the final basis set = -1510.20834003
 
 --------------------------------------------------------------
 
                    Orbital Energies (a.u.)
 --------------------------------------------------------------
 
 Alpha MOs
 -- Occupied --
-18.943 -18.936 -18.928 -18.923 -18.899 -18.890 -18.869 -18.861
-18.857 -18.849 -10.113 -10.100 -10.099 -10.095 -10.083 -10.074
-10.069 -10.067 -10.066 -10.066 -10.058 -10.057 -10.042 -10.036
-10.035 -10.034 -10.019 -10.018 -10.012 -10.010  -1.039  -1.030
 -1.021  -1.019  -1.003  -0.998  -0.948  -0.938  -0.934  -0.928
 -0.776  -0.769  -0.736  -0.730  -0.725  -0.715  -0.698  -0.680
 -0.666  -0.623  -0.601  -0.585  -0.553  -0.544  -0.538  -0.531
 -0.524  -0.515  -0.494  -0.483  -0.475  -0.470  -0.456  -0.448
 -0.444  -0.437  -0.430  -0.426  -0.419  -0.415  -0.410  -0.404
 -0.398  -0.392  -0.382  -0.376  -0.369  -0.357  -0.353  -0.351
 -0.345  -0.343  -0.339  -0.336  -0.330  -0.325  -0.322  -0.316
 -0.310  -0.307  -0.302  -0.298  -0.292  -0.284  -0.281  -0.279
 -0.272  -0.247  -0.241  -0.238  -0.234  -0.230  -0.222  -0.185
 -0.181  -0.165  -0.160  -0.152  -0.150  -0.147  -0.142  -0.135
 -0.133
 -- Virtual --
  0.100   0.101   0.113   0.118   0.232   0.247   0.248   0.263
  0.291   0.301   0.312   0.320   0.333   0.339   0.343   0.352
  0.358   0.370   0.374   0.375   0.378   0.381   0.386   0.388
  0.391   0.400   0.402   0.404   0.409   0.417   0.417   0.420
  0.423   0.428   0.431   0.434   0.442   0.443   0.444   0.452
  0.457   0.459   0.462   0.467   0.470   0.473   0.476   0.480
  0.482   0.494   0.499   0.501   0.505   0.514   0.536   0.551
  0.558   0.559   0.566   0.657   0.660   0.672   0.675
 --------------------------------------------------------------
 
          Ground-State Mulliken Net Atomic Charges

     Atom                 Charge (a.u.)
  ----------------------------------------
      1 O                    -0.223906
      2 C                     0.227728
      3 C                    -0.080654
      4 C                    -0.082041
      5 C                     0.229091
      6 O                    -0.182540
      7 C                    -0.041213
      8 C                    -0.040533
      9 O                    -0.182525
     10 C                     0.215263
     11 C                    -0.079263
     12 C                    -0.077671
     13 C                     0.223836
     14 O                    -0.228717
     15 O                    -0.198771
     16 O                    -0.190372
     17 O                    -0.219359
     18 C                    -0.103683
     19 C                     0.031606
     20 C                    -0.143129
     21 C                    -0.145614
     22 C                     0.036510
     23 O                    -0.201775
     24 H                     0.089765
     25 H                     0.086834
     26 H                     0.089441
     27 H                     0.074469
     28 H                     0.072510
     29 H                     0.075699
     30 H                     0.071009
     31 H                     0.088935
     32 O                    -0.227193
     33 C                    -0.106279
     34 C                     0.035317
     35 C                    -0.142259
     36 C                    -0.144669
     37 C                     0.037037
     38 O                    -0.196653
     39 H                     0.086153
     40 H                     0.084259
     41 H                     0.088581
     42 H                     0.086008
     43 H                     0.076036
     44 H                     0.073892
     45 H                     0.076531
     46 H                     0.073187
     47 H                     0.084813
     48 H                     0.089071
     49 H                     0.094981
     50 H                     0.093450
     51 H                     0.083318
     52 H                     0.086319
     53 H                     0.091139
     54 H                     0.091510
     55 H                     0.097181
     56 H                     0.097339
  ----------------------------------------
  Sum of atomic charges =     0.000000

 -----------------------------------------------------------------
                    Cartesian Multipole Moments
 -----------------------------------------------------------------
    Charge (ESU x 10^10)
                 0.0000
    Dipole Moment (Debye)
         X      -3.4848      Y      -0.7104      Z       1.8576
       Tot       4.0124
    Quadrupole Moments (Debye-Ang)
        XX    -149.3139     XY      -3.2478     YY    -153.3429
        XZ       7.3940     YZ      -3.9650     ZZ    -156.2959
    Octopole Moments (Debye-Ang^2)
       XXX    -161.2013    XXY     -23.4498    XYY     -12.1276
       YYY     -52.2974    XXZ      92.2576    XYZ      38.7858
       YYZ      -4.5523    XZZ      -7.4677    YZZ     -20.4810
       ZZZ       6.0173
    Hexadecapole Moments (Debye-Ang^3)
      XXXX  -18676.9718   XXXY     -57.4049   XXYY   -3334.0133
      XYYY      57.3753   YYYY   -2266.1713   XXXZ     283.7358
      XXYZ     -32.1093   XYYZ    -124.2186   YYYZ      -2.2435
      XXZZ   -3437.3365   XYZZ      41.1769   YYZZ    -646.9977
      XZZZ    -172.6133   YZZZ     -50.7220   ZZZZ   -1746.7706
 -----------------------------------------------------------------
 Calculating analytic gradient of the SCF energy
 Gradient of SCF Energy
            1           2           3           4           5           6
    1  -0.0341716  -0.0347974   0.0290564   0.0120909   0.0017071   0.0114831
    2  -0.0038603   0.0137462  -0.0125254  -0.0184312  -0.0178563   0.0305943
    3  -0.0039941   0.0085431  -0.0293304  -0.0100916  -0.0002754   0.0280541
            7           8           9          10          11          12
    1  -0.0125794   0.0088885  -0.0074065   0.0097133   0.0014545   0.0056480
    2   0.0201158  -0.0178717  -0.0504170   0.0315589  -0.0106170   0.0131002
    3  -0.0212704   0.0137402   0.0012164  -0.0244095  -0.0099457  -0.0221487
           13          14          15          16          17          18
    1  -0.0262810  -0.0195870   0.0790092   0.0501580   0.0014477  -0.0162651
    2   0.0095720  -0.0168948  -0.0297362   0.0035235   0.0278187   0.0131521
    3   0.0217984   0.0228068   0.0151630  -0.0700983   0.0249234   0.0387120
           19          20          21          22          23          24
    1   0.0367245   0.0054289  -0.0144765  -0.0375950  -0.0134369  -0.0022179
    2  -0.0213430  -0.0230987   0.0024856   0.0258103  -0.0205141   0.0030506
    3  -0.0143611  -0.0171406  -0.0191553  -0.0118741   0.0454049   0.0027247
           25          26          27          28          29          30
    1   0.0040807  -0.0033453   0.0047020  -0.0012568   0.0000103   0.0000871
    2  -0.0035492   0.0047686   0.0032857   0.0019983   0.0092261  -0.0055311
    3   0.0002275   0.0105740  -0.0051748   0.0049519  -0.0009368   0.0012822
           31          32          33          34          35          36
    1   0.0047446  -0.0161696  -0.0311868   0.0304013   0.0273718   0.0086800
    2  -0.0041755  -0.0052523   0.0274914   0.0238546   0.0021902  -0.0212268
    3   0.0114312  -0.0239897  -0.0182677  -0.0175498   0.0046599   0.0083569
           37          38          39          40          41          42
    1  -0.0186977  -0.0238811  -0.0003606  -0.0003390  -0.0021065  -0.0097676
    2  -0.0374501   0.0331405   0.0007334   0.0041552   0.0038947   0.0018394
    3   0.0073216   0.0334933   0.0050343   0.0011778  -0.0004014   0.0049966
           43          44          45          46          47          48
    1   0.0024294  -0.0047049  -0.0038246   0.0017638  -0.0024166  -0.0022539
    2  -0.0016898   0.0009976  -0.0051731   0.0040833   0.0114861   0.0017221
    3  -0.0068963   0.0017581  -0.0055222   0.0026258   0.0026373  -0.0032406
           49          50          51          52          53          54
    1   0.0011013   0.0004106  -0.0001022  -0.0022876  -0.0036339  -0.0001153
    2  -0.0029645  -0.0025536   0.0009978   0.0030590   0.0063409  -0.0001462
    3   0.0019152  -0.0027441   0.0044283   0.0025689  -0.0043136   0.0012572
           55          56
    1   0.0062015   0.0004697
    2  -0.0012150  -0.0057005
    3   0.0073082   0.0020392
 Max gradient component =       7.901E-02
 RMS gradient           =       1.811E-02
 Gradient time:  CPU 29.55 s  wall 0.63 s
 Geometry Optimization Parameters
   NAtoms,    NIC,     NZ,  NCons,   NDum,   NFix, NCnnct, MaxDiis
       56     458       0       9       0       0       0       0

 Cartesian Hessian Update
 Hessian Updated using BFGS Update


** CONSTRAINED OPTIMIZATION IN DELOCALIZED INTERNAL COORDINATES **
   Searching for a Minimum

   Optimization Cycle:   2

                       Coordinates (Angstroms)
     ATOM                X               Y               Z
      1  O        -3.0713195803   -1.1186766537    1.4517563542
      2  C        -4.2909402204   -0.8959467605    1.3949964875
      3  C        -4.9538006086    0.1995392906    0.5591229564
      4  C        -4.0152864497    1.3152677304    0.0296894208
      5  C        -2.5117544471    1.0901623294    0.2544542626
      6  O        -2.0083444223    0.2536673786   -0.7341002890
      7  C        -0.6545826001   -0.1877601320   -0.4736621762
      8  C         0.3694906250    0.6925679143   -1.2310533594
      9  O         1.5108759595    1.0049429102   -0.3907280489
     10  C         2.4468352554   -0.0098451699   -0.3036427119
     11  C         3.5602495697    0.3472677774    0.6911997242
     12  C         4.8678920071   -0.4950820314    0.5757407314
     13  C         5.0416032940   -1.3124017930   -0.7139695289
     14  O         5.9191451976   -1.1192795228   -1.5697131349
     15  O        -5.1954050191   -1.7501043823    1.9875205407
     16  O         4.2994337690   -2.4743119212   -0.7493830378
     17  O         2.1436791495   -1.1762518895   -0.5955886001
     18  C         4.4259175405   -3.3762332966   -1.8212495015
     19  C         4.1378417153    1.7916862957    0.5086168892
     20  C         4.7395768208    2.2687726957    1.8537155576
     21  C         5.9788360045    1.3643457556    1.9486452705
     22  C         5.9200360795    0.6580759738    0.5648453820
     23  O         5.3076979767    1.6209110594   -0.3032659094
     24  H         3.1036819155    0.2686729496    1.7003223060
     25  H         5.0148452181   -1.1899847433    1.4279460655
     26  H         3.3991833474    2.5299995108    0.1341318360
     27  H         5.0717667786    3.3162428308    1.7043885904
     28  H         4.0577924381    2.2303501803    2.7246553165
     29  H         6.8804749226    2.0022485560    2.0296130056
     30  H         5.9622228741    0.6288063355    2.7760287011
     31  H         6.9293623678    0.3093338518    0.2612720853
     32  O        -1.8140099243    1.7811710638    1.0106274026
     33  C        -4.7502746728   -2.8552479850    2.7361270055
     34  C        -5.5910078684   -0.3137375357   -0.7691855230
     35  C        -6.6965906021    0.6763273334   -1.2155399601
     36  C        -5.8416108804    1.8747984386   -1.6723981609
     37  C        -4.4108464701    1.2964949500   -1.4837077153
     38  O        -4.5700412939   -0.1041181530   -1.7545817104
     39  H        -5.7364909063    0.6420734504    1.2116593322
     40  H        -4.2585447247    2.2889833951    0.5023722888
     41  H        -4.1320985603   -2.5306939607    3.6023344056
     42  H        -5.9849464006   -1.3490459367   -0.6982673651
     43  H        -7.1973043446    0.2366800267   -2.1016783900
     44  H        -7.4588549823    0.9034024450   -0.4459140705
     45  H        -6.0372653955    2.0625011748   -2.7464408000
     46  H        -5.9926720228    2.8086814703   -1.0975003742
     47  H        -3.6750399813    1.8312157171   -2.1199454616
     48  H        -4.1526660101   -3.5516575174    2.1067735913
     49  H        -5.6386964880   -3.3975837427    3.1182854058
     50  H         3.7380073812   -4.2271394620   -1.6421393720
     51  H         5.4647236395   -3.7685903997   -1.8968070408
     52  H         4.1504893435   -2.8941863202   -2.7853961511
     53  H         0.6307463823    0.3147339958   -2.2435405812
     54  H        -0.1138527977    1.6819318841   -1.3833389029
     55  H        -0.5374044962   -1.2612926631   -0.7307601504
     56  H        -0.4292504342   -0.1316852144    0.6171511441
   Point Group: c1    Number of degrees of freedom:   162


   Energy is  -1510.208340031

              Constraints and their Current Values
                                        Value     Constraint
   Dihedral:        1   2   3   4      -15.689      -15.667
   Dihedral:        3   4   5   6       81.929       81.929
   Dihedral:        4   5   6   7     -170.343     -170.342
   Dihedral:        5   6   7   8      -96.993      -96.993
   Dihedral:        6   7   8   9      137.795      137.836
   Dihedral:        7   8   9  10       79.988       79.978
   Dihedral:        8   9  10  11     -175.228     -175.243
   Dihedral:        9  10  11  12     -162.705     -162.652
   Dihedral:       11  12  13  14      114.532      114.505
 Hessian Updated using BFGS Update

   Using Lagrange Multiplier Algorithm


155 Hessian modes will be used to form the next step
  Hessian Eigenvalues:
    -0.977753   -0.977753   -0.977753   -0.977753   -0.977753   -0.977753
    -0.977498    0.044999    0.045000    0.045237    0.045563    0.045587
     0.045607    0.046247    0.047921    0.048847    0.048890    0.053826
     0.059837    0.059958    0.062110    0.062864    0.066879    0.067086
     0.067546    0.068032    0.068350    0.070469    0.071955    0.073886
     0.074022    0.075738    0.075821    0.076695    0.077423    0.082403
     0.082568    0.083249    0.083775    0.083928    0.084495    0.085129
     0.085167    0.085620    0.085886    0.086718    0.087004    0.088268
     0.088707    0.088972    0.089306    0.089872    0.089892    0.093648
     0.094033    0.096601    0.096668    0.111550    0.111665    0.114642
     0.114677    0.115890    0.115922    0.116491    0.117693    0.118268
     0.118973    0.119368    0.123834    0.125123    0.130892    0.132141
     0.132486    0.140436    0.141974    0.159608    0.161592    0.171064
     0.172154    0.172637    0.174001    0.219220    0.220412    0.225674
     0.230269    0.238546    0.238908    0.243267    0.247915    0.249242
     0.253219    0.258350    0.261230    0.267180    0.267368    0.278486
     0.280122    0.282069    0.287504    0.295245    0.296936    0.302030
     0.308723    0.310565    0.312144    0.318708    0.320383    0.321832
     0.321939    0.322219    0.322271    0.322645    0.323156    0.323379
     0.323441    0.323521    0.323614    0.323784    0.323981    0.324313
     0.324477    0.324630    0.324693    0.324753    0.324800    0.324894
     0.324921    0.324941    0.326154    0.326718    0.326792    0.330472
     0.367017    0.370310    0.382995    0.400176    0.405039    0.423199
     0.476162    0.492006    0.519244    0.526968    0.531087    0.538187
     0.930776    0.942268    0.943410    0.995696    1.022753    1.022753
     1.022753    1.022753    1.022753    1.022753    1.026568

 Minimum Search - Taking P-RFO Step
 Searching for Lamda that Maximizes Along the Constraint modes Only
 Value Taken    Lamda =   0.00002259
 Searching for Lamda that Minimizes Along All other modes
 Value Taken    Lamda =  -0.08182238
 Calculated Step too Large.  Step scaled by  0.599391
 Step Taken.  Stepsize is  0.300000

                             Maximum     Tolerance    Cnvgd?
         Gradient            0.065037       0.000300      NO
         Displacement        0.090120       0.001200      NO
         Energy change     -0.071283       0.000001      NO


 New Cartesian Coordinates Obtained by Inverse Iteration

 Displacement from previous Coordinates is:  0.890837
 Adding empirical dispersion correction 
 ----------------------------------------------------------------
 Doing -D3(op) with
 s6 =   1.00000
 s8 =   0.78311
 a1 =   0.30000
 a2 =   4.25000
 n  =  10.00000
 -D3 energy without 3body term =     -0.0650106286 hartrees
 ----------------------------------------------------------------
             Standard Nuclear Orientation (Angstroms)
    I     Atom           X                Y                Z
 ----------------------------------------------------------------
    1      O      -3.0336974230    -1.0826400467     1.4294389133
    2      C      -4.2659389869    -0.8823289622     1.3840336350
    3      C      -4.9813779865     0.2016798875     0.5497645726
    4      C      -4.0511169509     1.3338081290     0.0129956463
    5      C      -2.5324076571     1.0996781712     0.2370093653
    6      O      -2.0366933830     0.2530090982    -0.7736058946
    7      C      -0.6738677981    -0.1843876638    -0.4910716163
    8      C       0.3718485682     0.7021955763    -1.2423041836
    9      O       1.5154175340     1.0288350232    -0.3876355983
   10      C       2.4403016387    -0.0274441590    -0.3143532909
   11      C       3.5602637763     0.3356370115     0.6963349279
   12      C       4.8747647877    -0.5141189903     0.5967258429
   13      C       5.0468399807    -1.3523223189    -0.6993338984
   14      O       5.9244375516    -1.1806861524    -1.5705225866
   15      O      -5.1843281854    -1.7403259047     1.9930480820
   16      O       4.2553308829    -2.5042339030    -0.6820567749
   17      O       2.1336015883    -1.1853452168    -0.6652659613
   18      C       4.4259300190    -3.3787692157    -1.8070922328
   19      C       4.1383520991     1.7922272828     0.5150392196
   20      C       4.7337956881     2.2630629282     1.8809982473
   21      C       5.9828357498     1.3464086503     1.9840819723
   22      C       5.9422807351     0.6409357492     0.5841169042
   23      O       5.3308342178     1.6203163981    -0.3038715786
   24      H       3.1008951590     0.2504967435     1.7013947014
   25      H       5.0069917789    -1.2028545636     1.4537026143
   26      H       3.4039727933     2.5218840039     0.1197228527
   27      H       5.0637396565     3.3099623818     1.7511579845
   28      H       4.0410164721     2.2130848651     2.7386402106
   29      H       6.8879669583     1.9708005516     2.0815859214
   30      H       5.9507486542     0.6100582872     2.8059678911
   31      H       6.9465359668     0.2910463972     0.2722517851
   32      O      -1.8170290297     1.7622844152     1.0141530726
   33      C      -4.6047421959    -2.8244603140     2.7355786252
   34      C      -5.6288835480    -0.3251221823    -0.7854873287
   35      C      -6.7534716164     0.6742108865    -1.2116063938
   36      C      -5.9014119920     1.8929526145    -1.6736199549
   37      C      -4.4511155494     1.3176521047    -1.5112877547
   38      O      -4.6041893424    -0.1031854258    -1.7957512468
   39      H      -5.7651600078     0.6306604762     1.2051727688
   40      H      -4.2975112747     2.3009874978     0.4907289003
   41      H      -3.9651259135    -2.4555244572     3.5663654608
   42      H      -5.9961427269    -1.3690021265    -0.7206284897
   43      H      -7.2706835381     0.2436976816    -2.0882687481
   44      H      -7.4986351152     0.8898631650    -0.4266976252
   45      H      -6.1097275477     2.0976716202    -2.7385249994
   46      H      -6.0505990642     2.8157054315    -1.0863490097
   47      H      -3.7172715986     1.8444216003    -2.1533595975
   48      H      -3.9920107006    -3.4841512043     2.0834535955
   49      H      -5.4396662046    -3.4147103268     3.1602979062
   50      H       3.7407438063    -4.2361033075    -1.6615668852
   51      H       5.4689998224    -3.7581030221    -1.8773164212
   52      H       4.1689617429    -2.8719737670    -2.7623369096
   53      H       0.6509343643     0.3026339924    -2.2406306729
   54      H      -0.1092009577     1.6896096077    -1.4129422773
   55      H      -0.5599888845    -1.2572065495    -0.7504430298
   56      H      -0.4648418445    -0.1114789657     0.6006633739
 ----------------------------------------------------------------
 Molecular Point Group                 C1    NOp =  1
 Largest Abelian Subgroup              C1    NOp =  1
 Nuclear Repulsion Energy =  3043.9324647258 hartrees
 There are      113 alpha and      113 beta electrons
 Applying Cartesian multipole field
    Component          Value
    ---------          -----
     (2,0,0)        1.00000E-12
     (0,2,0)        2.00000E-11
     (0,0,2)       -3.00000E-11
 Nucleus-field energy     =     0.0000000113 hartrees
 Requested basis set is STO-3G
 There are 86 shells and 176 basis functions
 A cutoff of  1.0D-12 yielded   1984 shell pairs
 There are      9334 function pairs
 Smallest overlap matrix eigenvalue = 2.07E-01
 Guess MOs from SCF MO coefficient file
 Reading MOs from coefficient file
 Reading MOs from coefficient file
 A restricted hybrid HF-DFT SCF calculation will be
 performed using Pulay DIIS extrapolation
 Exchange:     0.2000 Hartree-Fock + 0.0800 Slater + 0.7200 B88
 Correlation:  0.1900 VWN1RPA + 0.8100 LYP
 Using SG-1 standard quadrature grid
 Dispersion:   Grimme D3
 SCF converges when DIIS error is below 1.0E-08
 Geometry optimization detected.  Setting ReadMinima to 0
 Setting SaveMinima to 0
 using 48 threads for integral computing
 -------------------------------------------------------
 OpenMP Integral computing Module                
 Release: version 1.0, May 2013, Q-Chem Inc. Pittsburgh 
 -------------------------------------------------------
 -------------------------------------------------------
 OpenMP BLAS3 based DFT computing Module                
 Release: version 1.0, May 2013, Q-Chem Inc. Pittsburgh 
 -------------------------------------------------------
 ---------------------------------------
  Cycle       Energy         DIIS Error
 ---------------------------------------
    1   -1510.1032113536      2.88E-03
    2   -1510.2436352845      8.10E-04
    3   -1510.2388112258      1.34E-03
    4   -1510.2464188195      2.39E-04
    5   -1510.2466806845      5.15E-05
    6   -1510.2466927226      1.34E-05
    7   -1510.2466934412      6.60E-06
    8   -1510.2466935839      3.63E-06
    9   -1510.2466936428      4.61E-07
   10   -1510.2466936435      2.91E-07
   11   -1510.2466936438      1.14E-07
   12   -1510.2466936438      1.99E-08
   13   -1510.2466936438      8.51E-09 Convergence criterion met
 ---------------------------------------
 SCF time:  CPU 91.81 s  wall 1.92 s
 SCF   energy in the final basis set = -1510.24669364
 Total energy in the final basis set = -1510.24669364
 
 --------------------------------------------------------------
 
                    Orbital Energies (a.u.)
 --------------------------------------------------------------
 
 Alpha MOs
 -- Occupied --
-18.946 -18.934 -18.927 -18.924 -18.897 -18.888 -18.876 -18.865
-18.858 -18.854 -10.110 -10.097 -10.095 -10.092 -10.077 -10.069
-10.067 -10.064 -10.062 -10.061 -10.056 -10.055 -10.041 -10.035
-10.034 -10.034 -10.020 -10.019 -10.013 -10.011  -1.033  -1.021
 -1.013  -1.010  -0.989  -0.983  -0.946  -0.935  -0.930  -0.926
 -0.771  -0.764  -0.731  -0.725  -0.719  -0.710  -0.692  -0.675
 -0.661  -0.618  -0.598  -0.582  -0.552  -0.543  -0.538  -0.530
 -0.519  -0.512  -0.490  -0.477  -0.470  -0.464  -0.451  -0.445
 -0.441  -0.434  -0.426  -0.422  -0.415  -0.411  -0.405  -0.401
 -0.393  -0.387  -0.378  -0.370  -0.366  -0.353  -0.351  -0.349
 -0.342  -0.340  -0.336  -0.334  -0.328  -0.326  -0.321  -0.316
 -0.309  -0.306  -0.300  -0.298  -0.291  -0.282  -0.279  -0.277
 -0.270  -0.252  -0.248  -0.238  -0.235  -0.233  -0.230  -0.186
 -0.182  -0.169  -0.160  -0.154  -0.149  -0.145  -0.142  -0.138
 -0.135
 -- Virtual --
  0.095   0.098   0.111   0.114   0.230   0.245   0.246   0.259
  0.284   0.293   0.301   0.310   0.323   0.333   0.338   0.345
  0.347   0.359   0.364   0.366   0.369   0.371   0.372   0.382
  0.382   0.393   0.398   0.400   0.408   0.411   0.414   0.416
  0.420   0.420   0.429   0.429   0.432   0.436   0.443   0.446
  0.447   0.449   0.451   0.454   0.461   0.466   0.468   0.472
  0.474   0.479   0.494   0.495   0.497   0.509   0.527   0.545
  0.551   0.551   0.559   0.645   0.647   0.659   0.661
 --------------------------------------------------------------
 
          Ground-State Mulliken Net Atomic Charges

     Atom                 Charge (a.u.)
  ----------------------------------------
      1 O                    -0.216603
      2 C                     0.219971
      3 C                    -0.080450
      4 C                    -0.081836
      5 C                     0.222009
      6 O                    -0.178220
      7 C                    -0.044875
      8 C                    -0.044785
      9 O                    -0.176649
     10 C                     0.209044
     11 C                    -0.078991
     12 C                    -0.078016
     13 C                     0.215419
     14 O                    -0.222582
     15 O                    -0.184166
     16 O                    -0.175851
     17 O                    -0.213186
     18 C                    -0.113586
     19 C                     0.027749
     20 C                    -0.143714
     21 C                    -0.146089
     22 C                     0.031362
     23 O                    -0.194800
     24 H                     0.089030
     25 H                     0.085740
     26 H                     0.089892
     27 H                     0.075337
     28 H                     0.073353
     29 H                     0.075944
     30 H                     0.071584
     31 H                     0.088210
     32 O                    -0.223910
     33 C                    -0.116060
     34 C                     0.031247
     35 C                    -0.142965
     36 C                    -0.145143
     37 C                     0.032768
     38 O                    -0.189572
     39 H                     0.085979
     40 H                     0.083764
     41 H                     0.089775
     42 H                     0.085775
     43 H                     0.076783
     44 H                     0.074530
     45 H                     0.076965
     46 H                     0.073718
     47 H                     0.085024
     48 H                     0.090366
     49 H                     0.093888
     50 H                     0.091977
     51 H                     0.084481
     52 H                     0.087532
     53 H                     0.090400
     54 H                     0.089775
     55 H                     0.095503
     56 H                     0.097156
  ----------------------------------------
  Sum of atomic charges =     0.000000

 -----------------------------------------------------------------
                    Cartesian Multipole Moments
 -----------------------------------------------------------------
    Charge (ESU x 10^10)
                 0.0000
    Dipole Moment (Debye)
         X      -3.3949      Y      -0.6948      Z       1.9557
       Tot       3.9791
    Quadrupole Moments (Debye-Ang)
        XX    -149.2515     XY      -3.7788     YY    -153.3901
        XZ       7.4798     YZ      -4.0250     ZZ    -156.3872
    Octopole Moments (Debye-Ang^2)
       XXX    -154.1696    XXY     -18.4967    XYY     -11.7352
       YYY     -49.6302    XXZ      88.5701    XYZ      37.5650
       YYZ      -4.2648    XZZ      -4.2092    YZZ     -19.3425
       ZZZ       7.4884
    Hexadecapole Moments (Debye-Ang^3)
      XXXX  -18707.4770   XXXY     -54.0904   XXYY   -3357.3174
      XYYY      92.3550   YYYY   -2272.7227   XXXZ     263.4496
      XXYZ     -23.5580   XYYZ    -130.6128   YYYZ      -3.0420
      XXZZ   -3453.5709   XYZZ      51.7325   YYZZ    -649.5804
      XZZZ    -210.3055   YZZZ     -52.1241   ZZZZ   -1764.9591
 -----------------------------------------------------------------
 Calculating analytic gradient of the SCF energy
 Gradient of SCF Energy
            1           2           3           4           5           6
    1  -0.0139570  -0.0247979   0.0169621   0.0064224  -0.0013283   0.0074194
    2  -0.0047094   0.0091569  -0.0078318  -0.0107859  -0.0161898   0.0199613
    3  -0.0043244   0.0120854  -0.0203797  -0.0044739   0.0013650   0.0154983
            7           8           9          10          11          12
    1  -0.0118019   0.0101852  -0.0084770   0.0133061   0.0001244   0.0017561
    2   0.0122951  -0.0156915  -0.0265005   0.0255254  -0.0066827   0.0055120
    3  -0.0148827   0.0074337   0.0049804  -0.0224948  -0.0020943  -0.0099174
           13          14          15          16          17          18
    1  -0.0229805  -0.0051256   0.0453872   0.0273334  -0.0015387  -0.0091795
    2   0.0060015  -0.0096163  -0.0151216   0.0030925   0.0070497   0.0095154
    3   0.0115969   0.0105945   0.0060034  -0.0391715   0.0171971   0.0239078
           19          20          21          22          23          24
    1   0.0207032   0.0005259  -0.0064082  -0.0201503  -0.0067076  -0.0011045
    2  -0.0119052  -0.0131492   0.0002056   0.0159732  -0.0103049   0.0020825
    3  -0.0117721  -0.0070345  -0.0081193  -0.0102599   0.0229334   0.0013567
           25          26          27          28          29          30
    1   0.0030300  -0.0028351   0.0030718  -0.0000758  -0.0010699   0.0006287
    2  -0.0026058   0.0031380   0.0010374   0.0026286   0.0058331  -0.0032092
    3  -0.0005423   0.0086314  -0.0039300   0.0027461  -0.0009303  -0.0000492
           31          32          33          34          35          36
    1   0.0028306  -0.0062375  -0.0189902   0.0178244   0.0126556   0.0045928
    2  -0.0036995   0.0021568   0.0169282   0.0114508   0.0014154  -0.0083195
    3   0.0096236  -0.0128627  -0.0112191  -0.0112713   0.0053210   0.0049412
           37          38          39          40          41          42
    1  -0.0089035  -0.0124609   0.0003790  -0.0001672  -0.0009603  -0.0071611
    2  -0.0228416   0.0174090   0.0006128   0.0018417   0.0016683   0.0018002
    3   0.0014576   0.0171772   0.0030453   0.0007394   0.0003043   0.0043126
           43          44          45          46          47          48
    1   0.0026466  -0.0032433  -0.0024415   0.0015961  -0.0020558  -0.0010506
    2  -0.0007586  -0.0000493  -0.0041638   0.0023313   0.0088817   0.0002544
    3  -0.0041113  -0.0001589  -0.0027328   0.0006761   0.0029397  -0.0015144
           49          50          51          52          53          54
    1   0.0007976   0.0003064   0.0002356  -0.0012447  -0.0034187  -0.0000544
    2  -0.0016166  -0.0013852  -0.0000664   0.0013029   0.0050416   0.0003174
    3   0.0010400  -0.0016055   0.0019696   0.0006785  -0.0037124   0.0013100
           55          56
    1   0.0046099   0.0005969
    2  -0.0012759  -0.0039408
    3   0.0062730   0.0014252
 Max gradient component =       4.539E-02
 RMS gradient           =       1.071E-02
 Gradient time:  CPU 31.02 s  wall 0.66 s
 Geometry Optimization Parameters
   NAtoms,    NIC,     NZ,  NCons,   NDum,   NFix, NCnnct, MaxDiis
       56     458       0       9       0       0       0       0

 Cartesian Hessian Update
 Hessian Updated using BFGS Update


** CONSTRAINED OPTIMIZATION IN DELOCALIZED INTERNAL COORDINATES **
   Searching for a Minimum

   Optimization Cycle:   3

                       Coordinates (Angstroms)
     ATOM                X               Y               Z
      1  O        -3.0336974230   -1.0826400467    1.4294389133
      2  C        -4.2659389869   -0.8823289622    1.3840336350
      3  C        -4.9813779865    0.2016798875    0.5497645726
      4  C        -4.0511169509    1.3338081290    0.0129956463
      5  C        -2.5324076571    1.0996781712    0.2370093653
      6  O        -2.0366933830    0.2530090982   -0.7736058946
      7  C        -0.6738677981   -0.1843876638   -0.4910716163
      8  C         0.3718485682    0.7021955763   -1.2423041836
      9  O         1.5154175340    1.0288350232   -0.3876355983
     10  C         2.4403016387   -0.0274441590   -0.3143532909
     11  C         3.5602637763    0.3356370115    0.6963349279
     12  C         4.8747647877   -0.5141189903    0.5967258429
     13  C         5.0468399807   -1.3523223189   -0.6993338984
     14  O         5.9244375516   -1.1806861524   -1.5705225866
     15  O        -5.1843281854   -1.7403259047    1.9930480820
     16  O         4.2553308829   -2.5042339030   -0.6820567749
     17  O         2.1336015883   -1.1853452168   -0.6652659613
     18  C         4.4259300190   -3.3787692157   -1.8070922328
     19  C         4.1383520991    1.7922272828    0.5150392196
     20  C         4.7337956881    2.2630629282    1.8809982473
     21  C         5.9828357498    1.3464086503    1.9840819723
     22  C         5.9422807351    0.6409357492    0.5841169042
     23  O         5.3308342178    1.6203163981   -0.3038715786
     24  H         3.1008951590    0.2504967435    1.7013947014
     25  H         5.0069917789   -1.2028545636    1.4537026143
     26  H         3.4039727933    2.5218840039    0.1197228527
     27  H         5.0637396565    3.3099623818    1.7511579845
     28  H         4.0410164721    2.2130848651    2.7386402106
     29  H         6.8879669583    1.9708005516    2.0815859214
     30  H         5.9507486542    0.6100582872    2.8059678911
     31  H         6.9465359668    0.2910463972    0.2722517851
     32  O        -1.8170290297    1.7622844152    1.0141530726
     33  C        -4.6047421959   -2.8244603140    2.7355786252
     34  C        -5.6288835480   -0.3251221823   -0.7854873287
     35  C        -6.7534716164    0.6742108865   -1.2116063938
     36  C        -5.9014119920    1.8929526145   -1.6736199549
     37  C        -4.4511155494    1.3176521047   -1.5112877547
     38  O        -4.6041893424   -0.1031854258   -1.7957512468
     39  H        -5.7651600078    0.6306604762    1.2051727688
     40  H        -4.2975112747    2.3009874978    0.4907289003
     41  H        -3.9651259135   -2.4555244572    3.5663654608
     42  H        -5.9961427269   -1.3690021265   -0.7206284897
     43  H        -7.2706835381    0.2436976816   -2.0882687481
     44  H        -7.4986351152    0.8898631650   -0.4266976252
     45  H        -6.1097275477    2.0976716202   -2.7385249994
     46  H        -6.0505990642    2.8157054315   -1.0863490097
     47  H        -3.7172715986    1.8444216003   -2.1533595975
     48  H        -3.9920107006   -3.4841512043    2.0834535955
     49  H        -5.4396662046   -3.4147103268    3.1602979062
     50  H         3.7407438063   -4.2361033075   -1.6615668852
     51  H         5.4689998224   -3.7581030221   -1.8773164212
     52  H         4.1689617429   -2.8719737670   -2.7623369096
     53  H         0.6509343643    0.3026339924   -2.2406306729
     54  H        -0.1092009577    1.6896096077   -1.4129422773
     55  H        -0.5599888845   -1.2572065495   -0.7504430298
     56  H        -0.4648418445   -0.1114789657    0.6006633739
   Point Group: c1    Number of degrees of freedom:   162


   Energy is  -1510.246693644

              Constraints and their Current Values
                                        Value     Constraint
   Dihedral:        1   2   3   4      -15.683      -15.667
   Dihedral:        3   4   5   6       81.929       81.929
   Dihedral:        4   5   6   7     -170.338     -170.342
   Dihedral:        5   6   7   8      -96.993      -96.993
   Dihedral:        6   7   8   9      137.822      137.836
   Dihedral:        7   8   9  10       79.984       79.978
   Dihedral:        8   9  10  11     -175.237     -175.243
   Dihedral:        9  10  11  12     -162.659     -162.652
   Dihedral:       11  12  13  14      114.510      114.505
 Hessian Updated using BFGS Update

   Using Lagrange Multiplier Algorithm


158 Hessian modes will be used to form the next step
  Hessian Eigenvalues:
    -0.977754   -0.977753   -0.977753   -0.977753   -0.977753   -0.977732
    -0.977580    0.044985    0.045000    0.045001    0.045159    0.045490
     0.045565    0.045735    0.046180    0.047954    0.048847    0.048888
     0.053710    0.059072    0.059928    0.062084    0.062654    0.066869
     0.067086    0.067524    0.068034    0.068323    0.070471    0.071959
     0.073871    0.074043    0.075731    0.075851    0.076966    0.077436
     0.082409    0.082569    0.083243    0.083754    0.083959    0.084479
     0.084960    0.085145    0.085615    0.085829    0.086726    0.087089
     0.088255    0.088792    0.089076    0.089311    0.089877    0.089954
     0.093638    0.093941    0.096600    0.096659    0.111549    0.111664
     0.114642    0.114673    0.115890    0.115921    0.116346    0.117744
     0.118282    0.119205    0.119366    0.123835    0.125112    0.130857
     0.132204    0.132473    0.140495    0.142065    0.159880    0.160009
     0.161569    0.171649    0.172194    0.173631    0.174028    0.219190
     0.220284    0.222883    0.237802    0.238681    0.243264    0.244560
     0.248030    0.249462    0.252620    0.255595    0.258366    0.264484
     0.267270    0.267841    0.278592    0.280103    0.282645    0.288441
     0.295256    0.297172    0.302485    0.308582    0.310650    0.312290
     0.318713    0.318793    0.321825    0.321917    0.322222    0.322268
     0.322531    0.323146    0.323355    0.323425    0.323534    0.323621
     0.323674    0.323975    0.324302    0.324456    0.324629    0.324690
     0.324753    0.324806    0.324893    0.324921    0.324941    0.326148
     0.326742    0.326795    0.331180    0.366977    0.370244    0.383087
     0.392466    0.400870    0.407045    0.460843    0.491972    0.514606
     0.524317    0.531036    0.537820    0.930992    0.942232    0.943524
     1.009446    1.022753    1.022753    1.022753    1.022753    1.022753
     1.022842    1.027512

 Minimum Search - Taking P-RFO Step
 Searching for Lamda that Maximizes Along the Constraint modes Only
 Value Taken    Lamda =   0.00001490
 Searching for Lamda that Minimizes Along All other modes
 Value Taken    Lamda =  -0.03655835
 Calculated Step too Large.  Step scaled by  0.667451
 Step Taken.  Stepsize is  0.300000

                             Maximum     Tolerance    Cnvgd?
         Gradient            0.032411       0.000300      NO
         Displacement        0.071935       0.001200      NO
         Energy change     -0.038354       0.000001      NO


 New Cartesian Coordinates Obtained by Inverse Iteration

 Displacement from previous Coordinates is:  1.218773
 Adding empirical dispersion correction 
 ----------------------------------------------------------------
 Doing -D3(op) with
 s6 =   1.00000
 s8 =   0.78311
 a1 =   0.30000
 a2 =   4.25000
 n  =  10.00000
 -D3 energy without 3body term =     -0.0646919160 hartrees
 ----------------------------------------------------------------
             Standard Nuclear Orientation (Angstroms)
    I     Atom           X                Y                Z
 ----------------------------------------------------------------
    1      O      -3.0341714433    -1.0593731590     1.4103842654
    2      C      -4.2718200383    -0.8712786815     1.3757806446
    3      C      -5.0242572508     0.2161271245     0.5589485742
    4      C      -4.0961048428     1.3671082414     0.0309593995
    5      C      -2.5658850112     1.1156376424     0.2475116590
    6      O      -2.0794436163     0.2737671515    -0.7943308246
    7      C      -0.7087105242    -0.1787978613    -0.5156892862
    8      C       0.3527677970     0.7180690734    -1.2560088641
    9      O       1.5101869431     1.0307431104    -0.3952620297
   10      C       2.4246216872    -0.0602988229    -0.3557592895
   11      C       3.5553846285     0.2975978976     0.6669941082
   12      C       4.9008399709    -0.5343662381     0.5979820415
   13      C       5.1285997148    -1.4048570786    -0.6848368224
   14      O       6.0209345831    -1.2364963757    -1.5450509703
   15      O      -5.2040805922    -1.7352638791     1.9977915817
   16      O       4.3486053717    -2.5853788933    -0.6255698123
   17      O       2.1137982118    -1.1882934392    -0.7954443192
   18      C       4.6059820788    -3.4597925703    -1.7673345119
   19      C       4.1086802036     1.7724800296     0.4889132273
   20      C       4.6812102800     2.2576611353     1.8694314445
   21      C       5.9531822215     1.3592312813     1.9922480361
   22      C       5.9521067779     0.6449241047     0.5867364324
   23      O       5.3261090118     1.6171742796    -0.3259648139
   24      H       3.0904589660     0.1960208167     1.6666436032
   25      H       5.0257019457    -1.2073448169     1.4665725349
   26      H       3.3681450317     2.4766161036     0.0621998545
   27      H       4.9871042920     3.3118550518     1.7567841659
   28      H       3.9734120874     2.1830923204     2.7109353826
   29      H       6.8500177846     1.9895295924     2.1077038256
   30      H       5.9154080267     0.6266982214     2.8151454025
   31      H       6.9613232185     0.3167166769     0.2702203629
   32      O      -1.8361842731     1.7239511153     1.0597939301
   33      C      -4.5380497762    -2.8162383168     2.7230036803
   34      C      -5.6762699983    -0.3031891421    -0.7890534938
   35      C      -6.8108776465     0.7081467233    -1.1930818005
[...]
     15  O        -5.1251655094   -2.0649153446    1.6649030337
     16  O         3.9839622648   -2.5690686897    0.1589097350
     17  O         2.4573294346   -0.6747478340   -1.0778603213
     18  C         3.7400267562   -3.6579480027   -0.8115008938
     19  C         4.1571980369    1.9632279573    0.7147583334
     20  C         5.1674608428    2.2595310746    1.8936774240
     21  C         6.4485399031    1.4821803766    1.4102035486
     22  C         5.8935241715    0.7824559583    0.1100343840
     23  O         5.0233963735    1.8272402100   -0.4809175685
     24  H         3.1548794409    0.2906456075    1.8616827435
     25  H         5.2405148364   -0.8252807018    1.5099091602
     26  H         3.3772624356    2.7315318507    0.5501163470
     27  H         5.3552801177    3.3414948766    1.9790217148
     28  H         4.7870945918    1.8909057118    2.8600478329
     29  H         7.2659134255    2.1755729426    1.1549238788
     30  H         6.8164074781    0.7573004869    2.1540013138
     31  H         6.6500388692    0.4466252400   -0.6257712038
     32  O        -1.9007269141    1.4759063480    1.3040596096
     33  C        -4.4136227936   -3.2302431019    2.2406463099
     34  C        -5.5977369938   -0.3433577051   -0.9720335302
     35  C        -6.7642632406    0.6764145004   -1.2751092729
     36  C        -5.9454948852    1.9843978533   -1.5818467899
     37  C        -4.4607858726    1.4578296710   -1.4499069229
     38  O        -4.5404983404    0.0557928527   -1.9248116303
     39  H        -5.7995367253    0.2993744937    1.1524302306
     40  H        -4.4230951029    2.1736839628    0.6848938020
     41  H        -3.6925907045   -2.9221980556    3.0250561129
     42  H        -5.8571756489   -1.4128250904   -1.0957754391
     43  H        -7.3396900661    0.3457030003   -2.1544924532
     44  H        -7.4539460695    0.7917181139   -0.4238757059
     45  H        -6.1362911149    2.3513030662   -2.6027019411
     46  H        -6.1595090852    2.7964041709   -0.8688092497
     47  H        -3.7081331050    2.0202559564   -2.0348177507
     48  H        -3.8648108660   -3.7975184918    1.4612174868
     49  H        -5.1940119311   -3.8742601598    2.6859868513
     50  H         3.2457763589   -4.4701155811   -0.2470571301
     51  H         4.6848859128   -4.0336852397   -1.2549292221
     52  H         3.0746215796   -3.3189659273   -1.6320987245
     53  H         0.8123136252    0.6882683407   -2.0990017677
     54  H        -0.0910991047    2.0162017545   -1.2613268882
     55  H        -0.4800339504   -0.9987305679   -1.0028403690
     56  H        -0.4622890636   -0.0771562808    0.5634772487
   Point Group: c1    Number of degrees of freedom:   162


   Energy is  -1510.282922326

              Constraints and their Current Values
                                        Value     Constraint
   Dihedral:        1   2   3   4      -15.667      -15.667
   Dihedral:        3   4   5   6       81.929       81.929
   Dihedral:        4   5   6   7     -170.342     -170.342
   Dihedral:        5   6   7   8      -96.993      -96.993
   Dihedral:        6   7   8   9      137.836      137.836
   Dihedral:        7   8   9  10       79.978       79.978
   Dihedral:        8   9  10  11     -175.243     -175.243
   Dihedral:        9  10  11  12     -162.652     -162.652
   Dihedral:       11  12  13  14      114.505      114.505
 Hessian Updated using BFGS Update

153 Hessian modes will be used to form the next step
  Hessian Eigenvalues:
     0.003521    0.007924    0.022442    0.025216    0.031361    0.045023
     0.045057    0.045383    0.045444    0.045896    0.046966    0.048283
     0.050345    0.055234    0.059485    0.060375    0.061981    0.064754
     0.067133    0.067612    0.067982    0.068278    0.071047    0.071293
     0.072476    0.074401    0.075529    0.076322    0.078007    0.079116
     0.082107    0.082477    0.083466    0.083981    0.084356    0.084754
     0.084884    0.085615    0.085823    0.087030    0.087147    0.087581
     0.088891    0.089093    0.089427    0.090006    0.090201    0.091765
     0.093721    0.094148    0.096602    0.096730    0.111577    0.111673
     0.114674    0.114798    0.115884    0.115972    0.117467    0.118403
     0.120469    0.120866    0.121263    0.124055    0.125478    0.132237
     0.132381    0.137947    0.156289    0.158584    0.160000    0.160012
     0.160041    0.160299    0.161091    0.161888    0.173906    0.175876
     0.193899    0.199938    0.219574    0.221320    0.237691    0.239191
     0.242962    0.243635    0.248758    0.249534    0.250422    0.251075
     0.251419    0.254119    0.262999    0.266245    0.266955    0.268208
     0.275549    0.276368    0.280701    0.281878    0.294974    0.295477
     0.299027    0.303797    0.306692    0.308945    0.310880    0.318569
     0.318874    0.321686    0.321929    0.322065    0.322249    0.322665
     0.322774    0.323179    0.323548    0.323563    0.323692    0.323855
     0.324017    0.324165    0.324484    0.324630    0.324782    0.324804
     0.324860    0.324893    0.324935    0.325057    0.326041    0.326778
     0.326785    0.328970    0.338218    0.357603    0.365934    0.369501
     0.382588    0.410961    0.416071    0.426267    0.435096    0.469465
     0.492412    0.514224    0.529516    0.545088    0.578731    0.931911
     0.941058    0.945016    1.033372

 Minimum Search - Taking Simple RFO Step
 Searching for Lamda that Minimizes Along All modes
 Value Taken    Lamda =   0.00000000
 Step Taken.  Stepsize is  0.002207

                             Maximum     Tolerance    Cnvgd?
         Gradient           0.000086      0.000300     YES
         Displacement       0.000844      0.001200     YES
         Energy change     -0.000001      0.000001      NO

 Final energy is   -1510.28292232615     


 ******************************
 **  OPTIMIZATION CONVERGED  **
 ******************************

                       Coordinates (Angstroms)
     ATOM                X               Y               Z
      1  O        -2.9454684850   -1.3180334394    1.1185492462
      2  C        -4.1844839083   -1.1465527420    1.1005904956
      3  C        -4.9876845404    0.0290317889    0.4533128866
      4  C        -4.1088794796    1.2973247211    0.0912092561
      5  C        -2.5654601064    1.0921005342    0.3170992707
      6  O        -2.0119326246    0.4067049324   -0.8154731428
      7  C        -0.6195950279   -0.0044276465   -0.5341475873
      8  C         0.4143642855    1.0386565924   -1.1240048961
      9  O         1.5220778079    1.3021075485   -0.1717257882
     10  C         2.4882297329    0.2521981355   -0.2359865343
     11  C         3.5835236921    0.4907895233    0.8628400006
     12  C         4.8890037393   -0.3531804418    0.5748365567
     13  C         4.7092255087   -1.5054123462   -0.4813770836
     14  O         5.2426650069   -1.5912572802   -1.6077009749
     15  O        -5.1251655094   -2.0649153446    1.6649030337
     16  O         3.9839622648   -2.5690686897    0.1589097350
     17  O         2.4573294346   -0.6747478340   -1.0778603213
     18  C         3.7400267562   -3.6579480027   -0.8115008938
     19  C         4.1571980369    1.9632279573    0.7147583334
     20  C         5.1674608428    2.2595310746    1.8936774240
     21  C         6.4485399031    1.4821803766    1.4102035486
     22  C         5.8935241715    0.7824559583    0.1100343840
     23  O         5.0233963735    1.8272402100   -0.4809175685
     24  H         3.1548794409    0.2906456075    1.8616827435
     25  H         5.2405148364   -0.8252807018    1.5099091602
     26  H         3.3772624356    2.7315318507    0.5501163470
     27  H         5.3552801177    3.3414948766    1.9790217148
     28  H         4.7870945918    1.8909057118    2.8600478329
     29  H         7.2659134255    2.1755729426    1.1549238788
     30  H         6.8164074781    0.7573004869    2.1540013138
     31  H         6.6500388692    0.4466252400   -0.6257712038
     32  O        -1.9007269141    1.4759063480    1.3040596096
     33  C        -4.4136227936   -3.2302431019    2.2406463099
     34  C        -5.5977369938   -0.3433577051   -0.9720335302
     35  C        -6.7642632406    0.6764145004   -1.2751092729
     36  C        -5.9454948852    1.9843978533   -1.5818467899
     37  C        -4.4607858726    1.4578296710   -1.4499069229
     38  O        -4.5404983404    0.0557928527   -1.9248116303
     39  H        -5.7995367253    0.2993744937    1.1524302306
     40  H        -4.4230951029    2.1736839628    0.6848938020
     41  H        -3.6925907045   -2.9221980556    3.0250561129
     42  H        -5.8571756489   -1.4128250904   -1.0957754391
     43  H        -7.3396900661    0.3457030003   -2.1544924532
     44  H        -7.4539460695    0.7917181139   -0.4238757059
     45  H        -6.1362911149    2.3513030662   -2.6027019411
     46  H        -6.1595090852    2.7964041709   -0.8688092497
     47  H        -3.7081331050    2.0202559564   -2.0348177507
     48  H        -3.8648108660   -3.7975184918    1.4612174868
     49  H        -5.1940119311   -3.8742601598    2.6859868513
     50  H         3.2457763589   -4.4701155811   -0.2470571301
     51  H         4.6848859128   -4.0336852397   -1.2549292221
     52  H         3.0746215796   -3.3189659273   -1.6320987245
     53  H         0.8123136252    0.6882683407   -2.0990017677
     54  H        -0.0910991047    2.0162017545   -1.2613268882
     55  H        -0.4800339504   -0.9987305679   -1.0028403690
     56  H        -0.4622890636   -0.0771562808    0.5634772487

Z-matrix Print:
$molecule
0 1
O 
C  1 1.434880
O  2 1.250307 1 124.374502
C  1 1.478776 2 110.234175 3 10.813080 0
H  4 1.108056 1 106.714304 2 142.361539 0
H  4 1.111222 1 109.840154 2 23.209063 0
C  2 1.573304 1 109.112160 3 178.844918 0
H  7 1.104173 2 107.788056 1 -154.677814 0
C  4 1.582728 1 111.159313 2 -96.992944 0
H  9 1.109029 4 109.226859 1 21.970209 0
H  9 1.109844 4 110.706294 1 -98.611757 0
O  9 1.484342 4 111.431826 1 137.836045 0
C  12 1.428247 9 110.211268 4 79.978027 0
O  13 1.252571 12 123.886840 9 6.779309 0
C  13 1.569718 12 109.194826 9 -175.243004 0
H  15 1.105206 13 109.542122 12 71.671316 0
C  15 1.580984 13 111.562273 12 -162.652004 0
H  17 1.104898 15 109.671379 13 -135.605169 0
C  17 1.573387 15 114.763438 13 -15.214404 0
O  19 1.249213 17 127.358072 15 114.504955 0
O  19 1.437824 17 107.484408 15 -74.697110 0
C  21 1.478803 19 109.614664 17 177.713113 0
H  22 1.105666 21 106.236776 19 176.143195 0
H  22 1.109309 21 111.790414 19 56.583873 0
H  22 1.109529 21 111.056910 19 -64.859078 0
C  7 1.584924 2 114.001492 1 81.929030 0
H  26 1.104968 7 110.864535 2 127.273328 0
C  26 1.564001 7 114.285780 2 5.707992 0
O  28 1.250955 26 128.143380 7 -15.667014 0
O  28 1.430636 26 107.943281 7 166.072833 0
C  30 1.481810 28 110.020078 26 177.538239 0
H  31 1.105483 30 106.003144 28 178.071240 0
H  31 1.109089 30 111.625975 28 58.762372 0
H  31 1.109281 30 111.514219 28 -62.786194 0
C  17 1.585803 15 101.196095 13 107.498052 0
H  35 1.107478 17 114.222642 15 -149.059880 0
O  35 1.482539 17 104.461302 15 -28.253849 0
C  37 1.482711 35 94.937479 17 54.352859 0
H  38 1.107112 37 110.810545 35 179.339968 0
C  35 1.577370 17 107.395569 15 80.502326 0
H  40 1.101822 35 112.461548 17 49.585212 0
H  40 1.101844 35 110.438987 17 171.372664 0
C  40 1.574543 35 100.708960 17 -70.863015 0
H  43 1.101456 40 111.716634 35 -122.528983 0
H  43 1.102014 40 112.640276 35 114.873662 0
C  7 1.588911 2 111.697367 1 -30.950082 0
H  46 1.106766 7 114.412831 2 -36.767512 0
O  46 1.482429 7 103.125860 2 83.108320 0
C  48 1.478127 46 95.011621 7 58.014082 0
H  49 1.107421 48 110.874553 46 -178.910113 0
C  49 1.578789 48 103.316002 46 56.872032 0
H  51 1.101615 49 112.448611 48 -157.292633 0
H  51 1.101726 49 110.196859 48 81.221328 0
C  51 1.573305 49 100.946929 48 -36.688641 0
H  54 1.101439 51 111.560872 49 119.619664 0
H  54 1.101626 51 112.674829 49 -117.777276 0
$end

 
 --------------------------------------------------------------
 
                    Orbital Energies (a.u.)
 --------------------------------------------------------------
 
 Alpha MOs
 -- Occupied --
-18.941 -18.938 -18.925 -18.913 -18.891 -18.884 -18.882 -18.881
-18.867 -18.855 -10.106 -10.103 -10.095 -10.085 -10.069 -10.069
-10.064 -10.062 -10.061 -10.055 -10.052 -10.049 -10.042 -10.038
-10.037 -10.027 -10.023 -10.022 -10.017 -10.015  -1.019  -1.017
 -1.003  -0.992  -0.972  -0.965  -0.943  -0.940  -0.929  -0.919
 -0.765  -0.758  -0.726  -0.721  -0.713  -0.703  -0.689  -0.667
 -0.649  -0.615  -0.596  -0.578  -0.548  -0.540  -0.539  -0.532
 -0.515  -0.505  -0.484  -0.476  -0.463  -0.452  -0.450  -0.443
 -0.436  -0.429  -0.426  -0.416  -0.411  -0.403  -0.400  -0.397
 -0.387  -0.381  -0.378  -0.364  -0.359  -0.355  -0.347  -0.345
 -0.339  -0.338  -0.332  -0.329  -0.328  -0.326  -0.319  -0.315
 -0.310  -0.306  -0.303  -0.302  -0.296  -0.282  -0.279  -0.271
 -0.270  -0.261  -0.253  -0.241  -0.239  -0.236  -0.229  -0.189
 -0.184  -0.165  -0.160  -0.157  -0.155  -0.148  -0.145  -0.140
 -0.136
 -- Virtual --
  0.091   0.096   0.107   0.120   0.219   0.240   0.247   0.248
  0.266   0.280   0.285   0.289   0.305   0.321   0.325   0.333
  0.337   0.344   0.348   0.349   0.355   0.358   0.365   0.367
  0.371   0.377   0.388   0.402   0.403   0.404   0.410   0.410
  0.416   0.418   0.424   0.425   0.428   0.432   0.436   0.436
  0.437   0.439   0.440   0.444   0.446   0.451   0.455   0.460
  0.464   0.471   0.488   0.492   0.495   0.499   0.515   0.535
  0.543   0.550   0.558   0.636   0.642   0.648   0.661
 --------------------------------------------------------------
 
          Ground-State Mulliken Net Atomic Charges

     Atom                 Charge (a.u.)
  ----------------------------------------
      1 O                    -0.209855
      2 C                     0.211427
      3 C                    -0.079156
      4 C                    -0.080435
      5 C                     0.213444
      6 O                    -0.169366
      7 C                    -0.051123
      8 C                    -0.050926
      9 O                    -0.167874
     10 C                     0.215928
     11 C                    -0.076286
     12 C                    -0.082324
     13 C                     0.215624
     14 O                    -0.219814
     15 O                    -0.169816
     16 O                    -0.176709
     17 O                    -0.208289
     18 C                    -0.128274
     19 C                     0.023422
     20 C                    -0.144886
     21 C                    -0.142794
     22 C                     0.023333
     23 O                    -0.192221
     24 H                     0.088012
     25 H                     0.082858
     26 H                     0.089394
     27 H                     0.077644
     28 H                     0.073259
     29 H                     0.077251
     30 H                     0.072717
     31 H                     0.089428
     32 O                    -0.217491
     33 C                    -0.128628
     34 C                     0.026183
     35 C                    -0.142907
     36 C                    -0.144916
     37 C                     0.027007
     38 O                    -0.184582
     39 H                     0.086817
     40 H                     0.083940
     41 H                     0.091311
     42 H                     0.084794
     43 H                     0.078582
     44 H                     0.074271
     45 H                     0.078363
     46 H                     0.073750
     47 H                     0.085355
     48 H                     0.089849
     49 H                     0.091727
     50 H                     0.084687
     51 H                     0.086170
     52 H                     0.090658
     53 H                     0.095598
     54 H                     0.091021
     55 H                     0.093555
     56 H                     0.101294
  ----------------------------------------
  Sum of atomic charges =     0.000000

 -----------------------------------------------------------------
                    Cartesian Multipole Moments
 -----------------------------------------------------------------
    Charge (ESU x 10^10)
                 0.0000
    Dipole Moment (Debye)
         X      -3.2766      Y      -0.2444      Z       2.3331
       Tot       4.0298
    Quadrupole Moments (Debye-Ang)
        XX    -145.5726     XY      -0.1062     YY    -150.8563
        XZ      10.4017     YZ      -4.5576     ZZ    -162.6109
    Octopole Moments (Debye-Ang^2)
       XXX     -91.3633    XXY      10.3712    XYY     -20.8444
       YYY     -59.6327    XXZ      76.4841    XYZ      24.3889
       YYZ       2.4638    XZZ      -3.8917    YZZ     -10.8468
       ZZZ      13.4622
    Hexadecapole Moments (Debye-Ang^3)
      XXXX  -17892.6126   XXXY    -133.3281   XXYY   -3413.3371
      XYYY     -86.7255   YYYY   -2595.0051   XXXZ     -18.6820
      XXYZ      -5.1482   XYYZ    -157.8980   YYYZ      72.3226
      XXZZ   -3394.4505   XYZZ      12.4672   YYZZ    -682.6116
      XZZZ    -377.5789   YZZZ      37.7038   ZZZZ   -1472.0338
 -----------------------------------------------------------------
Archival summary:
1\1\vega02.cac.cornell.edu\OPT\ProcedureUnspecified\STO-3G\102026\jj585\SunJan1411:30:392018SunJan1411:30:392018\0\\#,OPT,ProcedureUnspecified,STO-3G,\\0,1\O\C,1,1.43488\O,2,1.25031,1,124.375\C,1,1.47878,2,110.234,3,10.8131,0\H,4,1.10806,1,106.714,2,142.362,0\H,4,1.11122,1,109.84,2,23.2091,0\C,2,1.5733,1,109.112,3,178.845,0\H,7,1.10417,2,107.788,1,-154.678,0\C,4,1.58273,1,111.159,2,-96.9929,0\H,9,1.10903,4,109.227,1,21.9702,0\H,9,1.10984,4,110.706,1,-98.6118,0\O,9,1.48434,4,111.432,1,137.836,0\C,12,1.42825,9,110.211,4,79.978,0\O,13,1.25257,12,123.887,9,6.77931,0\C,13,1.56972,12,109.195,9,-175.243,0\H,15,1.10521,13,109.542,12,71.6713,0\C,15,1.58098,13,111.562,12,-162.652,0\H,17,1.1049,15,109.671,13,-135.605,0\C,17,1.57339,15,114.763,13,-15.2144,0\O,19,1.24921,17,127.358,15,114.505,0\O,19,1.43782,17,107.484,15,-74.6971,0\C,21,1.4788,19,109.615,17,177.713,0\H,22,1.10567,21,106.237,19,176.143,0\H,22,1.10931,21,111.79,19,56.5839,0\H,22,1.10953,21,111.057,19,-64.8591,0\C,7,1.58492,2,114.001,1,81.929,0\H,26,1.10497,7,110.865,2,127.273,0\C,26,1.564,7,114.286,2,5.70799,0\O,28,1.25095,26,128.143,7,-15.667,0\O,28,1.43064,26,107.943,7,166.073,0\C,30,1.48181,28,110.02,26,177.538,0\H,31,1.10548,30,106.003,28,178.071,0\H,31,1.10909,30,111.626,28,58.7624,0\H,31,1.10928,30,111.514,28,-62.7862,0\C,17,1.5858,15,101.196,13,107.498,0\H,35,1.10748,17,114.223,15,-149.06,0\O,35,1.48254,17,104.461,15,-28.2538,0\C,37,1.48271,35,94.9375,17,54.3529,0\H,38,1.10711,37,110.811,35,179.34,0\C,35,1.57737,17,107.396,15,80.5023,0\H,40,1.10182,35,112.462,17,49.5852,0\H,40,1.10184,35,110.439,17,171.373,0\C,40,1.57454,35,100.709,17,-70.863,0\H,43,1.10146,40,111.717,35,-122.529,0\H,43,1.10201,40,112.64,35,114.874,0\C,7,1.58891,2,111.697,1,-30.9501,0\H,46,1.10677,7,114.413,2,-36.7675,0\O,46,1.48243,7,103.126,2,83.1083,0\C,48,1.47813,46,95.0116,7,58.0141,0\H,49,1.10742,48,110.875,46,-178.91,0\C,49,1.57879,48,103.316,46,56.872,0\H,51,1.10162,49,112.449,48,-157.293,0\H,51,1.10173,49,110.197,48,81.2213,0\C,51,1.57331,49,100.947,48,-36.6886,0\H,54,1.10144,51,111.561,49,119.62,0\H,54,1.10163,51,112.675,49,-117.777,0\\\@

 Total job time:  61.06s(wall), 2900.32s(cpu) 
 Sun Jan 14 11:30:39 2018

        *************************************************************
        *                                                           *
        *  Thank you very much for using Q-Chem.  Have a nice day.  *
        *                                                           *
        *************************************************************


0 sent ACK to 0 
now end server 0 ... 
