mFile = /opt/software/qchem/qchem-5.0.1//bin/mpi/machines
Process 0 of 1 is on vega02.cac.cornell.edu - thread support 0
initial socket setup ...start
initial socket setup ...done 
now start server 0 ... 
vega02.cac.cornell.edu 10.84.3
Q-Chem Developer Version! Running on 10.84.3.*
                  Welcome to Q-Chem
     A Quantum Leap Into The Future Of Chemistry


 Q-Chem 5.0, Q-Chem, Inc., Pleasanton, CA (2017)

 Yihan Shao,  Zhengting Gan,  E. Epifanovsky,  A. T. B. Gilbert,  M. Wormit,  
 J. Kussmann,  A. W. Lange,  A. Behn,  Jia Deng,  Xintian Feng,  D. Ghosh,  
 M. Goldey,  P. R. Horn,  L. D. Jacobson,  I. Kaliman,  T. Kus,  A. Landau,  
 Jie Liu,  E. I. Proynov,  R. M. Richard,  R. P. Steele,  E. J. Sundstrom,  
 H. L. Woodcock III,  P. M. Zimmerman,  D. Zuev,  B. Albrecht,  E. Alguire,  
 S. A. Baeppler,  Z. Benda,  Y. A. Bernard,  E. J. Berquist,  K. B. Bravaya,  
 D. Casanova,  Chun-Min Chang,  Yunqing Chen,  A. Chien,  K. D. Closser,  
 M. P. Coons,  S. Dasgupta,  M. Diedenhofen,  Hainam Do,  R. G. Edgar,  
 Po-Tung Fang,  S. Fatehi,  Qingguo Feng,  Qinghui Ge,  A. Ghysels,  
 J. Gomes,  J. Gonthier,  A. Gunina,  M. W. D. Hanson-Heine,  
 P. H. P. Harbach,  A. W. Hauser,  J. E. Herr,  E. G. Hohenstein,  
 Z. C. Holden,  Kerwin Hui,  T.-C. Jagau,  Hyunjun Ji,  B. Kaduk,  
 K. Khistyaev,  Jaehoon Kim,  P. Klunzinger,  K. Koh,  D. Kosenkov,  
 T. Kowalczyk,  C. M. Krauter,  A. Kunitsa,  Ka Un Lao,  A. Laurent,  
 K. V. Lawler,  Joonho Lee,  D. Lefrancois,  S. Lehtola,  D. S. Levine,  
 Yi-Pei Li,  You-Sheng Lin,  Fenglai Liu,  E. Livshits,  A. Luenser,  
 P. Manohar,  E. Mansoor,  S. F. Manzer,  Shan-Ping Mao,  Yuezhi Mao,  
 N. Mardirossian,  A. V. Marenich,  L. A. Martinez-Martinez,  S. A. Maurer,  
 N. J. Mayhall,  S. C. McKenzie,  J.-M. Mewes,  A. F. Morrison,  K. Nanda,  
 T. S. Nguyen-Beck,  R. Olivares-Amaya,  J. A. Parkhill,  T. M. Perrine,  
 F. Plasser,  S. Prager,  A. Prociuk,  D. R. Rehn,  F. Rob,  M. Schneider,  
 N. Sergueev,  S. M. Sharada,  S. Sharma,  D. W. Small,  T. Stauch,  
 T. Stein,  Yu-Chuan Su,  A. J. W. Thom,  T. Tsuchimochi,  L. Vogt,  
 O. Vydrov,  M. A. Watson,  J. Wenzel,  M. de Wergifosse,  T. A. Wesolowski,  
 A. White,  J. Witte,  A. Yamada,  Jun Yang,  K. Yao,  S. Yeganeh,  
 S. R. Yost,  Zhi-Qiang You,  A. Zech,  Igor Ying Zhang,  Xing Zhang,  
 Yan Zhao,  Ying Zhu,  B. R. Brooks,  G. K. L. Chan,  C. J. Cramer,  
 M. S. Gordon,  W. J. Hehre,  A. Klamt,  M. W. Schmidt,  C. D. Sherrill,  
 D. G. Truhlar,  A. Aspuru-Guzik,  R. Baer,  A. T. Bell,  N. A. Besley,  
 Jeng-Da Chai,  A. Dreuw,  B. D. Dunietz,  T. R. Furlani,  Chao-Ping Hsu,  
 Yousung Jung,  Jing Kong,  D. S. Lambrecht,  WanZhen Liang,  C. Ochsenfeld,  
 V. A. Rassolov,  L. V. Slipchenko,  J. E. Subotnik,  T. Van Voorhis,  
 J. M. Herbert,  A. I. Krylov,  P. M. W. Gill,  M. Head-Gordon

 Contributors to earlier versions of Q-Chem not listed above: 
 R. D. Adamson,  B. Austin,  J. Baker,  G. J. O. Beran,  K. Brandhorst,  
 S. T. Brown,  E. F. C. Byrd,  A. K. Chakraborty,  C.-L. Cheng,  
 Siu Hung Chien,  D. M. Chipman,  D. L. Crittenden,  H. Dachsel,  
 R. A. DiStasio Jr.,  R. J. Doerksen,  A. D. Dutoi,  L. Fusti-Molnar,  
 W. A. Goddard III,  A. Golubeva-Zadorozhnaya,  S. R. Gwaltney,  G. Hawkins,  
 A. Heyden,  S. Hirata,  G. Kedziora,  F. J. Keil,  C. Kelley,  Jihan Kim,  
 R. A. King,  R. Z. Khaliullin,  P. P. Korambath,  W. Kurlancheek,  
 A. M. Lee,  M. S. Lee,  S. V. Levchenko,  Ching Yeh Lin,  D. Liotard,  
 R. C. Lochan,  I. Lotan,  P. E. Maslen,  N. Nair,  D. P. O'Neill,  
 D. Neuhauser,  E. Neuscamman,  C. M. Oana,  R. Olson,  B. Peters,  
 R. Peverati,  P. A. Pieniazek,  Y. M. Rhee,  J. Ritchie,  M. A. Rohrdanz,  
 E. Rosta,  N. J. Russ,  H. F. Schaefer III,  N. E. Schultz,  N. Shenvi,  
 A. C. Simmonett,  A. Sodt,  D. Stuck,  K. S. Thanthiriwatte,  V. Vanovschi,  
 Tao Wang,  A. Warshel,  C. F. Williams,  Q. Wu,  X. Xu,  W. Zhang

 Please cite Q-Chem as follows:
 Y. Shao et al., Mol. Phys. 113, 184-215 (2015)
 DOI: 10.1080/00268976.2014.952696

 Q-Chem 5.0.1 for Intel X86 EM64T Linux

 Parts of Q-Chem use Armadillo 5.200.1 (Boston Tea Smuggler).
 http://arma.sourceforge.net/

 Q-Chem begins on Sun Jan 14 11:57:28 2018  

Host: vega02.cac.cornell.edu
0

     Scratch files written to /scratch/jj585/SOT1001/0423r.save//
 Parallel job on  1  processors

Checking the input file for inconsistencies... 	...done.

--------------------------------------------------------------
User input:
--------------------------------------------------------------
$molecule
0  1
O 3.1761873564 -1.3584306244 1.0664807987
C 4.3999714791 -1.2164171506 0.8451917181
C 5.0736485854 -0.3446425283 -0.2650611728
C 4.051535977 0.195761785 -1.3483809232
C 2.5593125427 -0.2464511469 -1.0986078229
O 1.9217411962 0.736528314 -0.2731179434
C 0.5278447056 0.3593728188 0.0513359089
C -0.4365577005 0.3833463074 -1.2025210211
O -1.6304787291 -0.4820033972 -1.0306155965
C -2.432644727 -0.042565623 0.0663358143
C -3.6425980657 -1.032623331 0.2722869094
C -4.9957921006 -0.2541322261 0.5617536427
C -4.8090444668 1.2537281462 0.9566839545
O -5.0492389039 2.2626557897 0.2596310726
O 5.4292277476 -1.8334536749 1.6210768518
O -4.449208709 1.2944155355 2.344219289
O -2.2137864618 1.0074530181 0.7120846542
C -4.1844278575 2.691443024 2.7525791636
C -4.017487506 -1.7391700394 -1.0954230605
C -5.1444139469 -2.8205339024 -0.8481078838
C -6.4276862418 -1.9157384564 -0.7341144228
C -5.7790477463 -0.4796013585 -0.7995756449
O -4.7151516159 -0.6466092056 -1.8170325909
H -3.3954812976 -1.745855778 1.0801854295
H -5.5260005878 -0.7397327691 1.4011963833
H -3.1416918173 -2.0878792729 -1.674497873
H -5.2099330695 -3.5132663893 -1.7017730504
H -4.9576193454 -3.4068037252 0.0662494283
H -7.1029699879 -2.0697064645 -1.5910563212
H -6.9918021347 -2.0837978818 0.1972779694
H -6.4573465192 0.3495004722 -1.0797753416
O 1.9917211321 -1.2399437253 -1.6037548195
C 4.8291036532 -2.646135494 2.7053757301
C 5.6461377705 1.0222114095 0.3203772192
C 6.6489185501 1.6260083294 -0.7397364658
C 5.6490296195 2.152949639 -1.8343727062
C 4.2586244139 1.7616251678 -1.1946828781
O 4.483940586 1.9347237277 0.2602710859
H 5.8816144368 -0.9401105335 -0.7271003286
H 4.3331778885 -0.160855532 -2.3551732309
H 4.1814266047 -3.4503909699 2.3004274012
H 6.036322716 0.9485708756 1.3541949561
H 7.2290018041 2.4485748661 -0.2918585307
H 7.3497172245 0.8702457238 -1.1290364249
H 5.7218360047 3.2455435361 -1.9546104752
H 5.8041692972 1.6789392533 -2.8168303279
H 3.396870825 2.3714103125 -1.5264313538
H 4.2258446489 -2.022183993 3.3960739157
H 5.6771115483 -3.0945390832 3.2548584433
H -3.9853231817 2.6620128559 3.8395911204
H -5.0534847767 3.3503330138 2.5494615742
H -3.2981198749 3.0989676755 2.2244221437
H -0.7412725005 1.427702934 -1.428328522
H 0.0918871148 -0.0490601418 -2.0745209497
H 0.1862411427 1.0922442931 0.8076569373
H 0.5041934371 -0.6609711982 0.4946033681
$end

$rem
JOBTYPE                   OPT
METHOD                    B3LYP
DFT_D                     d3_op
BASIS                     STO-3G
GEOM_OPT_MAX_CYCLES       100
GEOM_OPT_TOL_GRADIENT     300
GEOM_OPT_TOL_DISPLACEMENT 1200
GEOM_OPT_TOL_ENERGY       100
SYMMETRY                  False
THRESH                    12
SCF_CONVERGENCE           8
MAX_SUB_FILE_NUM          128
MEM_STATIC                400
MEM_TOTAL                 4000
$end
--------------------------------------------------------------
 Adding empirical dispersion correction 
 ----------------------------------------------------------------
 Doing -D3(op) with
 s6 =   1.00000
 s8 =   0.78311
 a1 =   0.30000
 a2 =   4.25000
 n  =  10.00000
 -D3 energy without 3body term =     -0.0658256255 hartrees
 ----------------------------------------------------------------
             Standard Nuclear Orientation (Angstroms)
    I     Atom           X                Y                Z
 ----------------------------------------------------------------
    1      O      -3.0843629603     1.3093439708     1.3018047209
    2      C      -4.3147633017     1.2386503717     1.0829402016
    3      C      -5.0305293102     0.5521393898    -0.1265534983
    4      C      -4.0400662722     0.1357931901    -1.2910153913
    5      C      -2.5309082393     0.4910720139    -1.0066060983
    6      O      -1.9173159934    -0.6172341510    -0.3362767881
    7      C      -0.5077465945    -0.3336247181     0.0146417149
    8      C       0.4405141020    -0.2132300617    -1.2459576299
    9      O       1.6649629126     0.5811991339    -0.9749661685
   10      C       2.4646185009    -0.0322570380     0.0370124422
   11      C       3.7097079255     0.8803388942     0.3587859495
   12      C       5.0390927077     0.0263630333     0.5151023468
   13      C       4.8060849450    -1.5151132297     0.6996175101
   14      O       5.0038125067    -2.4241124552    -0.1347297180
   15      O      -5.3133800869     1.7739412943     1.9537607479
   16      O       4.4613840761    -1.7374121608     2.0737194120
   17      O       2.2179533446    -1.1545545140     0.5340379215
   18      C       4.1543004068    -3.1685814193     2.2882110523
   19      C       4.0922127427     1.7584047392    -0.9033833505
   20      C       5.2579029261     2.7582453276    -0.5266062304
   21      C       6.5110787784     1.8059628030    -0.5604495146
   22      C       5.8135009172     0.4143952034    -0.8142832727
   23      O       4.7439989756     0.7554782543    -1.7811406477
   24      H       3.4963591431     1.4814467033     1.2619021869
   25      H       5.5952395484     0.3730091173     1.4051193276
   26      H       3.2219816689     2.2121919613    -1.4139897463
   27      H       5.3368000202     3.5608124996    -1.2766571976
   28      H       5.1017913678     3.2169277899     0.4632894220
   29      H       7.1810835434     2.0563312434    -1.3985861152
   30      H       7.0914471438     1.8244301736     0.3759232829
   31      H       6.4600268384    -0.3887209965    -1.2180400604
   32      O      -1.9359962288     1.5267038050    -1.3779650810
   33      C      -4.6734236720     2.4079305925     3.1305436854
   34      C      -5.6420253869    -0.8640548416     0.2724930058
   35      C      -6.6770294919    -1.2818482939    -0.8447339950
   36      C      -5.7084531815    -1.6825835920    -2.0181668511
   37      C      -4.2981946441    -1.4288005430    -1.3530882276
   38      O      -4.5121508683    -1.7958375611     0.0671681181
   39      H      -5.8232524881     1.2316649289    -0.4880865515
   40      H      -4.3212757018     0.6381194862    -2.2337340009
   41      H      -4.0037039596     3.2397461866     2.8307872792
   42      H      -6.0173383910    -0.9229071530     1.3127443636
   43      H      -7.2793145445    -2.1399274223    -0.5061193784
   44      H      -7.3563776643    -0.4572356706    -1.1137143627
   45      H      -5.8195882323    -2.7448530082    -2.2878926428
   46      H      -5.8589843446    -1.0714965000    -2.9225396054
   47      H      -3.4615165071    -2.0135132743    -1.7803995179
   48      H      -4.0835567350     1.6748507136     3.7178696368
   49      H      -5.4992699945     2.8021195280     3.7507915034
   50      H       3.9690735573    -3.2846969366     3.3718678254
   51      H       4.9981251692    -3.8200648115     1.9813204162
   52      H       3.2485763802    -3.4700163692     1.7230836526
   53      H       0.7070513732    -1.2250670781    -1.6196749503
   54      H      -0.0831942681     0.3531737417    -2.0406458770
   55      H      -0.1822822745    -1.1753172898     0.6560789146
   56      H      -0.4443892190     0.6136565790     0.5949789642
 ----------------------------------------------------------------
 Molecular Point Group                 C1    NOp =  1
 Largest Abelian Subgroup              C1    NOp =  1
 Nuclear Repulsion Energy =  3038.0046927707 hartrees
 There are      113 alpha and      113 beta electrons
 Requested basis set is STO-3G
 There are 86 shells and 176 basis functions

 Total QAlloc Memory Limit   4000 MB
 Mega-Array Size       392 MB
 MEM_STATIC part       400 MB
 A cutoff of  1.0D-12 yielded   1975 shell pairs
 There are      9244 function pairs
 
 -------------------------------------------------------
 OpenMP Integral Computing Module                       
 Release: version 1.0, May 2013, Q-Chem Inc. Pittsburgh 
 -------------------------------------------------------
 Integral Job Info:
 Integral job number is                      11
 Integral operator is                         1
 short-range coefficients                     0
 long-range coefficients              100000000
 Omega coefficients                           0
 if combine SR and LR in K                    0
 Integral screening is                        0
 Integral computing path is                   2
 max size of driver memory is            800000
 size of driver memory is                 45569
 size of scratch memory is              1046100
 max col of scratch BK array                289
 max len of scratch array in speh3           22
 max len of scratch index in speh4            8
 max int batch size is                      520
 min int batch size is                       52
 fixed nKL is                                52
 max L of basis functions is                  1
 order of int derivative is                   0
 number of shells is                         86
 number of basis is                         176
 number of cartesian basis is               176
 number of contracted shell pairs          1975
 number of primitive shell pairs          10417
 maxK2 (contraction) of shell pair            9
 max number of K2 of shell pair               1
 max number of CS2 of shell pair            301
 max number of PS2 of shell pair           1232
 mem total for path MDJ                   49782
 -------------------------------------------------------
 Smallest overlap matrix eigenvalue = 2.13E-01

 Scale SEOQF with 1.000000e-02/1.000000e-01/1.000000e-01

 Standard Electronic Orientation quadrupole field applied
 Nucleus-field energy     =     0.0000000109 hartrees
 Guess from superposition of atomic densities
 Warning:  Energy on first SCF cycle will be non-variational
 A restricted hybrid HF-DFT SCF calculation will be
 performed using Pulay DIIS extrapolation
 Exchange:     0.2000 Hartree-Fock + 0.0800 Slater + 0.7200 B88
 Correlation:  0.1900 VWN1RPA + 0.8100 LYP
 Using SG-1 standard quadrature grid
 Dispersion:   Grimme D3
 SCF converges when DIIS error is below 1.0E-08
 using 48 threads for integral computing
 -------------------------------------------------------
 OpenMP Integral computing Module                
 Release: version 1.0, May 2013, Q-Chem Inc. Pittsburgh 
 -------------------------------------------------------
 -------------------------------------------------------
 OpenMP BLAS3 based DFT computing Module                
 Release: version 1.0, May 2013, Q-Chem Inc. Pittsburgh 
 -------------------------------------------------------
 ---------------------------------------
  Cycle       Energy         DIIS Error
 ---------------------------------------
    1   -1507.6216185550      7.46E-02
    2   -1509.7463875831      1.03E-02
    3   -1507.6788343102      2.54E-02
    4   -1510.2000468427      4.20E-03
    5   -1510.2729857479      1.33E-03
    6   -1510.2808712855      3.00E-04
    7   -1510.2812351211      1.12E-04
    8   -1510.2812831493      3.98E-05
    9   -1510.2812901653      6.84E-06
   10   -1510.2812903688      2.24E-06
   11   -1510.2812903882      1.01E-06
   12   -1510.2812903921      3.81E-07
   13   -1510.2812903927      8.41E-08
   14   -1510.2812903927      3.45E-08
   15   -1510.2812903927      1.62E-08
   16   -1510.2812903926      4.08E-09 Convergence criterion met
 ---------------------------------------
 SCF time:  CPU 125.38 s  wall 2.66 s
 SCF   energy in the final basis set = -1510.28129039
 Total energy in the final basis set = -1510.28129039
 
 --------------------------------------------------------------
 
                    Orbital Energies (a.u.)
 --------------------------------------------------------------
 
 Alpha MOs
 -- Occupied --
-18.943 -18.937 -18.926 -18.920 -18.889 -18.885 -18.880 -18.876
-18.863 -18.862 -10.106 -10.100 -10.095 -10.089 -10.070 -10.066
-10.063 -10.063 -10.059 -10.053 -10.053 -10.052 -10.041 -10.036
-10.035 -10.029 -10.022 -10.020 -10.016 -10.015  -1.019  -1.014
 -1.001  -0.997  -0.971  -0.964  -0.943  -0.937  -0.929  -0.924
 -0.764  -0.758  -0.725  -0.720  -0.712  -0.703  -0.688  -0.667
 -0.652  -0.615  -0.595  -0.580  -0.547  -0.540  -0.538  -0.532
 -0.514  -0.504  -0.482  -0.475  -0.463  -0.453  -0.449  -0.444
 -0.435  -0.430  -0.426  -0.416  -0.410  -0.402  -0.399  -0.394
 -0.385  -0.379  -0.376  -0.364  -0.361  -0.353  -0.351  -0.346
 -0.340  -0.336  -0.333  -0.330  -0.326  -0.326  -0.320  -0.314
 -0.307  -0.305  -0.302  -0.301  -0.294  -0.282  -0.278  -0.274
 -0.271  -0.261  -0.256  -0.243  -0.238  -0.234  -0.228  -0.186
 -0.182  -0.166  -0.162  -0.159  -0.152  -0.145  -0.142  -0.141
 -0.138
 -- Virtual --
  0.092   0.096   0.109   0.116   0.214   0.241   0.244   0.248
  0.265   0.280   0.287   0.290   0.302   0.323   0.327   0.333
  0.336   0.345   0.347   0.352   0.357   0.359   0.366   0.372
  0.374   0.381   0.388   0.400   0.404   0.405   0.410   0.412
  0.417   0.418   0.423   0.425   0.429   0.433   0.434   0.436
  0.437   0.440   0.443   0.446   0.450   0.453   0.453   0.455
  0.466   0.472   0.489   0.490   0.493   0.502   0.513   0.535
  0.541   0.551   0.559   0.637   0.640   0.651   0.659
 --------------------------------------------------------------
 
          Ground-State Mulliken Net Atomic Charges

     Atom                 Charge (a.u.)
  ----------------------------------------
      1 O                    -0.207757
      2 C                     0.213135
      3 C                    -0.078801
      4 C                    -0.081245
      5 C                     0.214554
      6 O                    -0.168423
      7 C                    -0.051509
      8 C                    -0.052559
      9 O                    -0.165318
     10 C                     0.212052
     11 C                    -0.075983
     12 C                    -0.081443
     13 C                     0.212007
     14 O                    -0.216779
     15 O                    -0.169126
     16 O                    -0.171104
     17 O                    -0.215023
     18 C                    -0.127667
     19 C                     0.022574
     20 C                    -0.145420
     21 C                    -0.142630
     22 C                     0.023111
     23 O                    -0.190977
     24 H                     0.086009
     25 H                     0.083302
     26 H                     0.093324
     27 H                     0.077544
     28 H                     0.072239
     29 H                     0.077198
     30 H                     0.072430
     31 H                     0.087924
     32 O                    -0.221751
     33 C                    -0.128350
     34 C                     0.025647
     35 C                    -0.143357
     36 C                    -0.144613
     37 C                     0.026666
     38 O                    -0.186126
     39 H                     0.086912
     40 H                     0.083111
     41 H                     0.091103
     42 H                     0.084659
     43 H                     0.078356
     44 H                     0.073930
     45 H                     0.078200
     46 H                     0.073593
     47 H                     0.087468
     48 H                     0.090845
     49 H                     0.091999
     50 H                     0.086718
     51 H                     0.086684
     52 H                     0.092283
     53 H                     0.088271
     54 H                     0.100111
     55 H                     0.100095
     56 H                     0.091903
  ----------------------------------------
  Sum of atomic charges =    -0.000000

 -----------------------------------------------------------------
                    Cartesian Multipole Moments
 -----------------------------------------------------------------
    Charge (ESU x 10^10)
                 0.0000
    Dipole Moment (Debye)
         X      -2.4525      Y       1.6240      Z       1.5446
       Tot       3.3223
    Quadrupole Moments (Debye-Ang)
        XX    -139.3031     XY       4.9269     YY    -159.4366
        XZ       8.6574     YZ       4.1535     ZZ    -154.8984
    Octopole Moments (Debye-Ang^2)
       XXX     -58.3455    XXY      48.0481    XYY       6.8413
       YYY      -3.7618    XXZ      28.5265    XYZ     -32.5252
       YYZ      25.6811    XZZ     -41.6466    YZZ      -1.9021
       ZZZ      32.9331
    Hexadecapole Moments (Debye-Ang^3)
      XXXX  -17850.1857   XXXY      64.9654   XXYY   -3489.1442
      XYYY    -154.2826   YYYY   -2387.6935   XXXZ     138.4243
      XXYZ      10.4823   XYYZ       2.3508   YYYZ     -23.0740
      XXZZ   -3331.9828   XYZZ    -114.2097   YYZZ    -639.3337
      XZZZ    -105.7525   YZZZ      22.1619   ZZZZ   -1759.9004
 -----------------------------------------------------------------
 Calculating analytic gradient of the SCF energy
 Gradient of SCF Energy
            1           2           3           4           5           6
    1  -0.0001245  -0.0002112   0.0000924  -0.0002480   0.0003109  -0.0014200
    2  -0.0009158   0.0011881  -0.0012033   0.0001499  -0.0010442   0.0039300
    3   0.0006201  -0.0009850   0.0004478   0.0002072  -0.0022923   0.0025308
            7           8           9          10          11          12
    1   0.0016541  -0.0012521   0.0028853  -0.0027689  -0.0008796   0.0016022
    2  -0.0067599   0.0036797  -0.0025414   0.0022521   0.0005309  -0.0001844
    3  -0.0001669   0.0013000  -0.0049936   0.0022203   0.0063367  -0.0060169
           13          14          15          16          17          18
    1  -0.0046569   0.0031665   0.0000305   0.0001156  -0.0000400   0.0000092
    2   0.0003246  -0.0004196  -0.0000025   0.0000356  -0.0000829   0.0001712
    3  -0.0005421   0.0010702  -0.0000770  -0.0000285  -0.0000444  -0.0000080
           19          20          21          22          23          24
    1  -0.0006016  -0.0000214  -0.0002537   0.0001708   0.0005769   0.0000222
    2  -0.0004266   0.0000054   0.0000313  -0.0002013   0.0001029   0.0000030
    3   0.0007446  -0.0002194  -0.0001279  -0.0004989   0.0000436  -0.0000992
           25          26          27          28          29          30
    1   0.0002001   0.0002768   0.0002001   0.0000711  -0.0000504   0.0002353
    2  -0.0000478   0.0000287  -0.0000037   0.0001596   0.0000839  -0.0000741
    3   0.0002716   0.0000080   0.0000632   0.0001348  -0.0000015   0.0000605
           31          32          33          34          35          36
    1   0.0000267  -0.0000447   0.0000099  -0.0004742   0.0003767   0.0000928
    2   0.0000553   0.0001221   0.0000358   0.0001456   0.0002228   0.0002717
    3   0.0000807  -0.0000894   0.0001014   0.0000277   0.0001991   0.0000487
           37          38          39          40          41          42
    1  -0.0000303   0.0005147  -0.0000659   0.0001839  -0.0000049   0.0000525
    2  -0.0000970   0.0000672   0.0001228   0.0002107   0.0000624  -0.0000894
    3  -0.0001868   0.0001075   0.0000149  -0.0000897  -0.0000081   0.0000403
           43          44          45          46          47          48
    1  -0.0000064   0.0000095   0.0000485  -0.0001156   0.0000437   0.0000745
    2   0.0000124  -0.0000051  -0.0000185  -0.0001934   0.0000248   0.0000216
    3   0.0000950  -0.0002112  -0.0000067  -0.0000940   0.0000135  -0.0000406
           49          50          51          52          53          54
    1  -0.0000340   0.0000008   0.0000674  -0.0000344   0.0000638   0.0000971
    2   0.0000363   0.0000104   0.0000060   0.0000070   0.0000566   0.0000552
    3   0.0000013  -0.0000336   0.0000407  -0.0000280   0.0000084   0.0000259
           55          56
    1   0.0001023  -0.0000464
    2  -0.0000358   0.0001231
    3  -0.0000061   0.0000313
 Max gradient component =       6.760E-03
 RMS gradient           =       1.280E-03
 Gradient time:  CPU 32.07 s  wall 0.69 s
 Geometry Optimization Parameters
   NAtoms,    NIC,     NZ,  NCons,   NDum,   NFix, NCnnct, MaxDiis
       56     458       0       0       0       0       0       0


** GEOMETRY OPTIMIZATION IN DELOCALIZED INTERNAL COORDINATES **
   Searching for a Minimum

   Optimization Cycle:   1

                       Coordinates (Angstroms)
     ATOM                X               Y               Z
      1  O        -3.0843629603    1.3093439708    1.3018047209
      2  C        -4.3147633017    1.2386503717    1.0829402016
      3  C        -5.0305293102    0.5521393898   -0.1265534983
      4  C        -4.0400662722    0.1357931901   -1.2910153913
      5  C        -2.5309082393    0.4910720139   -1.0066060983
      6  O        -1.9173159934   -0.6172341510   -0.3362767881
      7  C        -0.5077465945   -0.3336247181    0.0146417149
      8  C         0.4405141020   -0.2132300617   -1.2459576299
      9  O         1.6649629126    0.5811991339   -0.9749661685
     10  C         2.4646185009   -0.0322570380    0.0370124422
     11  C         3.7097079255    0.8803388942    0.3587859495
     12  C         5.0390927077    0.0263630333    0.5151023468
     13  C         4.8060849450   -1.5151132297    0.6996175101
     14  O         5.0038125067   -2.4241124552   -0.1347297180
     15  O        -5.3133800869    1.7739412943    1.9537607479
     16  O         4.4613840761   -1.7374121608    2.0737194120
     17  O         2.2179533446   -1.1545545140    0.5340379215
     18  C         4.1543004068   -3.1685814193    2.2882110523
     19  C         4.0922127427    1.7584047392   -0.9033833505
     20  C         5.2579029261    2.7582453276   -0.5266062304
     21  C         6.5110787784    1.8059628030   -0.5604495146
     22  C         5.8135009172    0.4143952034   -0.8142832727
     23  O         4.7439989756    0.7554782543   -1.7811406477
     24  H         3.4963591431    1.4814467033    1.2619021869
     25  H         5.5952395484    0.3730091173    1.4051193276
     26  H         3.2219816689    2.2121919613   -1.4139897463
     27  H         5.3368000202    3.5608124996   -1.2766571976
     28  H         5.1017913678    3.2169277899    0.4632894220
     29  H         7.1810835434    2.0563312434   -1.3985861152
     30  H         7.0914471438    1.8244301736    0.3759232829
     31  H         6.4600268384   -0.3887209965   -1.2180400604
     32  O        -1.9359962288    1.5267038050   -1.3779650810
     33  C        -4.6734236720    2.4079305925    3.1305436854
     34  C        -5.6420253869   -0.8640548416    0.2724930058
     35  C        -6.6770294919   -1.2818482939   -0.8447339950
     36  C        -5.7084531815   -1.6825835920   -2.0181668511
     37  C        -4.2981946441   -1.4288005430   -1.3530882276
     38  O        -4.5121508683   -1.7958375611    0.0671681181
     39  H        -5.8232524881    1.2316649289   -0.4880865515
     40  H        -4.3212757018    0.6381194862   -2.2337340009
     41  H        -4.0037039596    3.2397461866    2.8307872792
     42  H        -6.0173383910   -0.9229071530    1.3127443636
     43  H        -7.2793145445   -2.1399274223   -0.5061193784
     44  H        -7.3563776643   -0.4572356706   -1.1137143627
     45  H        -5.8195882323   -2.7448530082   -2.2878926428
     46  H        -5.8589843446   -1.0714965000   -2.9225396054
     47  H        -3.4615165071   -2.0135132743   -1.7803995179
     48  H        -4.0835567350    1.6748507136    3.7178696368
     49  H        -5.4992699945    2.8021195280    3.7507915034
     50  H         3.9690735573   -3.2846969366    3.3718678254
     51  H         4.9981251692   -3.8200648115    1.9813204162
     52  H         3.2485763802   -3.4700163692    1.7230836526
     53  H         0.7070513732   -1.2250670781   -1.6196749503
     54  H        -0.0831942681    0.3531737417   -2.0406458770
     55  H        -0.1822822745   -1.1753172898    0.6560789146
     56  H        -0.4443892190    0.6136565790    0.5949789642
   Point Group: c1    Number of degrees of freedom:   162


   Energy is  -1510.281290393


 Attempting to Generate Delocalized Internal Coordinates

162 Hessian modes will be used to form the next step
  Hessian Eigenvalues:
     0.002000    0.002000    0.002000    0.002000    0.002000    0.002679
     0.002759    0.004304    0.004446    0.004464    0.004482    0.004608
     0.004799    0.005060    0.005146    0.006804    0.006817    0.011146
     0.011248    0.011807    0.011909    0.021596    0.021735    0.025975
     0.026108    0.030711    0.030911    0.035469    0.035578    0.039867
     0.041289    0.041534    0.041909    0.045641    0.045676    0.046147
     0.046315    0.047432    0.048067    0.050769    0.050953    0.052622
     0.053681    0.054458    0.054572    0.054955    0.055853    0.056686
     0.056721    0.058441    0.059569    0.060515    0.060582    0.063303
     0.063883    0.064140    0.064555    0.069708    0.070215    0.072909
     0.073175    0.091046    0.092646    0.092696    0.092800    0.095765
     0.096714    0.096814    0.097123    0.102630    0.102743    0.110198
     0.110481    0.114715    0.114930    0.121764    0.121967    0.138752
     0.139032    0.157046    0.157665    0.160000    0.160000    0.160000
     0.160000    0.160000    0.160000    0.163835    0.163988    0.218961
     0.220366    0.221156    0.221290    0.226644    0.228414    0.238495
     0.238764    0.239547    0.239556    0.245465    0.247885    0.248798
     0.249473    0.249789    0.249963    0.250000    0.250000    0.250000
     0.250000    0.250000    0.250000    0.250000    0.250000    0.250981
     0.253280    0.253356    0.254849    0.255320    0.260287    0.264842
     0.291242    0.292753    0.305801    0.307666    0.323137    0.324849
     0.326692    0.326732    0.326860    0.326863    0.328634    0.328715
     0.328925    0.329020    0.329651    0.329928    0.330647    0.330819
     0.330824    0.331074    0.331427    0.331791    0.334495    0.334788
     0.334832    0.334839    0.334895    0.334966    0.335060    0.335361
     0.340561    0.343423    0.345671    0.346412    0.404182    0.405272
     0.411303    0.412428    0.825131    0.826073    0.829625    0.833832

 Minimum Search - Taking Simple RFO Step
 Searching for Lamda that Minimizes Along All modes
 Value Taken    Lamda =  -0.00605103
 Calculated Step too Large.  Step scaled by  0.388990
 Step Taken.  Stepsize is  0.300000

                             Maximum     Tolerance    Cnvgd?
         Gradient           0.002975      0.000300      NO
         Displacement       0.088111      0.001200      NO
         Energy change     *********      0.000001      NO


 New Cartesian Coordinates Obtained by Inverse Iteration

 Displacement from previous Coordinates is:  2.420003
 Adding empirical dispersion correction 
 ----------------------------------------------------------------
 Doing -D3(op) with
 s6 =   1.00000
 s8 =   0.78311
 a1 =   0.30000
 a2 =   4.25000
 n  =  10.00000
 -D3 energy without 3body term =     -0.0657840893 hartrees
 ----------------------------------------------------------------
             Standard Nuclear Orientation (Angstroms)
    I     Atom           X                Y                Z
 ----------------------------------------------------------------
    1      O      -3.1032478505     1.2645141824     1.3552532250
    2      C      -4.3350335605     1.1525932900     1.1628946338
    3      C      -5.0537665503     0.5216718633    -0.0749871326
    4      C      -4.0722062937     0.2014173217    -1.2768741243
    5      C      -2.5684929975     0.5808615802    -0.9936414913
    6      O      -1.9181344892    -0.5402141410    -0.3818722255
    7      C      -0.5133816912    -0.2313088699    -0.0334955902
    8      C       0.4418581108    -0.1518199713    -1.2920026438
    9      O       1.6733216059     0.6362311835    -1.0340570448
   10      C       2.4906518118     0.0103765434    -0.0439749961
   11      C       3.7450409611     0.9153061113     0.2607767463
   12      C       5.0455771915     0.0460491352     0.5307996601
   13      C       4.7667986761    -1.4749511588     0.8010723506
   14      O       4.8999997144    -2.4311094433     0.0076793022
   15      O      -5.3318427883     1.5941748791     2.0867388176
   16      O       4.3870447792    -1.6086992201     2.1774764533
   17      O       2.2204865943    -1.0896128889     0.4893390824
   18      C       3.9970537255    -3.0083988706     2.4561439704
   19      C       4.1939904366     1.6991615376    -1.0405804890
   20      C       5.3669981961     2.6977508184    -0.6850217560
   21      C       6.5976214940     1.7192573185    -0.6027401255
   22      C       5.8779004807     0.3283583503    -0.7905612642
   23      O       4.8549673051     0.6248702779    -1.8210679039
   24      H       3.5134631640     1.5775532609     1.1154021092
   25      H       5.5772907280     0.4381450513     1.4166481448
   26      H       3.3539692872     2.1345519960    -1.6141878458
   27      H       5.4935838588     3.4454264693    -1.4837147669
   28      H       5.1825273631     3.2258322914     0.2644646417
   29      H       7.3062966254     1.8973838843    -1.4274358236
   30      H       7.1402030801     1.7898555571     0.3534807074
   31      H       6.5206210630    -0.5133190922    -1.1139354819
   32      O      -2.0064517029     1.6508454137    -1.3154181610
   33      C      -4.6880207026     2.1743069784     3.2888177856
   34      C      -5.6223575638    -0.9318183241     0.2472144012
   35      C      -6.6648621092    -1.3096270285    -0.8775397476
   36      C      -5.7054626169    -1.6130870016    -2.0872029551
   37      C      -4.2914087962    -1.3630807045    -1.4284868811
   38      O      -4.4733884131    -1.8201661823    -0.0301916981
   39      H      -5.8701152367     1.1997666381    -0.3823557618
   40      H      -4.3821162328     0.7500372045    -2.1840316841
   41      H      -4.0529420834     3.0460009202     3.0298699289
   42      H      -5.9791589481    -1.0622091951     1.2874538081
   43      H      -7.2391965695    -2.2023281926    -0.5827542114
   44      H      -7.3695383510    -0.4886497814    -1.0854415556
   45      H      -5.7942577185    -2.6595256055    -2.4197423570
   46      H      -5.8855632213    -0.9519698323    -2.9500408577
   47      H      -3.4473769781    -1.8991715579    -1.9025269965
   48      H      -4.0616714606     1.4263150560     3.8165382348
   49      H      -5.5128834198     2.4995991296     3.9490056923
   50      H       3.7888531717    -3.0599863187     3.5406454590
   51      H       4.8076197545    -3.7199724391     2.1968235193
   52      H       3.0847504972    -3.2872522136     1.8900549461
   53      H       0.7003093741    -1.1745861681    -1.6408959272
   54      H      -0.0740020129     0.4003686005    -2.1017175900
   55      H      -0.1868026613    -1.0548439102     0.6304907159
   56      H      -0.4568250652     0.7305068473     0.5230058891
 ----------------------------------------------------------------
 Molecular Point Group                 C1    NOp =  1
 Largest Abelian Subgroup              C1    NOp =  1
 Nuclear Repulsion Energy =  3035.0647133157 hartrees
 There are      113 alpha and      113 beta electrons
 Applying Cartesian multipole field
    Component          Value
    ---------          -----
     (2,0,0)        1.00000E-12
     (0,2,0)        2.00000E-11
     (0,0,2)       -3.00000E-11
 Nucleus-field energy     =     0.0000000045 hartrees
 Requested basis set is STO-3G
 There are 86 shells and 176 basis functions
 A cutoff of  1.0D-12 yielded   1973 shell pairs
 There are      9236 function pairs
 Smallest overlap matrix eigenvalue = 2.13E-01
 Guess MOs from SCF MO coefficient file
 Reading MOs from coefficient file
 Reading MOs from coefficient file
 A restricted hybrid HF-DFT SCF calculation will be
 performed using Pulay DIIS extrapolation
 Exchange:     0.2000 Hartree-Fock + 0.0800 Slater + 0.7200 B88
 Correlation:  0.1900 VWN1RPA + 0.8100 LYP
 Using SG-1 standard quadrature grid
 Dispersion:   Grimme D3
 SCF converges when DIIS error is below 1.0E-08
 Geometry optimization detected.  Setting ReadMinima to 0
 Setting SaveMinima to 0
 using 48 threads for integral computing
 -------------------------------------------------------
 OpenMP Integral computing Module                
 Release: version 1.0, May 2013, Q-Chem Inc. Pittsburgh 
 -------------------------------------------------------
 -------------------------------------------------------
 OpenMP BLAS3 based DFT computing Module                
 Release: version 1.0, May 2013, Q-Chem Inc. Pittsburgh 
 -------------------------------------------------------
 ---------------------------------------
  Cycle       Energy         DIIS Error
 ---------------------------------------
    1   -1510.2222588549      3.52E-03
    2   -1510.2824263613      2.62E-04
    3   -1510.2825909785      3.02E-04
    4   -1510.2829103093      1.42E-04
    5   -1510.2829919842      4.45E-05
    6   -1510.2830011033      1.31E-05
    7   -1510.2830019116      3.83E-06
    8   -1510.2830019595      2.34E-06
    9   -1510.2830019846      4.33E-07
   10   -1510.2830019856      1.58E-07
   11   -1510.2830019858      5.49E-08
   12   -1510.2830019858      3.41E-08
   13   -1510.2830019858      1.06E-08
   14   -1510.2830019859      1.32E-09 Convergence criterion met
 ---------------------------------------
 SCF time:  CPU 97.56 s  wall 2.04 s
 SCF   energy in the final basis set = -1510.28300199
 Total energy in the final basis set = -1510.28300199
 
 --------------------------------------------------------------
 
                    Orbital Energies (a.u.)
 --------------------------------------------------------------
 
 Alpha MOs
 -- Occupied --
-18.943 -18.938 -18.925 -18.919 -18.889 -18.885 -18.881 -18.877
-18.862 -18.860 -10.106 -10.101 -10.094 -10.088 -10.070 -10.067
-10.062 -10.062 -10.059 -10.054 -10.053 -10.051 -10.041 -10.037
-10.035 -10.029 -10.022 -10.020 -10.017 -10.015  -1.019  -1.015
 -1.001  -0.996  -0.971  -0.964  -0.943  -0.938  -0.928  -0.923
 -0.764  -0.758  -0.725  -0.721  -0.712  -0.703  -0.688  -0.667
 -0.652  -0.615  -0.595  -0.580  -0.546  -0.541  -0.538  -0.533
 -0.513  -0.505  -0.483  -0.475  -0.463  -0.453  -0.449  -0.444
 -0.434  -0.430  -0.427  -0.416  -0.410  -0.402  -0.399  -0.394
 -0.386  -0.379  -0.377  -0.364  -0.361  -0.354  -0.349  -0.346
 -0.339  -0.336  -0.332  -0.330  -0.327  -0.326  -0.320  -0.314
 -0.307  -0.305  -0.303  -0.301  -0.295  -0.283  -0.278  -0.274
 -0.271  -0.261  -0.256  -0.243  -0.239  -0.234  -0.229  -0.187
 -0.183  -0.165  -0.162  -0.159  -0.153  -0.145  -0.142  -0.141
 -0.139
 -- Virtual --
  0.092   0.096   0.110   0.116   0.214   0.241   0.244   0.248
  0.265   0.280   0.287   0.290   0.303   0.324   0.327   0.334
  0.336   0.345   0.346   0.353   0.357   0.358   0.366   0.372
  0.373   0.380   0.388   0.400   0.404   0.405   0.410   0.412
  0.417   0.418   0.423   0.425   0.429   0.434   0.434   0.436
  0.437   0.440   0.443   0.445   0.449   0.451   0.454   0.456
  0.466   0.471   0.489   0.489   0.493   0.503   0.512   0.535
  0.541   0.551   0.558   0.636   0.640   0.652   0.660
 --------------------------------------------------------------
 
          Ground-State Mulliken Net Atomic Charges

     Atom                 Charge (a.u.)
  ----------------------------------------
      1 O                    -0.207575
      2 C                     0.213232
      3 C                    -0.078816
      4 C                    -0.081289
      5 C                     0.214045
      6 O                    -0.168625
      7 C                    -0.051539
      8 C                    -0.051296
      9 O                    -0.166168
     10 C                     0.213139
     11 C                    -0.075647
     12 C                    -0.081738
     13 C                     0.212255
     14 O                    -0.216958
     15 O                    -0.169167
     16 O                    -0.171985
     17 O                    -0.214084
     18 C                    -0.127807
     19 C                     0.022564
     20 C                    -0.145290
     21 C                    -0.142676
     22 C                     0.023350
     23 O                    -0.191064
     24 H                     0.086503
     25 H                     0.083019
     26 H                     0.092916
     27 H                     0.077668
     28 H                     0.072543
     29 H                     0.077245
     30 H                     0.072602
     31 H                     0.087511
     32 O                    -0.221575
     33 C                    -0.128336
     34 C                     0.025666
     35 C                    -0.143412
     36 C                    -0.144585
     37 C                     0.026623
     38 O                    -0.186182
     39 H                     0.086991
     40 H                     0.083053
     41 H                     0.091167
     42 H                     0.084661
     43 H                     0.078332
     44 H                     0.073862
     45 H                     0.078167
     46 H                     0.073543
     47 H                     0.087148
     48 H                     0.090802
     49 H                     0.091980
     50 H                     0.086347
     51 H                     0.086585
     52 H                     0.092880
     53 H                     0.089565
     54 H                     0.097380
     55 H                     0.099376
     56 H                     0.093096
  ----------------------------------------
  Sum of atomic charges =    -0.000000

 -----------------------------------------------------------------
                    Cartesian Multipole Moments
 -----------------------------------------------------------------
    Charge (ESU x 10^10)
                 0.0000
    Dipole Moment (Debye)
         X      -2.4121      Y       1.6559      Z       1.4995
       Tot       3.2877
    Quadrupole Moments (Debye-Ang)
        XX    -138.9749     XY       5.9067     YY    -160.8213
        XZ       7.7774     YZ       3.3950     ZZ    -153.8385
    Octopole Moments (Debye-Ang^2)
       XXX     -57.4729    XXY      49.0592    XYY       7.4724
       YYY      -4.6449    XXZ      27.5440    XYZ     -31.3309
       YYZ      24.4416    XZZ     -43.4278    YZZ      -3.3311
       ZZZ      35.3934
    Hexadecapole Moments (Debye-Ang^3)
      XXXX  -17914.4058   XXXY      20.3482   XXYY   -3490.1185
      XYYY    -184.1422   YYYY   -2250.6293   XXXZ     163.1947
      XXYZ      15.2194   XYYZ      10.4479   YYYZ       6.3004
      XXZZ   -3369.2524   XYZZ    -129.6256   YYZZ    -636.5093
      XZZZ     -78.4416   YZZZ      44.8804   ZZZZ   -1898.5707
 -----------------------------------------------------------------
 Calculating analytic gradient of the SCF energy
 Gradient of SCF Energy
            1           2           3           4           5           6
    1   0.0001797  -0.0000455   0.0001867  -0.0005518   0.0003385  -0.0018898
    2  -0.0005723  -0.0000325  -0.0001376   0.0001362  -0.0018845   0.0033726
    3  -0.0000019  -0.0002519   0.0002173   0.0001600  -0.0018952   0.0029612
            7           8           9          10          11          12
    1   0.0011588   0.0003662   0.0011826   0.0006814  -0.0012123   0.0002418
    2  -0.0040910   0.0018079  -0.0022138  -0.0002396   0.0016650  -0.0001312
    3  -0.0017057   0.0006688  -0.0032754  -0.0016345   0.0051604  -0.0049032
           13          14          15          16          17          18
    1   0.0015105   0.0003262  -0.0000162  -0.0011844  -0.0010924  -0.0002257
    2   0.0004332  -0.0003763   0.0004093  -0.0000923   0.0006922   0.0001572
    3   0.0013999   0.0001875  -0.0001604  -0.0004127   0.0014040  -0.0000784
           19          20          21          22          23          24
    1  -0.0004093   0.0000199   0.0000145  -0.0006859  -0.0000543   0.0005365
    2   0.0005190  -0.0001268  -0.0000870  -0.0000904   0.0003582  -0.0003921
    3  -0.0000743  -0.0000946   0.0002512   0.0002730   0.0000579   0.0002362
           25          26          27          28          29          30
    1   0.0005557   0.0003819   0.0000310   0.0000981   0.0000612   0.0000336
    2  -0.0003399   0.0001125   0.0001060   0.0000413  -0.0000255  -0.0000145
    3   0.0001395  -0.0000593   0.0000189   0.0000222  -0.0000306   0.0000323
           31          32          33          34          35          36
    1  -0.0000328  -0.0008381  -0.0000555  -0.0001339   0.0002369   0.0003172
    2  -0.0000998   0.0009765  -0.0000420  -0.0002346  -0.0001058   0.0002771
    3   0.0001352   0.0000173   0.0000070   0.0000753  -0.0001219   0.0000955
           37          38          39          40          41          42
    1  -0.0000932   0.0002607  -0.0001718   0.0001478   0.0000014   0.0000166
    2  -0.0000460   0.0001980  -0.0000383   0.0001771   0.0000442  -0.0000535
    3  -0.0003188   0.0000083   0.0001757  -0.0000038   0.0000223   0.0000179
           43          44          45          46          47          48
    1  -0.0000378  -0.0000576   0.0000159  -0.0001393  -0.0000126   0.0000327
    2   0.0000375  -0.0000335  -0.0000043  -0.0000774   0.0000643   0.0000027
    3   0.0000877  -0.0001147   0.0000614  -0.0000957   0.0000440  -0.0000001
           49          50          51          52          53          54
    1  -0.0000069  -0.0000602   0.0000813  -0.0000100   0.0004480  -0.0001569
    2   0.0000690   0.0000082   0.0000296  -0.0001470  -0.0000122   0.0001396
    3  -0.0000204  -0.0000269   0.0000061   0.0001846  -0.0000127   0.0008523
           55          56
    1  -0.0003147   0.0000256
    2  -0.0001184   0.0000255
    3  -0.0004639   0.0007764
 Max gradient component =       5.160E-03
 RMS gradient           =       9.414E-04
 Gradient time:  CPU 32.08 s  wall 0.69 s
 Geometry Optimization Parameters
   NAtoms,    NIC,     NZ,  NCons,   NDum,   NFix, NCnnct, MaxDiis
       56     458       0       0       0       0       0       0

 Cartesian Hessian Update
 Hessian Updated using BFGS Update


** GEOMETRY OPTIMIZATION IN DELOCALIZED INTERNAL COORDINATES **
   Searching for a Minimum

   Optimization Cycle:   2

                       Coordinates (Angstroms)
     ATOM                X               Y               Z
      1  O        -3.1032478505    1.2645141824    1.3552532250
      2  C        -4.3350335605    1.1525932900    1.1628946338
      3  C        -5.0537665503    0.5216718633   -0.0749871326
      4  C        -4.0722062937    0.2014173217   -1.2768741243
      5  C        -2.5684929975    0.5808615802   -0.9936414913
      6  O        -1.9181344892   -0.5402141410   -0.3818722255
      7  C        -0.5133816912   -0.2313088699   -0.0334955902
      8  C         0.4418581108   -0.1518199713   -1.2920026438
      9  O         1.6733216059    0.6362311835   -1.0340570448
     10  C         2.4906518118    0.0103765434   -0.0439749961
     11  C         3.7450409611    0.9153061113    0.2607767463
     12  C         5.0455771915    0.0460491352    0.5307996601
     13  C         4.7667986761   -1.4749511588    0.8010723506
     14  O         4.8999997144   -2.4311094433    0.0076793022
     15  O        -5.3318427883    1.5941748791    2.0867388176
     16  O         4.3870447792   -1.6086992201    2.1774764533
     17  O         2.2204865943   -1.0896128889    0.4893390824
     18  C         3.9970537255   -3.0083988706    2.4561439704
     19  C         4.1939904366    1.6991615376   -1.0405804890
     20  C         5.3669981961    2.6977508184   -0.6850217560
     21  C         6.5976214940    1.7192573185   -0.6027401255
     22  C         5.8779004807    0.3283583503   -0.7905612642
     23  O         4.8549673051    0.6248702779   -1.8210679039
     24  H         3.5134631640    1.5775532609    1.1154021092
     25  H         5.5772907280    0.4381450513    1.4166481448
     26  H         3.3539692872    2.1345519960   -1.6141878458
     27  H         5.4935838588    3.4454264693   -1.4837147669
     28  H         5.1825273631    3.2258322914    0.2644646417
     29  H         7.3062966254    1.8973838843   -1.4274358236
     30  H         7.1402030801    1.7898555571    0.3534807074
     31  H         6.5206210630   -0.5133190922   -1.1139354819
     32  O        -2.0064517029    1.6508454137   -1.3154181610
     33  C        -4.6880207026    2.1743069784    3.2888177856
     34  C        -5.6223575638   -0.9318183241    0.2472144012
     35  C        -6.6648621092   -1.3096270285   -0.8775397476
     36  C        -5.7054626169   -1.6130870016   -2.0872029551
     37  C        -4.2914087962   -1.3630807045   -1.4284868811
     38  O        -4.4733884131   -1.8201661823   -0.0301916981
     39  H        -5.8701152367    1.1997666381   -0.3823557618
     40  H        -4.3821162328    0.7500372045   -2.1840316841
     41  H        -4.0529420834    3.0460009202    3.0298699289
     42  H        -5.9791589481   -1.0622091951    1.2874538081
     43  H        -7.2391965695   -2.2023281926   -0.5827542114
     44  H        -7.3695383510   -0.4886497814   -1.0854415556
     45  H        -5.7942577185   -2.6595256055   -2.4197423570
     46  H        -5.8855632213   -0.9519698323   -2.9500408577
     47  H        -3.4473769781   -1.8991715579   -1.9025269965
     48  H        -4.0616714606    1.4263150560    3.8165382348
     49  H        -5.5128834198    2.4995991296    3.9490056923
     50  H         3.7888531717   -3.0599863187    3.5406454590
     51  H         4.8076197545   -3.7199724391    2.1968235193
     52  H         3.0847504972   -3.2872522136    1.8900549461
     53  H         0.7003093741   -1.1745861681   -1.6408959272
     54  H        -0.0740020129    0.4003686005   -2.1017175900
     55  H        -0.1868026613   -1.0548439102    0.6304907159
     56  H        -0.4568250652    0.7305068473    0.5230058891
   Point Group: c1    Number of degrees of freedom:   162


   Energy is  -1510.283001986

 Hessian Updated using BFGS Update

149 Hessian modes will be used to form the next step
  Hessian Eigenvalues:
     0.001599    0.002078    0.002679    0.002748    0.003784    0.004310
     0.004475    0.004521    0.004758    0.004799    0.005145    0.006772
     0.006801    0.011076    0.011157    0.011324    0.011809    0.019881
     0.021612    0.021928    0.025956    0.026417    0.030683    0.030911
     0.035470    0.035668    0.039532    0.041284    0.041473    0.041914
     0.045198    0.045646    0.046296    0.046955    0.047677    0.048145
     0.050942    0.051542    0.053273    0.053671    0.054479    0.054636
     0.055083    0.055835    0.056691    0.057287    0.058713    0.059709
     0.060521    0.060547    0.063302    0.063887    0.064148    0.064557
     0.069710    0.070208    0.072908    0.073119    0.091017    0.092634
     0.092712    0.092775    0.095808    0.096714    0.096874    0.097141
     0.102627    0.102742    0.110198    0.110871    0.114739    0.115322
     0.121812    0.122648    0.138723    0.139437    0.157166    0.157840
     0.159999    0.160116    0.163836    0.164540    0.218958    0.219989
     0.221264    0.226508    0.227804    0.228569    0.238499    0.238774
     0.239509    0.239563    0.245417    0.247880    0.248795    0.248838
     0.249556    0.249793    0.249965    0.250959    0.253253    0.253346
     0.254679    0.255279    0.260282    0.264823    0.276806    0.292704
     0.293038    0.305803    0.308033    0.323248    0.324884    0.326691
     0.326742    0.326860    0.326862    0.328714    0.328790    0.328929
     0.329280    0.329666    0.329912    0.330655    0.330820    0.330825
     0.331045    0.331428    0.331794    0.334515    0.334793    0.334832
     0.334859    0.334894    0.334966    0.335061    0.335373    0.340752
     0.343423    0.346359    0.347983    0.404219    0.405337    0.411311
     0.412655    0.825151    0.826103    0.829729    0.833840

 Minimum Search - Taking Simple RFO Step
 Searching for Lamda that Minimizes Along All modes
 Value Taken    Lamda =  -0.00437373
 Calculated Step too Large.  Step scaled by  0.375791
 Step Taken.  Stepsize is  0.300000

                             Maximum     Tolerance    Cnvgd?
         Gradient           0.003832      0.000300      NO
         Displacement       0.092972      0.001200      NO
         Energy change     -0.001712      0.000001      NO


 New Cartesian Coordinates Obtained by Inverse Iteration

 Displacement from previous Coordinates is:  1.490833
 Adding empirical dispersion correction 
 ----------------------------------------------------------------
 Doing -D3(op) with
 s6 =   1.00000
 s8 =   0.78311
 a1 =   0.30000
 a2 =   4.25000
 n  =  10.00000
 -D3 energy without 3body term =     -0.0655406887 hartrees
 ----------------------------------------------------------------
             Standard Nuclear Orientation (Angstroms)
    I     Atom           X                Y                Z
 ----------------------------------------------------------------
    1      O      -3.1986974023     1.3013745217     1.4072336047
    2      C      -4.4223083229     1.1475688219     1.1930603746
    3      C      -5.0994466503     0.5227176046    -0.0715036932
    4      C      -4.0859022266     0.2390667151    -1.2563672692
    5      C      -2.5957768518     0.6433841954    -0.9370082312
    6      O      -1.9258544619    -0.4807151073    -0.3530548795
    7      C      -0.5347432697    -0.1358140005     0.0114753351
    8      C       0.4339911413    -0.0815632182    -1.2371366812
    9      O       1.6643618963     0.7070782128    -0.9768259722
   10      C       2.5121801921     0.0473599407    -0.0358686148
   11      C       3.7933835102     0.9252470063     0.2258915482
   12      C       5.0735687357     0.0333549699     0.5163543441
   13      C       4.7581706283    -1.4749836561     0.8150215590
   14      O       4.8338389406    -2.4422972608     0.0277122551
   15      O      -5.4478172421     1.5152656774     2.1177815392
   16      O       4.4659651292    -1.5885969533     2.2144055824
   17      O       2.2584881854    -1.0690223202     0.4706247856
   18      C       4.0656219159    -2.9775080031     2.5301732169
   19      C       4.2466398204     1.6602580246    -1.1010683457
   20      C       5.4400229602     2.6462489689    -0.7820959434
   21      C       6.6514354323     1.6465654216    -0.6744878837
   22      C       5.9043324081     0.2644518660    -0.8174163654
   23      O       4.8816014552     0.5496853418    -1.8516072190
   24      H       3.5860761019     1.6156466937     1.0645125026
   25      H       5.6198198271     0.4335240021     1.3893115155
   26      H       3.4099675583     2.0937146820    -1.6814119797
   27      H       5.5766372435     3.3662126342    -1.6041987466
   28      H       5.2699853487     3.2065399687     0.1514219499
   29      H       7.3596597476     1.7858621061    -1.5069470795
   30      H       7.1994664812     1.7357197291     0.2769778479
   31      H       6.5292255772    -0.5978975943    -1.1206378897
   32      O      -2.0460379158     1.7254726301    -1.2383471668
   33      C      -4.8429891538     2.0746830896     3.3494797611
   34      C      -5.6478280298    -0.9458485961     0.2155416781
   35      C      -6.6593197884    -1.3235963579    -0.9372918600
   36      C      -5.6685479178    -1.5903220337    -2.1303459784
   37      C      -4.2734966318    -1.3267864015    -1.4365335130
   38      O      -4.4781219191    -1.8099994985    -0.0503172802
   39      H      -5.9223782677     1.1891014643    -0.3865690620
   40      H      -4.3879925704     0.7947309514    -2.1617883831
   41      H      -4.2395873521     2.9795381376     3.1320466934
   42      H      -6.0248671027    -1.0987784801     1.2454941117
   43      H      -7.2238988917    -2.2310198034    -0.6699622724
   44      H      -7.3736379977    -0.5114132444    -1.1466388229
   45      H      -5.7318226515    -2.6322273380    -2.4824043651
   46      H      -5.8406893405    -0.9173135838    -2.9855493499
   47      H      -3.4101604160    -1.8404849501    -1.9005970473
   48      H      -4.1944866270     1.3323310970     3.8580342535
   49      H      -5.6884797125     2.3421767132     4.0094860051
   50      H       3.9270811476    -3.0167996416     3.6262842429
   51      H       4.8420387549    -3.7086190898     2.2249354398
   52      H       3.1129198383    -3.2399384042     2.0261273092
   53      H       0.6936690639    -1.1103043504    -1.5667702891
   54      H      -0.0720386841     0.4573466237    -2.0623500388
   55      H      -0.2049969938    -0.9388724869     0.6988821345
   56      H      -0.4999336845     0.8398761425     0.5444257684
 ----------------------------------------------------------------
 Molecular Point Group                 C1    NOp =  1
 Largest Abelian Subgroup              C1    NOp =  1
 Nuclear Repulsion Energy =  3027.3274337114 hartrees
 There are      113 alpha and      113 beta electrons
 Applying Cartesian multipole field
    Component          Value
    ---------          -----
     (2,0,0)        1.00000E-12
     (0,2,0)        2.00000E-11
     (0,0,2)       -3.00000E-11
 Nucleus-field energy     =     0.0000000025 hartrees
 Requested basis set is STO-3G
 There are 86 shells and 176 basis functions
 A cutoff of  1.0D-12 yielded   1965 shell pairs
 There are      9192 function pairs
 Smallest overlap matrix eigenvalue = 2.13E-01
 Guess MOs from SCF MO coefficient file
 Reading MOs from coefficient file
 Reading MOs from coefficient file
 A restricted hybrid HF-DFT SCF calculation will be
 performed using Pulay DIIS extrapolation
 Exchange:     0.2000 Hartree-Fock + 0.0800 Slater + 0.7200 B88
 Correlation:  0.1900 VWN1RPA + 0.8100 LYP
 Using SG-1 standard quadrature grid
 Dispersion:   Grimme D3
 SCF converges when DIIS error is below 1.0E-08
 Geometry optimization detected.  Setting ReadMinima to 0
 Setting SaveMinima to 0
 using 48 threads for integral computing
 -------------------------------------------------------
 OpenMP Integral computing Module                
 Release: version 1.0, May 2013, Q-Chem Inc. Pittsburgh 
 -------------------------------------------------------
 -------------------------------------------------------
 OpenMP BLAS3 based DFT computing Module                
 Release: version 1.0, May 2013, Q-Chem Inc. Pittsburgh 
 -------------------------------------------------------
 ---------------------------------------
  Cycle       Energy         DIIS Error
 ---------------------------------------
    1   -1510.2628064906      2.27E-03
    2   -1510.2840383654      1.36E-04
    3   -1510.2841463687      1.43E-04
    4   -1510.2842084712      8.22E-05
    5   -1510.2842371414      2.17E-05
    6   -1510.2842393197      6.12E-06
    7   -1510.2842394557      3.33E-06
    8   -1510.2842395020      1.01E-06
    9   -1510.2842395073      2.58E-07
   10   -1510.2842395076      1.09E-07
   11   -1510.2842395076      6.57E-08
   12   -1510.2842395078      1.43E-08
   13   -1510.2842395078      3.31E-09 Convergence criterion met
 ---------------------------------------
 SCF time:  CPU 90.79 s  wall 1.90 s
 SCF   energy in the final basis set = -1510.28423951
 Total energy in the final basis set = -1510.28423951
 
 --------------------------------------------------------------
 
                    Orbital Energies (a.u.)
 --------------------------------------------------------------
 
 Alpha MOs
 -- Occupied --
-18.943 -18.939 -18.926 -18.918 -18.889 -18.886 -18.881 -18.879
-18.862 -18.858 -10.107 -10.102 -10.094 -10.087 -10.070 -10.068
-10.063 -10.062 -10.059 -10.054 -10.053 -10.051 -10.041 -10.037
-10.035 -10.029 -10.022 -10.020 -10.017 -10.015  -1.020  -1.015
 -1.002  -0.995  -0.971  -0.965  -0.944  -0.939  -0.928  -0.922
 -0.764  -0.758  -0.725  -0.721  -0.712  -0.703  -0.689  -0.667
 -0.651  -0.615  -0.595  -0.580  -0.546  -0.541  -0.538  -0.533
 -0.513  -0.505  -0.483  -0.475  -0.463  -0.453  -0.449  -0.444
 -0.434  -0.430  -0.427  -0.416  -0.410  -0.402  -0.399  -0.394
 -0.386  -0.380  -0.378  -0.363  -0.360  -0.355  -0.350  -0.346
 -0.339  -0.336  -0.332  -0.330  -0.327  -0.326  -0.319  -0.314
 -0.308  -0.305  -0.302  -0.301  -0.295  -0.283  -0.278  -0.273
 -0.270  -0.261  -0.256  -0.243  -0.240  -0.234  -0.229  -0.188
 -0.184  -0.164  -0.161  -0.160  -0.155  -0.146  -0.142  -0.140
 -0.138
 -- Virtual --
  0.092   0.096   0.110   0.117   0.214   0.241   0.245   0.248
  0.266   0.280   0.287   0.290   0.303   0.324   0.327   0.334
  0.335   0.344   0.347   0.352   0.357   0.358   0.366   0.372
  0.374   0.379   0.387   0.399   0.404   0.405   0.410   0.412
  0.417   0.418   0.422   0.425   0.429   0.434   0.434   0.436
  0.437   0.440   0.443   0.444   0.449   0.450   0.453   0.456
  0.466   0.471   0.488   0.489   0.492   0.503   0.512   0.535
  0.542   0.551   0.558   0.636   0.639   0.651   0.662
 --------------------------------------------------------------
 
          Ground-State Mulliken Net Atomic Charges

     Atom                 Charge (a.u.)
  ----------------------------------------
      1 O                    -0.207446
      2 C                     0.213419
      3 C                    -0.078804
      4 C                    -0.081378
      5 C                     0.214087
      6 O                    -0.168765
      7 C                    -0.051470
      8 C                    -0.050831
      9 O                    -0.166556
     10 C                     0.213846
     11 C                    -0.075883
     12 C                    -0.082082
     13 C                     0.212954
     14 O                    -0.217854
     15 O                    -0.169157
     16 O                    -0.173294
     17 O                    -0.212547
     18 C                    -0.128120
     19 C                     0.022644
     20 C                    -0.145199
     21 C                    -0.142801
     22 C                     0.023641
     23 O                    -0.191016
     24 H                     0.086129
     25 H                     0.083235
     26 H                     0.092617
     27 H                     0.077729
     28 H                     0.072757
     29 H                     0.077338
     30 H                     0.072750
     31 H                     0.087273
     32 O                    -0.221538
     33 C                    -0.128322
     34 C                     0.025634
     35 C                    -0.143436
     36 C                    -0.144562
     37 C                     0.026544
     38 O                    -0.186387
     39 H                     0.086977
     40 H                     0.083191
     41 H                     0.091241
     42 H                     0.084840
     43 H                     0.078356
     44 H                     0.073824
     45 H                     0.078212
     46 H                     0.073500
     47 H                     0.087337
     48 H                     0.090883
     49 H                     0.092053
     50 H                     0.086060
     51 H                     0.086894
     52 H                     0.092367
     53 H                     0.090803
     54 H                     0.096235
     55 H                     0.097682
     56 H                     0.094393
  ----------------------------------------
  Sum of atomic charges =    -0.000000

 -----------------------------------------------------------------
                    Cartesian Multipole Moments
 -----------------------------------------------------------------
    Charge (ESU x 10^10)
                 0.0000
    Dipole Moment (Debye)
         X      -2.3987      Y       1.6751      Z       1.4451
       Tot       3.2631
    Quadrupole Moments (Debye-Ang)
        XX    -138.0642     XY       6.1117     YY    -161.5846
        XZ       7.2247     YZ       2.8596     ZZ    -153.3581
    Octopole Moments (Debye-Ang^2)
       XXX     -53.8039    XXY      49.0184    XYY       8.6262
       YYY      -7.5115    XXZ      26.8328    XYZ     -32.2995
       YYZ      23.5077    XZZ     -44.3754    YZZ      -3.8097
       ZZZ      34.8799
    Hexadecapole Moments (Debye-Ang^3)
      XXXX  -18156.1692   XXXY      33.1877   XXYY   -3523.6015
      XYYY    -150.4629   YYYY   -2203.8763   XXXZ     172.1348
      XXYZ      20.1264   XYYZ      23.6683   YYYZ      20.1618
      XXZZ   -3412.1600   XYZZ    -121.9792   YYZZ    -636.4870
      XZZZ     -49.0930   YZZZ      54.4234   ZZZZ   -1946.7217
 -----------------------------------------------------------------
 Calculating analytic gradient of the SCF energy
 Gradient of SCF Energy
            1           2           3           4           5           6
    1  -0.0003361   0.0000090   0.0002962  -0.0001942   0.0010883  -0.0013918
    2  -0.0002599   0.0009692   0.0000095  -0.0002109  -0.0011584   0.0016766
    3   0.0006520  -0.0002946   0.0002078  -0.0006369   0.0012006   0.0012518
            7           8           9          10          11          12
    1  -0.0007794   0.0007982   0.0011469  -0.0007083  -0.0001118   0.0012198
    2  -0.0012608   0.0005012  -0.0018881   0.0006077   0.0007210  -0.0009445
    3  -0.0025714   0.0011165  -0.0031883   0.0008204   0.0014864  -0.0021270
           13          14          15          16          17          18
    1  -0.0007039   0.0004115  -0.0000487   0.0001911  -0.0005267   0.0001606
    2   0.0009159  -0.0001687   0.0001849  -0.0001456   0.0005281  -0.0001040
    3   0.0012236   0.0005393  -0.0000909  -0.0005385  -0.0001013   0.0000132
           19          20          21          22          23          24
    1  -0.0000525   0.0000319   0.0001655  -0.0008641  -0.0003473   0.0003065
    2   0.0009131  -0.0000238  -0.0000106   0.0002912   0.0002176  -0.0010638
    3  -0.0000428  -0.0000744   0.0003964   0.0002684  -0.0000543   0.0007166
           25          26          27          28          29          30
    1   0.0008568   0.0002598  -0.0001093   0.0000895  -0.0000136  -0.0000247
    2  -0.0000985   0.0001442   0.0000820  -0.0001003   0.0000119  -0.0000027
    3  -0.0001261  -0.0001141   0.0000437  -0.0000193  -0.0000565  -0.0000563
           31          32          33          34          35          36
    1  -0.0001172  -0.0005253  -0.0000441   0.0001724   0.0001355   0.0002520
    2  -0.0001477   0.0003262  -0.0001225  -0.0002318  -0.0001565   0.0000011
    3   0.0001029  -0.0008026  -0.0000636  -0.0001698  -0.0001570   0.0000689
           37          38          39          40          41          42
    1  -0.0001203   0.0000591  -0.0001919   0.0000398  -0.0000056  -0.0000113
    2   0.0001287  -0.0000538  -0.0001585   0.0000572  -0.0000074  -0.0000553
    3  -0.0002227   0.0000774   0.0002886   0.0000517   0.0000132  -0.0000308
           43          44          45          46          47          48
    1  -0.0000073  -0.0000619  -0.0000266  -0.0000807  -0.0000299  -0.0000129
    2   0.0000422  -0.0000285   0.0000023   0.0000118   0.0000487   0.0000046
    3   0.0000198  -0.0000276   0.0000696  -0.0000401   0.0000108   0.0000476
           49          50          51          52          53          54
    1   0.0000262  -0.0000469   0.0000497  -0.0000544   0.0005409  -0.0003069
    2   0.0000456   0.0000346   0.0000132   0.0000787   0.0000527   0.0000490
    3   0.0000078  -0.0000314   0.0000530   0.0001493  -0.0003555   0.0007188
           55          56
    1  -0.0005797   0.0001280
    2  -0.0001864  -0.0000815
    3  -0.0008170   0.0011947
 Max gradient component =       3.188E-03
 RMS gradient           =       6.171E-04
 Gradient time:  CPU 33.00 s  wall 0.71 s
 Geometry Optimization Parameters
   NAtoms,    NIC,     NZ,  NCons,   NDum,   NFix, NCnnct, MaxDiis
       56     458       0       0       0       0       0       0

 Cartesian Hessian Update
 Hessian Updated using BFGS Update


** GEOMETRY OPTIMIZATION IN DELOCALIZED INTERNAL COORDINATES **
   Searching for a Minimum

   Optimization Cycle:   3

                       Coordinates (Angstroms)
     ATOM                X               Y               Z
      1  O        -3.1986974023    1.3013745217    1.4072336047
      2  C        -4.4223083229    1.1475688219    1.1930603746
      3  C        -5.0994466503    0.5227176046   -0.0715036932
      4  C        -4.0859022266    0.2390667151   -1.2563672692
      5  C        -2.5957768518    0.6433841954   -0.9370082312
      6  O        -1.9258544619   -0.4807151073   -0.3530548795
      7  C        -0.5347432697   -0.1358140005    0.0114753351
      8  C         0.4339911413   -0.0815632182   -1.2371366812
      9  O         1.6643618963    0.7070782128   -0.9768259722
     10  C         2.5121801921    0.0473599407   -0.0358686148
     11  C         3.7933835102    0.9252470063    0.2258915482
     12  C         5.0735687357    0.0333549699    0.5163543441
     13  C         4.7581706283   -1.4749836561    0.8150215590
     14  O         4.8338389406   -2.4422972608    0.0277122551
     15  O        -5.4478172421    1.5152656774    2.1177815392
     16  O         4.4659651292   -1.5885969533    2.2144055824
     17  O         2.2584881854   -1.0690223202    0.4706247856
     18  C         4.0656219159   -2.9775080031    2.5301732169
     19  C         4.2466398204    1.6602580246   -1.1010683457
     20  C         5.4400229602    2.6462489689   -0.7820959434
     21  C         6.6514354323    1.6465654216   -0.6744878837
     22  C         5.9043324081    0.2644518660   -0.8174163654
     23  O         4.8816014552    0.5496853418   -1.8516072190
     24  H         3.5860761019    1.6156466937    1.0645125026
     25  H         5.6198198271    0.4335240021    1.3893115155
     26  H         3.4099675583    2.0937146820   -1.6814119797
     27  H         5.5766372435    3.3662126342   -1.6041987466
     28  H         5.2699853487    3.2065399687    0.1514219499
     29  H         7.3596597476    1.7858621061   -1.5069470795
     30  H         7.1994664812    1.7357197291    0.2769778479
     31  H         6.5292255772   -0.5978975943   -1.1206378897
     32  O        -2.0460379158    1.7254726301   -1.2383471668
     33  C        -4.8429891538    2.0746830896    3.3494797611
     34  C        -5.6478280298   -0.9458485961    0.2155416781
     35  C        -6.6593197884   -1.3235963579   -0.9372918600
     36  C        -5.6685479178   -1.5903220337   -2.1303459784
     37  C        -4.2734966318   -1.3267864015   -1.4365335130
     38  O        -4.4781219191   -1.8099994985   -0.0503172802
     39  H        -5.9223782677    1.1891014643   -0.3865690620
     40  H        -4.3879925704    0.7947309514   -2.1617883831
     41  H        -4.2395873521    2.9795381376    3.1320466934
     42  H        -6.0248671027   -1.0987784801    1.2454941117
     43  H        -7.2238988917   -2.2310198034   -0.6699622724
     44  H        -7.3736379977   -0.5114132444   -1.1466388229
     45  H        -5.7318226515   -2.6322273380   -2.4824043651
     46  H        -5.8406893405   -0.9173135838   -2.9855493499
     47  H        -3.4101604160   -1.8404849501   -1.9005970473
     48  H        -4.1944866270    1.3323310970    3.8580342535
     49  H        -5.6884797125    2.3421767132    4.0094860051
     50  H         3.9270811476   -3.0167996416    3.6262842429
     51  H         4.8420387549   -3.7086190898    2.2249354398
     52  H         3.1129198383   -3.2399384042    2.0261273092
     53  H         0.6936690639   -1.1103043504   -1.5667702891
     54  H        -0.0720386841    0.4573466237   -2.0623500388
     55  H        -0.2049969938   -0.9388724869    0.6988821345
     56  H        -0.4999336845    0.8398761425    0.5444257684
   Point Group: c1    Number of degrees of freedom:   162


   Energy is  -1510.284239508

 Hessian Updated using BFGS Update

152 Hessian modes will be used to form the next step
  Hessian Eigenvalues:
     0.001352    0.002041    0.002424    0.002684    0.003034    0.003844
     0.004312    0.004498    0.004698    0.004799    0.005144    0.006099
     0.006799    0.008916    0.011106    0.011133    0.011807    0.013770
     0.021316    0.021625    0.023617    0.025910    0.029302    0.030688
     0.031017    0.035487    0.036297    0.038878    0.041371    0.041825
     0.042040    0.043929    0.045846    0.046327    0.047536    0.048079
     0.049960    0.051065    0.051541    0.053270    0.053669    0.054522
     0.054705    0.055341    0.055817    0.056767    0.057259    0.059454
     0.059868    0.060531    0.060991    0.063341    0.063889    0.064147
     0.064576    0.069790    0.070226    0.072911    0.073337    0.092441
     0.092621    0.092751    0.092797    0.096047    0.096715    0.097127
     0.099590    0.102624    0.102778    0.110266    0.112834    0.114848
     0.115333    0.121782    0.126346    0.139130    0.140212    0.156897
     0.159329    0.159996    0.160003    0.161145    0.163970    0.165236
     0.218347    0.219105    0.223076    0.225081    0.227180    0.229823
     0.238487    0.238615    0.239480    0.239560    0.244458    0.246092
     0.247912    0.248828    0.249545    0.249813    0.249976    0.250938
     0.253109    0.253332    0.254320    0.254839    0.256553    0.260146
     0.264189    0.277386    0.292353    0.292786    0.305907    0.308420
     0.323141    0.324871    0.326692    0.326738    0.326860    0.326864
     0.328693    0.328715    0.328931    0.329192    0.329654    0.329926
     0.330636    0.330820    0.330825    0.331041    0.331440    0.331802
     0.334525    0.334791    0.334832    0.334869    0.334894    0.334969
     0.335060    0.335372    0.341025    0.343436    0.346379    0.348261
     0.404316    0.407420    0.411313    0.412926    0.825497    0.826387
     0.829660    0.834023

 Minimum Search - Taking Simple RFO Step
 Searching for Lamda that Minimizes Along All modes
 Value Taken    Lamda =  -0.00345166
 Calculated Step too Large.  Step scaled by  0.392205
 Step Taken.  Stepsize is  0.300000

                             Maximum     Tolerance    Cnvgd?
         Gradient           0.004899      0.000300      NO
         Displacement       0.101204      0.001200      NO
         Energy change     -0.001238      0.000001      NO


 New Cartesian Coordinates Obtained by Inverse Iteration

 Displacement from previous Coordinates is:  1.216238
 Adding empirical dispersion correction 
 ----------------------------------------------------------------
 Doing -D3(op) with
 s6 =   1.00000
 s8 =   0.78311
 a1 =   0.30000
 a2 =   4.25000
 n  =  10.00000
 -D3 energy without 3body term =     -0.0655898046 hartrees
 ----------------------------------------------------------------
             Standard Nuclear Orientation (Angstroms)
    I     Atom           X                Y                Z
 ----------------------------------------------------------------
    1      O      -3.1587827002     1.2775070794     1.3780646521
    2      C      -4.3862497506     1.1106771929     1.1982463755
    3      C      -5.0929310476     0.5100912476    -0.0618307003
    4      C      -4.1032358681     0.2423161333    -1.2699791111
    5      C      -2.6089891185     0.6492046554    -0.9739540123
    6      O      -1.9270820795    -0.4626324519    -0.3799141669
    7      C      -0.5543102961    -0.0695801577     0.0000917012
    8      C       0.4252397167    -0.0508960767    -1.2391554676
    9      O       1.6495181614     0.7463707340    -0.9806307780
   10      C       2.5189337912     0.0665531198    -0.0753713430
   11      C       3.8000320322     0.9425555756     0.1757319274
   12      C       5.0606938989     0.0552566443     0.5476639328
   13      C       4.7225518913    -1.4470806125     0.8527211565
   14      O       4.8287847370    -2.4239979789     0.0809733607
   15      O      -5.3869338668     1.4315230242     2.1664824071
   16      O       4.3790051758    -1.5434106314     2.2419065397
   17      O       2.2747714960    -1.0557088732     0.4228615506
   18      C       3.9586713494    -2.9271601661     2.5545086216
   19      C       4.2954201717     1.6178195831    -1.1662829927
   20      C       5.4676916607     2.6272108189    -0.8449652837
   21      C       6.6787205853     1.6427896397    -0.6390550413
   22      C       5.9490769998     0.2485518102    -0.7568574871
   23      O       4.9675629420     0.4815497481    -1.8427177456
   24      H       3.5728079125     1.6695695394     0.9778049447
   25      H       5.5679925243     0.4746732316     1.4344434419
   26      H       3.4765585408     2.0179371280    -1.7944509634
   27      H       5.6348229850     3.3091036126    -1.6933935395
   28      H       5.2541668928     3.2286402012     0.0534046162
   29      H       7.4227912742     1.7527322922    -1.4440862858
   30      H       7.1828327664     1.7773236965     0.3311813005
   31      H       6.5929699907    -0.6182640530    -1.0019126527
   32      O      -2.0689625606     1.7389949228    -1.2640225999
   33      C      -4.7511232043     1.9611895774     3.3956883446
   34      C      -5.6395364060    -0.9608032702     0.2140455960
   35      C      -6.6719552317    -1.3196158172    -0.9261893282
   36      C      -5.7021219058    -1.5734080957    -2.1394318994
   37      C      -4.2944293871    -1.3216175053    -1.4660408488
   38      O      -4.4768212602    -1.8237771591    -0.0835972553
   39      H      -5.9201076363     1.1834068974    -0.3497783266
   40      H      -4.4244260122     0.8077126910    -2.1626779589
   41      H      -4.1720778911     2.8843210417     3.1893046683
   42      H      -5.9990669073    -1.1268855158     1.2481974883
   43      H      -7.2351015333    -2.2289181508    -0.6622377277
   44      H      -7.3865111534    -0.5019401201    -1.1117607770
   45      H      -5.7739932455    -2.6102024739    -2.5047572693
   46      H      -5.8861008102    -0.8881559641    -2.9822839482
   47      H      -3.4400787805    -1.8301451533    -1.9521074160
   48      H      -4.0723480520     1.2147923305     3.8565474995
   49      H      -5.5786048597     2.1894258886     4.0922334322
   50      H       3.7775909801    -2.9563209999     3.6447491357
   51      H       4.7415655268    -3.6654990916     2.2855005629
   52      H       3.0250452087    -3.1882482479     2.0151610347
   53      H       0.6908642563    -1.0883369639    -1.5342240583
   54      H      -0.0711112482     0.4607738385    -2.0880889045
   55      H      -0.2166640317    -0.8357292462     0.7256886182
   56      H      -0.5487356584     0.9291424600     0.4881461154
 ----------------------------------------------------------------
 Molecular Point Group                 C1    NOp =  1
 Largest Abelian Subgroup              C1    NOp =  1
 Nuclear Repulsion Energy =  3030.0437404023 hartrees
 There are      113 alpha and      113 beta electrons
 Applying Cartesian multipole field
    Component          Value
    ---------          -----
     (2,0,0)        1.00000E-12
     (0,2,0)        2.00000E-11
     (0,0,2)       -3.00000E-11
 Nucleus-field energy     =     0.0000000005 hartrees
 Requested basis set is STO-3G
 There are 86 shells and 176 basis functions
 A cutoff of  1.0D-12 yielded   1968 shell pairs
 There are      9186 function pairs
 Smallest overlap matrix eigenvalue = 2.13E-01
 Guess MOs from SCF MO coefficient file
 Reading MOs from coefficient file
 Reading MOs from coefficient file
 A restricted hybrid HF-DFT SCF calculation will be
 performed using Pulay DIIS extrapolation
 Exchange:     0.2000 Hartree-Fock + 0.0800 Slater + 0.7200 B88
[...]
      6  O        -1.7811995554   -0.0803373808   -0.5450303848
      7  C        -0.4304433787    0.4525324994   -0.2580243701
      8  C         0.3467300393    0.8339174509   -1.5756140819
      9  O         1.6721266709    1.4200995160   -1.2549488934
     10  C         2.5994954440    0.3956193897   -0.8825446832
     11  C         3.9598822083    1.0736752787   -0.5147985202
     12  C         4.7234334415    0.3262905922    0.6558667938
     13  C         3.9340612038   -0.8986061966    1.2453251690
     14  O         4.2769383267   -2.0989512607    1.2395122401
     15  O        -4.8880769050    0.2223487336    2.7665364606
     16  O         2.7417466428   -0.3978830261    1.8687663629
     17  O         2.3394650269   -0.8284053664   -0.8847938819
     18  C         1.9140390088   -1.5277066807    2.3474790137
     19  C         5.0118930512    0.9107760897   -1.6994946101
     20  C         6.2248368735    1.8850264361   -1.4238927208
     21  C         6.9785095306    1.1152476398   -0.2754340367
     22  C         6.0418086941   -0.1413812055   -0.0874958104
     23  O         5.5764845146   -0.4352691463   -1.4637639732
     24  H         3.7716346329    2.1355058040   -0.2789808297
     25  H         4.9441506097    1.0269253629    1.4815483845
     26  H         4.5740671641    0.9782271341   -2.7145349788
     27  H         6.8513693351    1.9854550053   -2.3243979495
     28  H         5.8867041072    2.8868614537   -1.1142075287
     29  H         7.9858429407    0.8019887482   -0.5930510326
     30  H         7.0662270296    1.7087550160    0.6484884244
     31  H         6.5154870786   -1.0383059310    0.3569717288
     32  O        -2.3499026018    2.1881341873   -0.9804917887
     33  C        -4.1311869423    0.5492622990    3.9977610097
     34  C        -5.2591640190   -1.3598825892    0.2608962054
     35  C        -6.3857266251   -1.5898038370   -0.8218971763
     36  C        -5.5705242598   -1.3963378192   -2.1540337873
     37  C        -4.1315103418   -1.0755993966   -1.5871975174
     38  O        -4.0446474763   -1.9196159609   -0.3723475227
     39  H        -5.8756627845    0.7907463170    0.3464848237
     40  H        -4.6818692379    1.0973140110   -1.6822044910
     41  H        -3.9157124273    1.6351536341    4.0668314666
     42  H        -5.4426212782   -1.8298284013    1.2466317729
     43  H        -6.7925185765   -2.6104447064   -0.7415462541
     44  H        -7.2140202685   -0.8704533865   -0.7207243503
     45  H        -5.5499876868   -2.3216693607   -2.7513953957
     46  H        -5.9632686561   -0.5799745010   -2.7809671528
     47  H        -3.2919534559   -1.2986225953   -2.2728411677
     48  H        -3.1713136715   -0.0043423463    4.0443872683
     49  H        -4.7770221067    0.2451078280    4.8417890597
     50  H         1.0158463597   -1.0765678777    2.8082369126
     51  H         2.4497715297   -2.1402097412    3.1012249850
     52  H         1.6111242183   -2.1866080690    1.5077497352
     53  H         0.4537844739   -0.0636767225   -2.2211309730
     54  H        -0.2080390660    1.6260503255   -2.1169469221
     55  H         0.1093444616   -0.3623339970    0.2639258835
     56  H        -0.4910426064    1.3428183322    0.4032143654
   Point Group: c1    Number of degrees of freedom:   162


   Energy is  -1510.288108134

 Hessian Updated using BFGS Update

162 Hessian modes will be used to form the next step
  Hessian Eigenvalues:
     0.000816    0.001306    0.001841    0.002258    0.002836    0.003054
     0.004778    0.005803    0.006302    0.007119    0.008893    0.012134
     0.013856    0.014686    0.015324    0.020974    0.021740    0.022009
     0.023318    0.026101    0.029122    0.031607    0.031931    0.032329
     0.033976    0.036298    0.036438    0.038378    0.040735    0.043052
     0.043524    0.044472    0.046263    0.046727    0.047690    0.050779
     0.051105    0.051901    0.051990    0.052911    0.053564    0.054635
     0.054778    0.055610    0.056094    0.056606    0.056802    0.057202
     0.060513    0.062516    0.063293    0.063771    0.064333    0.064590
     0.065066    0.065479    0.066743    0.070522    0.071279    0.072979
     0.074306    0.092788    0.093015    0.096141    0.096711    0.097364
     0.097920    0.099503    0.102231    0.102590    0.103754    0.114082
     0.115392    0.117245    0.119179    0.136151    0.138840    0.140885
     0.143647    0.159974    0.160036    0.160146    0.160278    0.160596
     0.161291    0.163192    0.169459    0.177432    0.184958    0.205241
     0.220209    0.222770    0.223651    0.235313    0.237283    0.239401
     0.239854    0.240980    0.241498    0.245852    0.247221    0.247602
     0.249973    0.250331    0.250525    0.250667    0.251413    0.252621
     0.253153    0.255258    0.255661    0.257705    0.259787    0.263702
     0.265201    0.273191    0.292704    0.293804    0.298391    0.299198
     0.310431    0.321744    0.324327    0.325329    0.326277    0.326584
     0.326882    0.326990    0.328229    0.328741    0.329046    0.329615
     0.329865    0.330238    0.330800    0.330907    0.331003    0.331212
     0.331729    0.332345    0.333540    0.334766    0.334849    0.334993
     0.335094    0.335237    0.335518    0.335783    0.337014    0.343518
     0.348051    0.349498    0.376139    0.386149    0.410087    0.412914
     0.427733    0.493907    0.827208    0.827392    0.832535    0.835398

 Minimum Search - Taking Simple RFO Step
 Searching for Lamda that Minimizes Along All modes
 Value Taken    Lamda =   0.00000000
 Step Taken.  Stepsize is  0.016468

                             Maximum     Tolerance    Cnvgd?
         Gradient           0.000139      0.000300     YES
         Displacement       0.007406      0.001200      NO
         Energy change      0.000001      0.000001     YES

 Final energy is   -1510.28810813386     


 ******************************
 **  OPTIMIZATION CONVERGED  **
 ******************************

                       Coordinates (Angstroms)
     ATOM                X               Y               Z
      1  O        -2.9731503553    1.0693807746    1.6620220975
      2  C        -4.1163622716    0.5621512350    1.6135700189
      3  C        -4.9435441853    0.1966200416    0.3343880367
      4  C        -4.1374545310    0.4065603779   -1.0142744785
      5  C        -2.6905883824    0.9956475683   -0.8210078200
      6  O        -1.7811995554   -0.0803373808   -0.5450303848
      7  C        -0.4304433787    0.4525324994   -0.2580243701
      8  C         0.3467300393    0.8339174509   -1.5756140819
      9  O         1.6721266709    1.4200995160   -1.2549488934
     10  C         2.5994954440    0.3956193897   -0.8825446832
     11  C         3.9598822083    1.0736752787   -0.5147985202
     12  C         4.7234334415    0.3262905922    0.6558667938
     13  C         3.9340612038   -0.8986061966    1.2453251690
     14  O         4.2769383267   -2.0989512607    1.2395122401
     15  O        -4.8880769050    0.2223487336    2.7665364606
     16  O         2.7417466428   -0.3978830261    1.8687663629
     17  O         2.3394650269   -0.8284053664   -0.8847938819
     18  C         1.9140390088   -1.5277066807    2.3474790137
     19  C         5.0118930512    0.9107760897   -1.6994946101
     20  C         6.2248368735    1.8850264361   -1.4238927208
     21  C         6.9785095306    1.1152476398   -0.2754340367
     22  C         6.0418086941   -0.1413812055   -0.0874958104
     23  O         5.5764845146   -0.4352691463   -1.4637639732
     24  H         3.7716346329    2.1355058040   -0.2789808297
     25  H         4.9441506097    1.0269253629    1.4815483845
     26  H         4.5740671641    0.9782271341   -2.7145349788
     27  H         6.8513693351    1.9854550053   -2.3243979495
     28  H         5.8867041072    2.8868614537   -1.1142075287
     29  H         7.9858429407    0.8019887482   -0.5930510326
     30  H         7.0662270296    1.7087550160    0.6484884244
     31  H         6.5154870786   -1.0383059310    0.3569717288
     32  O        -2.3499026018    2.1881341873   -0.9804917887
     33  C        -4.1311869423    0.5492622990    3.9977610097
     34  C        -5.2591640190   -1.3598825892    0.2608962054
     35  C        -6.3857266251   -1.5898038370   -0.8218971763
     36  C        -5.5705242598   -1.3963378192   -2.1540337873
     37  C        -4.1315103418   -1.0755993966   -1.5871975174
     38  O        -4.0446474763   -1.9196159609   -0.3723475227
     39  H        -5.8756627845    0.7907463170    0.3464848237
     40  H        -4.6818692379    1.0973140110   -1.6822044910
     41  H        -3.9157124273    1.6351536341    4.0668314666
     42  H        -5.4426212782   -1.8298284013    1.2466317729
     43  H        -6.7925185765   -2.6104447064   -0.7415462541
     44  H        -7.2140202685   -0.8704533865   -0.7207243503
     45  H        -5.5499876868   -2.3216693607   -2.7513953957
     46  H        -5.9632686561   -0.5799745010   -2.7809671528
     47  H        -3.2919534559   -1.2986225953   -2.2728411677
     48  H        -3.1713136715   -0.0043423463    4.0443872683
     49  H        -4.7770221067    0.2451078280    4.8417890597
     50  H         1.0158463597   -1.0765678777    2.8082369126
     51  H         2.4497715297   -2.1402097412    3.1012249850
     52  H         1.6111242183   -2.1866080690    1.5077497352
     53  H         0.4537844739   -0.0636767225   -2.2211309730
     54  H        -0.2080390660    1.6260503255   -2.1169469221
     55  H         0.1093444616   -0.3623339970    0.2639258835
     56  H        -0.4910426064    1.3428183322    0.4032143654

Z-matrix Print:
$molecule
0 1
O 
C  1 1.435582
O  2 1.250410 1 124.521650
C  1 1.480157 2 110.214087 3 9.274904 0
H  4 1.108066 1 105.732365 2 161.512803 0
H  4 1.110638 1 110.746471 2 42.855415 0
C  2 1.574102 1 108.987901 3 174.960424 0
H  7 1.104381 2 107.055429 1 -152.506070 0
C  4 1.576545 1 112.018183 2 -79.452547 0
H  9 1.108280 4 109.533575 1 61.301513 0
H  9 1.110778 4 109.737494 1 -59.547420 0
O  9 1.484288 4 110.803969 1 177.503362 0
C  12 1.431173 9 110.617537 4 77.036330 0
O  13 1.251342 12 124.408331 9 2.855406 0
C  13 1.563857 12 108.330018 9 -178.283399 0
H  15 1.103871 13 108.599777 12 20.301416 0
C  15 1.584945 13 112.849083 12 145.369578 0
H  17 1.105149 15 110.432204 13 -124.469325 0
C  17 1.571923 15 113.734763 13 -2.463362 0
O  19 1.248370 17 127.559541 15 117.665057 0
O  19 1.435624 17 107.946155 15 -65.015178 0
C  21 1.480124 19 109.794938 17 175.663634 0
H  22 1.105701 21 106.116698 19 -179.686628 0
H  22 1.109190 21 111.789827 19 60.941962 0
H  22 1.109529 21 111.173954 19 -60.550380 0
C  17 1.584114 15 101.159945 13 117.000160 0
H  26 1.107428 17 114.000597 15 -154.020039 0
O  26 1.482232 17 103.472449 15 -34.249593 0
C  28 1.478570 26 95.014462 17 56.683314 0
H  29 1.107496 28 110.641736 26 179.802738 0
C  26 1.578558 17 108.342599 15 75.169329 0
H  31 1.101625 26 112.103450 17 46.553429 0
H  31 1.101695 26 110.520057 17 168.107390 0
C  31 1.574655 26 101.068310 17 -73.740176 0
H  34 1.101607 31 111.626028 26 -118.593620 0
H  34 1.101777 31 112.730666 26 118.657388 0
C  7 1.585164 2 114.363267 1 85.010543 0
H  37 1.105431 7 111.525947 2 119.805747 0
C  37 1.566573 7 113.285280 2 -2.442525 0
O  39 1.251624 37 127.477773 7 5.379964 0
O  39 1.428405 37 108.561151 7 -174.775056 0
C  41 1.481779 39 110.013204 37 179.714328 0
H  42 1.105439 41 105.979298 39 -179.006460 0
H  42 1.109058 41 111.524165 39 -59.740084 0
H  42 1.109216 41 111.527662 39 61.791183 0
C  7 1.589048 2 112.947821 1 -29.346438 0
H  46 1.106663 7 114.468237 2 -32.446237 0
O  46 1.481813 7 103.644707 2 87.863774 0
C  48 1.479645 46 95.007386 7 56.748517 0
H  49 1.107330 48 110.880498 46 -179.480520 0
C  49 1.579382 48 103.709821 46 55.967112 0
H  51 1.101655 49 110.380596 48 83.777941 0
H  51 1.101713 49 112.225917 48 -154.804000 0
C  51 1.573713 49 101.124856 48 -34.384190 0
H  54 1.101590 51 111.433478 49 116.690460 0
H  54 1.101700 51 112.838527 49 -120.698460 0
$end

 
 --------------------------------------------------------------
 
                    Orbital Energies (a.u.)
 --------------------------------------------------------------
 
 Alpha MOs
 -- Occupied --
-18.944 -18.934 -18.923 -18.923 -18.888 -18.887 -18.885 -18.873
-18.868 -18.862 -10.108 -10.098 -10.093 -10.092 -10.071 -10.065
-10.062 -10.061 -10.059 -10.059 -10.056 -10.054 -10.042 -10.035
-10.035 -10.033 -10.022 -10.020 -10.019 -10.017  -1.021  -1.012
 -1.002  -1.000  -0.971  -0.967  -0.945  -0.935  -0.928  -0.927
 -0.764  -0.760  -0.725  -0.721  -0.713  -0.704  -0.689  -0.668
 -0.656  -0.614  -0.596  -0.580  -0.546  -0.542  -0.538  -0.535
 -0.513  -0.507  -0.484  -0.473  -0.464  -0.456  -0.449  -0.444
 -0.435  -0.432  -0.428  -0.417  -0.410  -0.407  -0.404  -0.391
 -0.387  -0.380  -0.379  -0.363  -0.359  -0.354  -0.351  -0.346
 -0.342  -0.337  -0.334  -0.330  -0.328  -0.325  -0.323  -0.315
 -0.308  -0.306  -0.301  -0.301  -0.295  -0.282  -0.279  -0.276
 -0.270  -0.262  -0.255  -0.247  -0.240  -0.234  -0.231  -0.188
 -0.183  -0.169  -0.162  -0.159  -0.153  -0.146  -0.145  -0.142
 -0.141
 -- Virtual --
  0.092   0.094   0.109   0.116   0.217   0.240   0.243   0.247
  0.268   0.280   0.286   0.289   0.305   0.322   0.327   0.331
  0.337   0.344   0.348   0.350   0.359   0.363   0.369   0.372
  0.377   0.378   0.387   0.399   0.403   0.405   0.406   0.413
  0.414   0.417   0.423   0.424   0.427   0.429   0.431   0.433
  0.434   0.434   0.437   0.438   0.443   0.445   0.453   0.466
  0.467   0.468   0.488   0.489   0.492   0.505   0.510   0.535
  0.544   0.552   0.554   0.636   0.649   0.652   0.656
 --------------------------------------------------------------
 
          Ground-State Mulliken Net Atomic Charges

     Atom                 Charge (a.u.)
  ----------------------------------------
      1 O                    -0.207716
      2 C                     0.214760
      3 C                    -0.078101
      4 C                    -0.081731
      5 C                     0.213854
      6 O                    -0.170676
      7 C                    -0.050846
      8 C                    -0.053521
      9 O                    -0.169694
     10 C                     0.211499
     11 C                    -0.078830
     12 C                    -0.079632
     13 C                     0.214791
     14 O                    -0.209447
     15 O                    -0.169026
     16 O                    -0.177043
     17 O                    -0.214007
     18 C                    -0.129975
     19 C                     0.025748
     20 C                    -0.143720
     21 C                    -0.143964
     22 C                     0.024767
     23 O                    -0.187178
     24 H                     0.087304
     25 H                     0.083781
     26 H                     0.082617
     27 H                     0.077939
     28 H                     0.073920
     29 H                     0.077916
     30 H                     0.072950
     31 H                     0.090157
     32 O                    -0.221413
     33 C                    -0.127957
     34 C                     0.024947
     35 C                    -0.143799
     36 C                    -0.144271
     37 C                     0.026477
     38 O                    -0.187129
     39 H                     0.086793
     40 H                     0.083076
     41 H                     0.090811
     42 H                     0.087085
     43 H                     0.078411
     44 H                     0.073551
     45 H                     0.078246
     46 H                     0.073505
     47 H                     0.086777
     48 H                     0.091252
     49 H                     0.092441
     50 H                     0.087702
     51 H                     0.087550
     52 H                     0.093597
     53 H                     0.090398
     54 H                     0.095738
     55 H                     0.093032
     56 H                     0.096285
  ----------------------------------------
  Sum of atomic charges =     0.000000

 -----------------------------------------------------------------
                    Cartesian Multipole Moments
 -----------------------------------------------------------------
    Charge (ESU x 10^10)
                 0.0000
    Dipole Moment (Debye)
         X      -2.4759      Y       1.8488      Z       1.2497
       Tot       3.3331
    Quadrupole Moments (Debye-Ang)
        XX    -139.5722     XY      14.0514     YY    -169.7081
        XZ       1.7855     YZ      -0.6208     ZZ    -147.4657
    Octopole Moments (Debye-Ang^2)
       XXX     -63.4599    XXY      62.7628    XYY      -2.9677
       YYY     -16.3110    XXZ      11.9740    XYZ     -15.5859
       YYZ       9.4583    XZZ     -33.9132    YZZ      -5.5367
       ZZZ      35.6432
    Hexadecapole Moments (Debye-Ang^3)
      XXXX  -16957.1697   XXXY    -284.3439   XXYY   -3284.2154
      XYYY    -545.4591   YYYY   -1481.3922   XXXZ     513.8247
      XXYZ      26.6947   XYYZ     106.3632   YYYZ     139.8944
      XXZZ   -3279.2139   XYZZ    -196.4790   YYZZ    -643.0780
      XZZZ     237.1843   YZZZ     106.3345   ZZZZ   -2301.8495
 -----------------------------------------------------------------
Archival summary:
1\1\vega02.cac.cornell.edu\OPT\ProcedureUnspecified\STO-3G\102026\jj585\SunJan1411:58:562018SunJan1411:58:562018\0\\#,OPT,ProcedureUnspecified,STO-3G,\\0,1\O\C,1,1.43558\O,2,1.25041,1,124.522\C,1,1.48016,2,110.214,3,9.2749,0\H,4,1.10807,1,105.732,2,161.513,0\H,4,1.11064,1,110.746,2,42.8554,0\C,2,1.5741,1,108.988,3,174.96,0\H,7,1.10438,2,107.055,1,-152.506,0\C,4,1.57655,1,112.018,2,-79.4525,0\H,9,1.10828,4,109.534,1,61.3015,0\H,9,1.11078,4,109.737,1,-59.5474,0\O,9,1.48429,4,110.804,1,177.503,0\C,12,1.43117,9,110.618,4,77.0363,0\O,13,1.25134,12,124.408,9,2.85541,0\C,13,1.56386,12,108.33,9,-178.283,0\H,15,1.10387,13,108.6,12,20.3014,0\C,15,1.58495,13,112.849,12,145.37,0\H,17,1.10515,15,110.432,13,-124.469,0\C,17,1.57192,15,113.735,13,-2.46336,0\O,19,1.24837,17,127.56,15,117.665,0\O,19,1.43562,17,107.946,15,-65.0152,0\C,21,1.48012,19,109.795,17,175.664,0\H,22,1.1057,21,106.117,19,-179.687,0\H,22,1.10919,21,111.79,19,60.942,0\H,22,1.10953,21,111.174,19,-60.5504,0\C,17,1.58411,15,101.16,13,117,0\H,26,1.10743,17,114.001,15,-154.02,0\O,26,1.48223,17,103.472,15,-34.2496,0\C,28,1.47857,26,95.0145,17,56.6833,0\H,29,1.1075,28,110.642,26,179.803,0\C,26,1.57856,17,108.343,15,75.1693,0\H,31,1.10163,26,112.103,17,46.5534,0\H,31,1.1017,26,110.52,17,168.107,0\C,31,1.57466,26,101.068,17,-73.7402,0\H,34,1.10161,31,111.626,26,-118.594,0\H,34,1.10178,31,112.731,26,118.657,0\C,7,1.58516,2,114.363,1,85.0105,0\H,37,1.10543,7,111.526,2,119.806,0\C,37,1.56657,7,113.285,2,-2.44253,0\O,39,1.25162,37,127.478,7,5.37996,0\O,39,1.4284,37,108.561,7,-174.775,0\C,41,1.48178,39,110.013,37,179.714,0\H,42,1.10544,41,105.979,39,-179.006,0\H,42,1.10906,41,111.524,39,-59.7401,0\H,42,1.10922,41,111.528,39,61.7912,0\C,7,1.58905,2,112.948,1,-29.3464,0\H,46,1.10666,7,114.468,2,-32.4462,0\O,46,1.48181,7,103.645,2,87.8638,0\C,48,1.47965,46,95.0074,7,56.7485,0\H,49,1.10733,48,110.88,46,-179.481,0\C,49,1.57938,48,103.71,46,55.9671,0\H,51,1.10166,49,110.381,48,83.7779,0\H,51,1.10171,49,112.226,48,-154.804,0\C,51,1.57371,49,101.125,48,-34.3842,0\H,54,1.10159,51,111.433,49,116.69,0\H,54,1.1017,51,112.839,49,-120.698,0\\\@

 Total job time:  88.45s(wall), 4208.78s(cpu) 
 Sun Jan 14 11:58:56 2018

        *************************************************************
        *                                                           *
        *  Thank you very much for using Q-Chem.  Have a nice day.  *
        *                                                           *
        *************************************************************


0 sent ACK to 0 
now end server 0 ... 
