mFile = /opt/software/qchem/qchem-5.0.1//bin/mpi/machines
Process 0 of 1 is on vega02.cac.cornell.edu - thread support 0
initial socket setup ...start
initial socket setup ...done 
now start server 0 ... 
vega02.cac.cornell.edu 10.84.3
Q-Chem Developer Version! Running on 10.84.3.*
                  Welcome to Q-Chem
     A Quantum Leap Into The Future Of Chemistry


 Q-Chem 5.0, Q-Chem, Inc., Pleasanton, CA (2017)

 Yihan Shao,  Zhengting Gan,  E. Epifanovsky,  A. T. B. Gilbert,  M. Wormit,  
 J. Kussmann,  A. W. Lange,  A. Behn,  Jia Deng,  Xintian Feng,  D. Ghosh,  
 M. Goldey,  P. R. Horn,  L. D. Jacobson,  I. Kaliman,  T. Kus,  A. Landau,  
 Jie Liu,  E. I. Proynov,  R. M. Richard,  R. P. Steele,  E. J. Sundstrom,  
 H. L. Woodcock III,  P. M. Zimmerman,  D. Zuev,  B. Albrecht,  E. Alguire,  
 S. A. Baeppler,  Z. Benda,  Y. A. Bernard,  E. J. Berquist,  K. B. Bravaya,  
 D. Casanova,  Chun-Min Chang,  Yunqing Chen,  A. Chien,  K. D. Closser,  
 M. P. Coons,  S. Dasgupta,  M. Diedenhofen,  Hainam Do,  R. G. Edgar,  
 Po-Tung Fang,  S. Fatehi,  Qingguo Feng,  Qinghui Ge,  A. Ghysels,  
 J. Gomes,  J. Gonthier,  A. Gunina,  M. W. D. Hanson-Heine,  
 P. H. P. Harbach,  A. W. Hauser,  J. E. Herr,  E. G. Hohenstein,  
 Z. C. Holden,  Kerwin Hui,  T.-C. Jagau,  Hyunjun Ji,  B. Kaduk,  
 K. Khistyaev,  Jaehoon Kim,  P. Klunzinger,  K. Koh,  D. Kosenkov,  
 T. Kowalczyk,  C. M. Krauter,  A. Kunitsa,  Ka Un Lao,  A. Laurent,  
 K. V. Lawler,  Joonho Lee,  D. Lefrancois,  S. Lehtola,  D. S. Levine,  
 Yi-Pei Li,  You-Sheng Lin,  Fenglai Liu,  E. Livshits,  A. Luenser,  
 P. Manohar,  E. Mansoor,  S. F. Manzer,  Shan-Ping Mao,  Yuezhi Mao,  
 N. Mardirossian,  A. V. Marenich,  L. A. Martinez-Martinez,  S. A. Maurer,  
 N. J. Mayhall,  S. C. McKenzie,  J.-M. Mewes,  A. F. Morrison,  K. Nanda,  
 T. S. Nguyen-Beck,  R. Olivares-Amaya,  J. A. Parkhill,  T. M. Perrine,  
 F. Plasser,  S. Prager,  A. Prociuk,  D. R. Rehn,  F. Rob,  M. Schneider,  
 N. Sergueev,  S. M. Sharada,  S. Sharma,  D. W. Small,  T. Stauch,  
 T. Stein,  Yu-Chuan Su,  A. J. W. Thom,  T. Tsuchimochi,  L. Vogt,  
 O. Vydrov,  M. A. Watson,  J. Wenzel,  M. de Wergifosse,  T. A. Wesolowski,  
 A. White,  J. Witte,  A. Yamada,  Jun Yang,  K. Yao,  S. Yeganeh,  
 S. R. Yost,  Zhi-Qiang You,  A. Zech,  Igor Ying Zhang,  Xing Zhang,  
 Yan Zhao,  Ying Zhu,  B. R. Brooks,  G. K. L. Chan,  C. J. Cramer,  
 M. S. Gordon,  W. J. Hehre,  A. Klamt,  M. W. Schmidt,  C. D. Sherrill,  
 D. G. Truhlar,  A. Aspuru-Guzik,  R. Baer,  A. T. Bell,  N. A. Besley,  
 Jeng-Da Chai,  A. Dreuw,  B. D. Dunietz,  T. R. Furlani,  Chao-Ping Hsu,  
 Yousung Jung,  Jing Kong,  D. S. Lambrecht,  WanZhen Liang,  C. Ochsenfeld,  
 V. A. Rassolov,  L. V. Slipchenko,  J. E. Subotnik,  T. Van Voorhis,  
 J. M. Herbert,  A. I. Krylov,  P. M. W. Gill,  M. Head-Gordon

 Contributors to earlier versions of Q-Chem not listed above: 
 R. D. Adamson,  B. Austin,  J. Baker,  G. J. O. Beran,  K. Brandhorst,  
 S. T. Brown,  E. F. C. Byrd,  A. K. Chakraborty,  C.-L. Cheng,  
 Siu Hung Chien,  D. M. Chipman,  D. L. Crittenden,  H. Dachsel,  
 R. A. DiStasio Jr.,  R. J. Doerksen,  A. D. Dutoi,  L. Fusti-Molnar,  
 W. A. Goddard III,  A. Golubeva-Zadorozhnaya,  S. R. Gwaltney,  G. Hawkins,  
 A. Heyden,  S. Hirata,  G. Kedziora,  F. J. Keil,  C. Kelley,  Jihan Kim,  
 R. A. King,  R. Z. Khaliullin,  P. P. Korambath,  W. Kurlancheek,  
 A. M. Lee,  M. S. Lee,  S. V. Levchenko,  Ching Yeh Lin,  D. Liotard,  
 R. C. Lochan,  I. Lotan,  P. E. Maslen,  N. Nair,  D. P. O'Neill,  
 D. Neuhauser,  E. Neuscamman,  C. M. Oana,  R. Olson,  B. Peters,  
 R. Peverati,  P. A. Pieniazek,  Y. M. Rhee,  J. Ritchie,  M. A. Rohrdanz,  
 E. Rosta,  N. J. Russ,  H. F. Schaefer III,  N. E. Schultz,  N. Shenvi,  
 A. C. Simmonett,  A. Sodt,  D. Stuck,  K. S. Thanthiriwatte,  V. Vanovschi,  
 Tao Wang,  A. Warshel,  C. F. Williams,  Q. Wu,  X. Xu,  W. Zhang

 Please cite Q-Chem as follows:
 Y. Shao et al., Mol. Phys. 113, 184-215 (2015)
 DOI: 10.1080/00268976.2014.952696

 Q-Chem 5.0.1 for Intel X86 EM64T Linux

 Parts of Q-Chem use Armadillo 5.200.1 (Boston Tea Smuggler).
 http://arma.sourceforge.net/

 Q-Chem begins on Sun Jan 14 12:06:29 2018  

Host: vega02.cac.cornell.edu
0

     Scratch files written to /scratch/jj585/SOT1001/0427r.save//
 Parallel job on  1  processors

Checking the input file for inconsistencies... 	...done.

--------------------------------------------------------------
User input:
--------------------------------------------------------------
$molecule
0  1
O -3.0801307722 0.4138647947 1.6824774897
C -4.2514306288 0.7106413792 1.356767038
C -4.9466696737 0.4698631137 -0.0234555378
C -3.9237219536 0.2528283341 -1.2157743608
C -2.4144032774 0.330455025 -0.7750462384
O -1.9306211343 -0.9910696515 -0.4930810362
C -0.5213374777 -0.9264724552 -0.0491042955
C 0.4756480181 -1.0139419056 -1.278309739
O 1.513675035 0.0442164374 -1.249006555
C 2.443203637 -0.1999718102 -0.1920330375
C 3.4590722337 0.9971809512 -0.1056032575
C 4.8596432693 0.5317908178 0.4660652578
C 4.8329730561 -0.8465952585 1.222452175
O 5.3941109262 -1.9109591267 0.8862891141
O -5.2044052181 1.3020498331 2.2434104129
O 4.2113619982 -0.6234481498 2.4981479955
O 2.4455893608 -1.2426187764 0.5013030137
C 4.1085323204 -1.9028582854 3.2328672564
C 3.884381642 1.4205280343 -1.573874707
C 4.8291109299 2.6861603467 -1.518195554
C 6.1992751972 2.0353722782 -1.094994004
C 5.7495010444 0.543931593 -0.8470123392
O 4.7882744653 0.3056482249 -1.9497349312
H 3.0119253659 1.8220748865 0.4786097237
H 5.2276558552 1.2816169165 1.1898747032
H 3.0342555885 1.4869242726 -2.2795180494
H 4.8938245368 3.1640948726 -2.5083785295
H 4.4722618266 3.4325431314 -0.7899833772
H 6.935201595 2.0822776178 -1.9137670354
H 6.6367156583 2.5001284684 -0.1969121794
H 6.553417617 -0.2177503189 -0.8608578161
O -1.7076989565 1.3612784039 -0.7330246004
C -4.5974336668 1.5016525507 3.5806597826
C -5.7441257159 -0.9090055488 -0.0554335237
C -6.7279225654 -0.8709672506 -1.2909531659
C -5.7221796293 -1.0785248787 -2.4834331668
C -4.3489345344 -1.1943240345 -1.7107997455
O -4.7157343874 -1.8928254875 -0.4560413286
H -5.6263043436 1.3181617173 -0.2197730117
H -4.0782936778 1.0165620133 -1.9986235106
H -3.7158034575 2.172674412 3.5311458733
H -6.2064551718 -1.1945653939 0.9094655372
H -7.4576145097 -1.693983076 -1.2278139204
H -7.2749677975 0.0830597406 -1.3559985771
H -5.9328388221 -2.0101901318 -3.0323609202
H -5.7281133553 -0.2391030707 -3.1970275967
H -3.551630616 -1.7484145341 -2.2415942598
H -4.2825698309 0.5391537094 4.0331198896
H -5.3826371479 1.965788787 4.2051793298
H 3.7067733039 -1.6536194639 4.2322612574
H 5.0963641062 -2.3960668403 3.3392282424
H 3.4169873718 -2.6019867167 2.71927047
H 0.9474680998 -2.0185112442 -1.3182220032
H -0.084204153 -0.8392544747 -2.2195542438
H -0.3691547356 -1.7849648653 0.6336351726
H -0.3403442725 0.025163768 0.4956720232
$end

$rem
JOBTYPE                   OPT
METHOD                    B3LYP
DFT_D                     d3_op
BASIS                     STO-3G
GEOM_OPT_MAX_CYCLES       100
GEOM_OPT_TOL_GRADIENT     300
GEOM_OPT_TOL_DISPLACEMENT 1200
GEOM_OPT_TOL_ENERGY       100
SYMMETRY                  False
THRESH                    12
SCF_CONVERGENCE           8
MAX_SUB_FILE_NUM          128
MEM_STATIC                400
MEM_TOTAL                 4000
$end
--------------------------------------------------------------
 Adding empirical dispersion correction 
 ----------------------------------------------------------------
 Doing -D3(op) with
 s6 =   1.00000
 s8 =   0.78311
 a1 =   0.30000
 a2 =   4.25000
 n  =  10.00000
 -D3 energy without 3body term =     -0.0655885872 hartrees
 ----------------------------------------------------------------
             Standard Nuclear Orientation (Angstroms)
    I     Atom           X                Y                Z
 ----------------------------------------------------------------
    1      O       3.0202740576    -1.6258653011    -0.7771995506
    2      C       4.1800305401    -1.2662723148    -1.0801265696
    3      C       4.8927419754     0.0726567861    -0.6984760302
    4      C       3.8867099902     1.2290760608    -0.2913588294
    5      C       2.3729265102     0.8023411082    -0.3596735660
    6      O       1.9431362062     0.3577134646     0.9355343559
    7      C       0.5298240950    -0.0739283825     0.8755113529
    8      C      -0.4554662565     1.1352647874     1.1577024355
    9      O      -1.5369414142     1.2389979438     0.1488869128
   10      C      -2.4615946145     0.1603114009     0.2982058343
   11      C      -3.5270696094     0.2247225751    -0.8564577888
   12      C      -4.9102815154    -0.3998435901    -0.4074210175
   13      C      -4.8304597037    -1.3225630538     0.8634046644
   14      O      -5.3446813147    -1.1217293087     1.9841159110
   15      O       5.1022924949    -2.0725906506    -1.8172457116
   16      O      -4.2261478796    -2.5607191186     0.4567456620
   17      O      -2.4244603480    -0.6578804381     1.2453153467
   18      C      -4.0742426621    -3.4496147566     1.6289512667
   19      C      -3.9611388479     1.7346233922    -1.0748961407
   20      C      -4.9582193710     1.8380620401    -2.2966038071
   21      C      -6.3024430387     1.3376143423    -1.6465348765
   22      C      -5.7922122088     0.9049523675    -0.2180198686
   23      O      -4.8154692465     1.9687208182     0.1153005233
   24      H      -3.1181781936    -0.2520782173    -1.7659433290
   25      H      -5.3135010111    -1.0240746852    -1.2255421168
   26      H      -3.1104356819     2.4425604532    -1.0884805076
   27      H      -5.0370764726     2.8802431703    -2.6440396088
   28      H      -4.6371039337     1.2086299898    -3.1424298460
   29      H      -7.0349084783     2.1562392562    -1.5597899582
   30      H      -6.7641350554     0.5048923820    -2.2008976239
   31      H      -6.5635160514     0.8239538302     0.5726523184
   32      O       1.6235470520     0.8898557028    -1.3569525025
   33      C       4.4797401077    -3.3740778145    -2.1564378004
   34      C       5.7472724346    -0.0683657944     0.6387329457
   35      C       6.7357960388     1.1616761175     0.7137657275
   36      C       5.7465585895     2.3194300448     1.1107829659
   37      C       4.3748755912     1.5391449396     1.1870381013
   38      O       4.7632237345     0.2067319406     1.7073518683
   39      H       5.5374795639     0.3730637246    -1.5435342940
   40      H       4.0137980177     2.1011410795    -0.9572308730
   41      H       3.5711527308    -3.2406098408    -2.7782489214
   42      H       6.2155029143    -1.0616423045     0.7818592567
   43      H       7.4988501034     0.9957803947     1.4909523528
   44      H       7.2428816601     1.3451257167    -0.2468941024
   45      H       5.9991425974     2.7475145487     2.0939635670
   46      H       5.7215761621     3.1323239294     0.3675060309
   47      H       3.6045158244     1.9969807350     1.8361797273
   48      H       4.2027283245    -3.9430928507    -1.2455317879
   49      H       5.2412222534    -3.9361381679    -2.7275986520
   50      H      -3.6890690109    -4.4102522985     1.2401898510
   51      H      -5.0412123280    -3.6162262268     2.1462415704
   52      H      -3.3511199007    -3.0277928343     2.3569322941
   53      H      -0.8846715343     1.0495924567     2.1783932876
   54      H       0.1020690450     2.0906497226     1.0784220280
   55      H       0.4096638327    -0.8585110835     1.6477117693
   56      H       0.3060696173    -0.4954148381    -0.1281989541
 ----------------------------------------------------------------
 Molecular Point Group                 C1    NOp =  1
 Largest Abelian Subgroup              C1    NOp =  1
 Nuclear Repulsion Energy =  3045.1214883364 hartrees
 There are      113 alpha and      113 beta electrons
 Requested basis set is STO-3G
 There are 86 shells and 176 basis functions

 Total QAlloc Memory Limit   4000 MB
 Mega-Array Size       392 MB
 MEM_STATIC part       400 MB
 A cutoff of  1.0D-12 yielded   1997 shell pairs
 There are      9377 function pairs
 
 -------------------------------------------------------
 OpenMP Integral Computing Module                       
 Release: version 1.0, May 2013, Q-Chem Inc. Pittsburgh 
 -------------------------------------------------------
 Integral Job Info:
 Integral job number is                      11
 Integral operator is                         1
 short-range coefficients                     0
 long-range coefficients              100000000
 Omega coefficients                           0
 if combine SR and LR in K                    0
 Integral screening is                        0
 Integral computing path is                   2
 max size of driver memory is            800000
 size of driver memory is                 45569
 size of scratch memory is              1046100
 max col of scratch BK array                289
 max len of scratch array in speh3           22
 max len of scratch index in speh4            8
 max int batch size is                      520
 min int batch size is                       52
 fixed nKL is                                52
 max L of basis functions is                  1
 order of int derivative is                   0
 number of shells is                         86
 number of basis is                         176
 number of cartesian basis is               176
 number of contracted shell pairs          1997
 number of primitive shell pairs          10429
 maxK2 (contraction) of shell pair            9
 max number of K2 of shell pair               1
 max number of CS2 of shell pair            295
 max number of PS2 of shell pair           1200
 mem total for path MDJ                   49782
 -------------------------------------------------------
 Smallest overlap matrix eigenvalue = 2.13E-01

 Scale SEOQF with 1.000000e-02/1.000000e-01/1.000000e-01

 Standard Electronic Orientation quadrupole field applied
 Nucleus-field energy     =     0.0000000199 hartrees
 Guess from superposition of atomic densities
 Warning:  Energy on first SCF cycle will be non-variational
 A restricted hybrid HF-DFT SCF calculation will be
 performed using Pulay DIIS extrapolation
 Exchange:     0.2000 Hartree-Fock + 0.0800 Slater + 0.7200 B88
 Correlation:  0.1900 VWN1RPA + 0.8100 LYP
 Using SG-1 standard quadrature grid
 Dispersion:   Grimme D3
 SCF converges when DIIS error is below 1.0E-08
 using 48 threads for integral computing
 -------------------------------------------------------
 OpenMP Integral computing Module                
 Release: version 1.0, May 2013, Q-Chem Inc. Pittsburgh 
 -------------------------------------------------------
 -------------------------------------------------------
 OpenMP BLAS3 based DFT computing Module                
 Release: version 1.0, May 2013, Q-Chem Inc. Pittsburgh 
 -------------------------------------------------------
 ---------------------------------------
  Cycle       Energy         DIIS Error
 ---------------------------------------
    1   -1507.6225363860      7.46E-02
    2   -1509.7486692129      1.03E-02
    3   -1507.6979435148      2.53E-02
    4   -1510.2001591522      4.21E-03
    5   -1510.2736577358      1.32E-03
    6   -1510.2814816423      2.86E-04
    7   -1510.2818240714      9.58E-05
    8   -1510.2818558577      4.37E-05
    9   -1510.2818641990      7.83E-06
   10   -1510.2818644562      2.92E-06
   11   -1510.2818644858      1.61E-06
   12   -1510.2818644969      2.95E-07
   13   -1510.2818644972      8.95E-08
   14   -1510.2818644972      2.56E-08
   15   -1510.2818644972      1.19E-08
   16   -1510.2818644972      6.55E-09 Convergence criterion met
 ---------------------------------------
 SCF time:  CPU 118.80 s  wall 2.53 s
 SCF   energy in the final basis set = -1510.28186450
 Total energy in the final basis set = -1510.28186450
 
 --------------------------------------------------------------
 
                    Orbital Energies (a.u.)
 --------------------------------------------------------------
 
 Alpha MOs
 -- Occupied --
-18.941 -18.938 -18.926 -18.915 -18.890 -18.883 -18.880 -18.880
-18.865 -18.858 -10.105 -10.102 -10.095 -10.087 -10.070 -10.069
-10.064 -10.064 -10.060 -10.054 -10.052 -10.050 -10.041 -10.037
-10.036 -10.028 -10.022 -10.021 -10.016 -10.015  -1.018  -1.016
 -1.003  -0.994  -0.972  -0.964  -0.942  -0.939  -0.929  -0.920
 -0.765  -0.758  -0.726  -0.721  -0.712  -0.703  -0.689  -0.667
 -0.650  -0.616  -0.595  -0.579  -0.548  -0.540  -0.539  -0.532
 -0.514  -0.504  -0.483  -0.476  -0.463  -0.452  -0.449  -0.445
 -0.435  -0.429  -0.426  -0.416  -0.411  -0.403  -0.400  -0.397
 -0.388  -0.378  -0.376  -0.364  -0.359  -0.357  -0.348  -0.345
 -0.340  -0.337  -0.332  -0.330  -0.327  -0.325  -0.320  -0.313
 -0.309  -0.305  -0.302  -0.301  -0.295  -0.282  -0.279  -0.272
 -0.271  -0.260  -0.254  -0.242  -0.240  -0.235  -0.229  -0.188
 -0.183  -0.165  -0.161  -0.158  -0.153  -0.148  -0.144  -0.140
 -0.138
 -- Virtual --
  0.091   0.096   0.110   0.118   0.222   0.240   0.246   0.249
  0.264   0.278   0.285   0.289   0.304   0.319   0.325   0.333
  0.336   0.344   0.345   0.348   0.357   0.358   0.366   0.368
  0.371   0.378   0.388   0.401   0.403   0.406   0.409   0.411
  0.417   0.418   0.424   0.425   0.429   0.431   0.436   0.436
  0.438   0.439   0.441   0.444   0.446   0.453   0.455   0.461
  0.465   0.472   0.489   0.492   0.493   0.501   0.515   0.535
  0.542   0.550   0.559   0.636   0.643   0.647   0.661
 --------------------------------------------------------------
 
          Ground-State Mulliken Net Atomic Charges

     Atom                 Charge (a.u.)
  ----------------------------------------
      1 O                    -0.208410
      2 C                     0.211599
      3 C                    -0.078868
      4 C                    -0.080794
      5 C                     0.212659
      6 O                    -0.168651
      7 C                    -0.050914
      8 C                    -0.049488
      9 O                    -0.167059
     10 C                     0.215024
     11 C                    -0.075893
     12 C                    -0.082067
     13 C                     0.214430
     14 O                    -0.218755
     15 O                    -0.169148
     16 O                    -0.174484
     17 O                    -0.210734
     18 C                    -0.128061
     19 C                     0.022799
     20 C                    -0.145289
     21 C                    -0.142474
     22 C                     0.022917
     23 O                    -0.192673
     24 H                     0.088041
     25 H                     0.082966
     26 H                     0.091626
     27 H                     0.077528
     28 H                     0.073120
     29 H                     0.077164
     30 H                     0.072632
     31 H                     0.088894
     32 O                    -0.219798
     33 C                    -0.128575
     34 C                     0.025830
     35 C                    -0.143288
     36 C                    -0.144579
     37 C                     0.026525
     38 O                    -0.186006
     39 H                     0.086878
     40 H                     0.083686
     41 H                     0.091294
     42 H                     0.084067
     43 H                     0.078426
     44 H                     0.074118
     45 H                     0.078212
     46 H                     0.073502
     47 H                     0.087515
     48 H                     0.090433
     49 H                     0.091717
     50 H                     0.085455
     51 H                     0.086500
     52 H                     0.091226
     53 H                     0.092931
     54 H                     0.091000
     55 H                     0.095548
     56 H                     0.099744
  ----------------------------------------
  Sum of atomic charges =    -0.000000

 -----------------------------------------------------------------
                    Cartesian Multipole Moments
 -----------------------------------------------------------------
    Charge (ESU x 10^10)
                 0.0000
    Dipole Moment (Debye)
         X       2.9363      Y      -0.2915      Z      -2.4363
       Tot       3.8265
    Quadrupole Moments (Debye-Ang)
        XX    -146.7335     XY       4.0352     YY    -150.3627
        XZ       7.5402     YZ       2.5188     ZZ    -162.1125
    Octopole Moments (Debye-Ang^2)
       XXX      87.3074    XXY      -7.3994    XYY      32.0329
       YYY     -55.7125    XXZ     -78.7446    XYZ      25.1059
       YYZ       1.7192    XZZ       0.6635    YZZ     -12.8980
       ZZZ      -1.4555
    Hexadecapole Moments (Debye-Ang^3)
      XXXX  -17701.7763   XXXY      55.9364   XXYY   -3329.8431
      XYYY     -34.6901   YYYY   -2518.4032   XXXZ     200.1181
      XXYZ       6.2057   XYYZ    -101.2870   YYYZ       0.3495
      XXZZ   -3403.6191   XYZZ     -32.3149   YYZZ    -654.5150
      XZZZ     -81.1839   YZZZ      42.4618   ZZZZ   -1622.5200
 -----------------------------------------------------------------
 Calculating analytic gradient of the SCF energy
 Gradient of SCF Energy
            1           2           3           4           5           6
    1   0.0005480  -0.0012818   0.0003924  -0.0000024  -0.0003188   0.0000253
    2  -0.0007939   0.0005971  -0.0008527   0.0005230   0.0002487  -0.0003596
    3   0.0013622  -0.0028431   0.0025040  -0.0015504  -0.0001892   0.0000616
            7           8           9          10          11          12
    1  -0.0001587   0.0006646  -0.0027856   0.0007525   0.0019072  -0.0029481
    2   0.0004141  -0.0009464   0.0027952  -0.0009758  -0.0061660   0.0050861
    3  -0.0000010  -0.0010957   0.0030177  -0.0015041  -0.0030488   0.0028533
           13          14          15          16          17          18
    1   0.0044458  -0.0027343   0.0001254   0.0001068   0.0001005   0.0000331
    2   0.0012240  -0.0018230   0.0000344   0.0001215   0.0001777  -0.0000784
    3   0.0009503  -0.0010139   0.0000728  -0.0002112   0.0000501   0.0002583
           19          20          21          22          23          24
    1   0.0000075   0.0001393  -0.0000938   0.0001044   0.0000081  -0.0000324
    2   0.0001425  -0.0001058   0.0000521   0.0004181  -0.0001268   0.0000681
    3  -0.0002471   0.0001417   0.0002208  -0.0005589   0.0002517   0.0001304
           25          26          27          28          29          30
    1   0.0001165   0.0000467  -0.0000036  -0.0000182  -0.0000160   0.0000638
    2  -0.0000911  -0.0000001   0.0000094  -0.0000186   0.0000331  -0.0001025
    3   0.0000448   0.0000454   0.0000565  -0.0002396   0.0000007  -0.0000121
           31          32          33          34          35          36
    1  -0.0001174   0.0000499  -0.0000506  -0.0002597   0.0001111   0.0001395
    2   0.0000387  -0.0001286  -0.0001022  -0.0004239  -0.0000974   0.0000542
    3   0.0000105   0.0000511   0.0000141  -0.0002390   0.0000078  -0.0000508
           37          38          39          40          41          42
    1  -0.0000207   0.0002131   0.0000288   0.0002128   0.0000787  -0.0000075
    2   0.0002399   0.0002444   0.0001243   0.0000442   0.0000625   0.0000388
    3   0.0002913   0.0000318   0.0000329   0.0001049   0.0000591   0.0000574
           43          44          45          46          47          48
    1   0.0002510  -0.0001794  -0.0000655  -0.0001041   0.0000309   0.0000050
    2   0.0000400   0.0000683   0.0000889  -0.0001132   0.0000817   0.0000396
    3   0.0000021  -0.0000906   0.0001174   0.0000445  -0.0000090  -0.0000099
           49          50          51          52          53          54
    1   0.0000250   0.0000224   0.0000525  -0.0000127   0.0000523   0.0000892
    2   0.0000469   0.0000329   0.0001249  -0.0000040  -0.0000298   0.0000763
    3   0.0000128  -0.0000453  -0.0000485  -0.0000145   0.0000096   0.0000723
           55          56
    1   0.0000487   0.0002122
    2   0.0001028  -0.0001548
    3   0.0001046  -0.0000239
 Max gradient component =       6.166E-03
 RMS gradient           =       1.047E-03
 Gradient time:  CPU 30.35 s  wall 0.66 s
 Geometry Optimization Parameters
   NAtoms,    NIC,     NZ,  NCons,   NDum,   NFix, NCnnct, MaxDiis
       56     458       0       0       0       0       0       0


** GEOMETRY OPTIMIZATION IN DELOCALIZED INTERNAL COORDINATES **
   Searching for a Minimum

   Optimization Cycle:   1

                       Coordinates (Angstroms)
     ATOM                X               Y               Z
      1  O         3.0202740576   -1.6258653011   -0.7771995506
      2  C         4.1800305401   -1.2662723148   -1.0801265696
      3  C         4.8927419754    0.0726567861   -0.6984760302
      4  C         3.8867099902    1.2290760608   -0.2913588294
      5  C         2.3729265102    0.8023411082   -0.3596735660
      6  O         1.9431362062    0.3577134646    0.9355343559
      7  C         0.5298240950   -0.0739283825    0.8755113529
      8  C        -0.4554662565    1.1352647874    1.1577024355
      9  O        -1.5369414142    1.2389979438    0.1488869128
     10  C        -2.4615946145    0.1603114009    0.2982058343
     11  C        -3.5270696094    0.2247225751   -0.8564577888
     12  C        -4.9102815154   -0.3998435901   -0.4074210175
     13  C        -4.8304597037   -1.3225630538    0.8634046644
     14  O        -5.3446813147   -1.1217293087    1.9841159110
     15  O         5.1022924949   -2.0725906506   -1.8172457116
     16  O        -4.2261478796   -2.5607191186    0.4567456620
     17  O        -2.4244603480   -0.6578804381    1.2453153467
     18  C        -4.0742426621   -3.4496147566    1.6289512667
     19  C        -3.9611388479    1.7346233922   -1.0748961407
     20  C        -4.9582193710    1.8380620401   -2.2966038071
     21  C        -6.3024430387    1.3376143423   -1.6465348765
     22  C        -5.7922122088    0.9049523675   -0.2180198686
     23  O        -4.8154692465    1.9687208182    0.1153005233
     24  H        -3.1181781936   -0.2520782173   -1.7659433290
     25  H        -5.3135010111   -1.0240746852   -1.2255421168
     26  H        -3.1104356819    2.4425604532   -1.0884805076
     27  H        -5.0370764726    2.8802431703   -2.6440396088
     28  H        -4.6371039337    1.2086299898   -3.1424298460
     29  H        -7.0349084783    2.1562392562   -1.5597899582
     30  H        -6.7641350554    0.5048923820   -2.2008976239
     31  H        -6.5635160514    0.8239538302    0.5726523184
     32  O         1.6235470520    0.8898557028   -1.3569525025
     33  C         4.4797401077   -3.3740778145   -2.1564378004
     34  C         5.7472724346   -0.0683657944    0.6387329457
     35  C         6.7357960388    1.1616761175    0.7137657275
     36  C         5.7465585895    2.3194300448    1.1107829659
     37  C         4.3748755912    1.5391449396    1.1870381013
     38  O         4.7632237345    0.2067319406    1.7073518683
     39  H         5.5374795639    0.3730637246   -1.5435342940
     40  H         4.0137980177    2.1011410795   -0.9572308730
     41  H         3.5711527308   -3.2406098408   -2.7782489214
     42  H         6.2155029143   -1.0616423045    0.7818592567
     43  H         7.4988501034    0.9957803947    1.4909523528
     44  H         7.2428816601    1.3451257167   -0.2468941024
     45  H         5.9991425974    2.7475145487    2.0939635670
     46  H         5.7215761621    3.1323239294    0.3675060309
     47  H         3.6045158244    1.9969807350    1.8361797273
     48  H         4.2027283245   -3.9430928507   -1.2455317879
     49  H         5.2412222534   -3.9361381679   -2.7275986520
     50  H        -3.6890690109   -4.4102522985    1.2401898510
     51  H        -5.0412123280   -3.6162262268    2.1462415704
     52  H        -3.3511199007   -3.0277928343    2.3569322941
     53  H        -0.8846715343    1.0495924567    2.1783932876
     54  H         0.1020690450    2.0906497226    1.0784220280
     55  H         0.4096638327   -0.8585110835    1.6477117693
     56  H         0.3060696173   -0.4954148381   -0.1281989541
   Point Group: c1    Number of degrees of freedom:   162


   Energy is  -1510.281864497


 Attempting to Generate Delocalized Internal Coordinates

162 Hessian modes will be used to form the next step
  Hessian Eigenvalues:
     0.002000    0.002000    0.002000    0.002000    0.002000    0.002678
     0.002768    0.004274    0.004319    0.004381    0.004721    0.004791
     0.004911    0.005198    0.005203    0.006802    0.006814    0.010814
     0.010981    0.011716    0.011865    0.021581    0.021758    0.025978
     0.026108    0.030692    0.030941    0.035471    0.035482    0.039756
     0.041273    0.041609    0.041939    0.045756    0.046071    0.046352
     0.047436    0.048086    0.048130    0.050881    0.050958    0.052690
     0.053704    0.054424    0.054538    0.054962    0.056013    0.056474
     0.056558    0.058415    0.060077    0.060497    0.060542    0.063281
     0.063857    0.064135    0.064505    0.069560    0.070342    0.072880
     0.073201    0.090961    0.092530    0.092638    0.092776    0.095889
     0.096720    0.096884    0.097152    0.102631    0.102689    0.110167
     0.110498    0.112911    0.114640    0.121498    0.122073    0.137494
     0.138686    0.156883    0.157727    0.160000    0.160000    0.160000
     0.160000    0.160000    0.160000    0.163722    0.163816    0.218925
     0.219696    0.220955    0.221047    0.227669    0.228926    0.238333
     0.238566    0.239379    0.239851    0.245223    0.247602    0.247850
     0.248690    0.249715    0.249827    0.249885    0.250000    0.250000
     0.250000    0.250000    0.250000    0.250000    0.250000    0.250000
     0.252994    0.253493    0.256869    0.258228    0.258264    0.264880
     0.290945    0.293090    0.305835    0.307815    0.324550    0.325397
     0.326623    0.326823    0.326878    0.327007    0.327056    0.328624
     0.328774    0.328784    0.329388    0.329680    0.330719    0.330879
     0.331024    0.331084    0.331828    0.331837    0.334461    0.334732
     0.334868    0.334879    0.334924    0.334970    0.334991    0.335283
     0.342753    0.343352    0.346871    0.346907    0.400664    0.402425
     0.410315    0.411938    0.824542    0.827063    0.830460    0.834958

 Minimum Search - Taking Simple RFO Step
 Searching for Lamda that Minimizes Along All modes
 Value Taken    Lamda =  -0.00453904
 Calculated Step too Large.  Step scaled by  0.395785
 Step Taken.  Stepsize is  0.300000

                             Maximum     Tolerance    Cnvgd?
         Gradient           0.002089      0.000300      NO
         Displacement       0.113945      0.001200      NO
         Energy change     *********      0.000001      NO


 New Cartesian Coordinates Obtained by Inverse Iteration

 Displacement from previous Coordinates is:  1.348356
 Adding empirical dispersion correction 
 ----------------------------------------------------------------
 Doing -D3(op) with
 s6 =   1.00000
 s8 =   0.78311
 a1 =   0.30000
 a2 =   4.25000
 n  =  10.00000
 -D3 energy without 3body term =     -0.0655565666 hartrees
 ----------------------------------------------------------------
             Standard Nuclear Orientation (Angstroms)
    I     Atom           X                Y                Z
 ----------------------------------------------------------------
    1      O       3.0105646572    -1.6396107531    -0.7768266503
    2      C       4.1896403052    -1.3117196945    -1.0382555701
    3      C       4.9060326562     0.0312080635    -0.6803082271
    4      C       3.9008500582     1.1983614544    -0.3027752379
    5      C       2.3860412648     0.7764965583    -0.3750817744
    6      O       1.9398357969     0.3751617619     0.9286154651
    7      C       0.5195579307    -0.0335898840     0.8710390862
    8      C      -0.4444944792     1.2029850703     1.1038992583
    9      O      -1.5189680998     1.2895874510     0.0860328054
   10      C      -2.4752682391     0.2468002979     0.2831859749
   11      C      -3.5519172968     0.3031503361    -0.8618853711
   12      C      -4.9022989100    -0.3999181169    -0.4281582509
   13      C      -4.7769128639    -1.3481286862     0.8198273848
   14      O      -5.2116191654    -1.1514170999     1.9744439753
   15      O       5.1157631759    -2.1437699452    -1.7411441917
   16      O      -4.1689009606    -2.5711030804     0.3745347270
   17      O      -2.4257729165    -0.5690338750     1.2317879351
   18      C      -3.9435217536    -3.4655528738     1.5305352634
   19      C      -4.0528146578     1.7976225979    -1.0343305558
   20      C      -5.0594972105     1.8916916056    -2.2489514621
   21      C      -6.3762605551     1.3109123427    -1.6095752654
   22      C      -5.8397557125     0.8590338844    -0.1965471876
   23      O      -4.9111494557     1.9564647249     0.1650206822
   24      H      -3.1291387865    -0.1307229444    -1.7864986047
   25      H      -5.2849598461    -1.0177412736    -1.2609037077
   26      H      -3.2347818235     2.5431472579    -1.0297740073
   27      H      -5.1874144745     2.9389271328    -2.5652013329
   28      H      -4.7138370565     1.3026599083    -3.1138371835
   29      H      -7.1446547489     2.0923493791    -1.4953165125
   30      H      -6.8026720678     0.4753002134    -2.1872881381
   31      H      -6.6025680405     0.7199961819     0.5942123594
   32      O       1.6444687734     0.8510169180    -1.3792542868
   33      C       4.4790874959    -3.4389499137    -2.0785440430
   34      C       5.7482480960    -0.0872546955     0.6672123988
   35      C       6.7408259882     1.1400376432     0.7290004333
   36      C       5.7524126766     2.3086430709     1.0942465618
   37      C       4.3773298620     1.5346004221     1.1731990020
   38      O       4.7555744401     0.2106342246     1.7215669008
   39      H       5.5597048528     0.3108018825    -1.5256259054
   40      H       4.0359149868     2.0569869854    -0.9843633759
   41      H       3.5885801053    -3.2987246644    -2.7246492480
   42      H       6.2113374801    -1.0794364672     0.8330112126
   43      H       7.4946277588     0.9856235145     1.5173493585
   44      H       7.2591002654     1.3031515864    -0.2293537186
   45      H       5.9978989321     2.7543667539     2.0712752423
   46      H       5.7376481819     3.1073702545     0.3353922978
   47      H       3.6029111941     2.0070804509     1.8068189880
   48      H       4.1696875218    -3.9906194007    -1.1673638061
   49      H       5.2444610757    -4.0219392719    -2.6229106702
   50      H      -3.5576315663    -4.4150194584     1.1159103065
   51      H      -4.8812161992    -3.6565009151     2.0915842660
   52      H      -3.1954750123    -3.0343175558     2.2271705557
   53      H      -0.8802054757     1.1636243343     2.1246744245
   54      H       0.1314621400     2.1439997536     0.9920307542
   55      H       0.3789617367    -0.7897863001     1.6677236785
   56      H       0.2950243473    -0.4836337969    -0.1199917196
 ----------------------------------------------------------------
 Molecular Point Group                 C1    NOp =  1
 Largest Abelian Subgroup              C1    NOp =  1
 Nuclear Repulsion Energy =  3044.2005835029 hartrees
 There are      113 alpha and      113 beta electrons
 Applying Cartesian multipole field
    Component          Value
    ---------          -----
     (2,0,0)        1.00000E-12
     (0,2,0)        2.00000E-11
     (0,0,2)       -3.00000E-11
 Nucleus-field energy     =     0.0000000222 hartrees
 Requested basis set is STO-3G
 There are 86 shells and 176 basis functions
 A cutoff of  1.0D-12 yielded   1991 shell pairs
 There are      9326 function pairs
 Smallest overlap matrix eigenvalue = 2.13E-01
 Guess MOs from SCF MO coefficient file
 Reading MOs from coefficient file
 Reading MOs from coefficient file
 A restricted hybrid HF-DFT SCF calculation will be
 performed using Pulay DIIS extrapolation
 Exchange:     0.2000 Hartree-Fock + 0.0800 Slater + 0.7200 B88
 Correlation:  0.1900 VWN1RPA + 0.8100 LYP
 Using SG-1 standard quadrature grid
 Dispersion:   Grimme D3
 SCF converges when DIIS error is below 1.0E-08
 Geometry optimization detected.  Setting ReadMinima to 0
 Setting SaveMinima to 0
 using 48 threads for integral computing
 -------------------------------------------------------
 OpenMP Integral computing Module                
 Release: version 1.0, May 2013, Q-Chem Inc. Pittsburgh 
 -------------------------------------------------------
 -------------------------------------------------------
 OpenMP BLAS3 based DFT computing Module                
 Release: version 1.0, May 2013, Q-Chem Inc. Pittsburgh 
 -------------------------------------------------------
 ---------------------------------------
  Cycle       Energy         DIIS Error
 ---------------------------------------
    1   -1510.2594007105      2.34E-03
    2   -1510.2828290461      1.42E-04
    3   -1510.2829441625      1.38E-04
    4   -1510.2829999836      8.63E-05
    5   -1510.2830293506      2.98E-05
    6   -1510.2830333479      6.23E-06
    7   -1510.2830335165      2.58E-06
    8   -1510.2830335405      1.27E-06
    9   -1510.2830335479      2.46E-07
   10   -1510.2830335482      1.25E-07
   11   -1510.2830335482      6.89E-08
   12   -1510.2830335483      1.54E-08
   13   -1510.2830335483      4.51E-09 Convergence criterion met
 ---------------------------------------
 SCF time:  CPU 91.34 s  wall 1.91 s
 SCF   energy in the final basis set = -1510.28303355
 Total energy in the final basis set = -1510.28303355
 
 --------------------------------------------------------------
 
                    Orbital Energies (a.u.)
 --------------------------------------------------------------
 
 Alpha MOs
 -- Occupied --
-18.942 -18.938 -18.925 -18.915 -18.890 -18.884 -18.880 -18.880
-18.864 -18.856 -10.105 -10.102 -10.094 -10.086 -10.070 -10.069
-10.064 -10.063 -10.060 -10.055 -10.052 -10.050 -10.041 -10.037
-10.037 -10.028 -10.022 -10.021 -10.017 -10.015  -1.019  -1.016
 -1.003  -0.993  -0.972  -0.965  -0.942  -0.939  -0.928  -0.920
 -0.764  -0.758  -0.726  -0.721  -0.712  -0.703  -0.689  -0.667
 -0.650  -0.616  -0.595  -0.579  -0.547  -0.540  -0.539  -0.532
 -0.514  -0.505  -0.483  -0.476  -0.463  -0.452  -0.449  -0.445
 -0.435  -0.430  -0.426  -0.416  -0.410  -0.403  -0.401  -0.397
 -0.388  -0.378  -0.376  -0.364  -0.359  -0.357  -0.347  -0.345
 -0.340  -0.337  -0.332  -0.329  -0.328  -0.325  -0.320  -0.314
 -0.309  -0.305  -0.302  -0.301  -0.296  -0.282  -0.279  -0.271
 -0.271  -0.260  -0.254  -0.242  -0.239  -0.235  -0.229  -0.188
 -0.183  -0.163  -0.160  -0.158  -0.155  -0.147  -0.144  -0.140
 -0.137
 -- Virtual --
  0.091   0.097   0.111   0.119   0.222   0.240   0.246   0.249
  0.264   0.278   0.285   0.289   0.305   0.320   0.324   0.334
  0.336   0.344   0.345   0.347   0.356   0.358   0.366   0.369
  0.371   0.378   0.387   0.401   0.403   0.406   0.409   0.411
  0.417   0.418   0.424   0.425   0.429   0.431   0.436   0.436
  0.438   0.438   0.440   0.444   0.446   0.453   0.455   0.461
  0.465   0.471   0.489   0.492   0.494   0.501   0.514   0.535
  0.542   0.551   0.558   0.636   0.642   0.648   0.662
 --------------------------------------------------------------
 
          Ground-State Mulliken Net Atomic Charges

     Atom                 Charge (a.u.)
  ----------------------------------------
      1 O                    -0.207751
      2 C                     0.212152
      3 C                    -0.078932
      4 C                    -0.080918
      5 C                     0.212895
      6 O                    -0.169535
      7 C                    -0.050839
      8 C                    -0.049290
      9 O                    -0.167455
     10 C                     0.215239
     11 C                    -0.075610
     12 C                    -0.082243
     13 C                     0.214430
     14 O                    -0.218521
     15 O                    -0.168982
     16 O                    -0.175331
     17 O                    -0.210260
     18 C                    -0.128156
     19 C                     0.023044
     20 C                    -0.145143
     21 C                    -0.142499
     22 C                     0.023174
     23 O                    -0.192435
     24 H                     0.088467
     25 H                     0.082651
     26 H                     0.090506
     27 H                     0.077631
     28 H                     0.073366
     29 H                     0.077171
     30 H                     0.072709
     31 H                     0.088501
     32 O                    -0.220251
     33 C                    -0.128561
     34 C                     0.025789
     35 C                    -0.143380
     36 C                    -0.144612
     37 C                     0.026491
     38 O                    -0.186226
     39 H                     0.087139
     40 H                     0.083685
     41 H                     0.091468
     42 H                     0.083954
     43 H                     0.078386
     44 H                     0.074057
     45 H                     0.078168
     46 H                     0.073473
     47 H                     0.087649
     48 H                     0.090434
     49 H                     0.091784
     50 H                     0.085365
     51 H                     0.086572
     52 H                     0.091477
     53 H                     0.092764
     54 H                     0.090908
     55 H                     0.095466
     56 H                     0.099967
  ----------------------------------------
  Sum of atomic charges =    -0.000000

 -----------------------------------------------------------------
                    Cartesian Multipole Moments
 -----------------------------------------------------------------
    Charge (ESU x 10^10)
                 0.0000
    Dipole Moment (Debye)
         X       2.9007      Y      -0.2647      Z      -2.4460
       Tot       3.8035
    Quadrupole Moments (Debye-Ang)
        XX    -146.0701     XY       3.5440     YY    -149.8085
        XZ       7.7310     YZ       2.3448     ZZ    -162.7221
    Octopole Moments (Debye-Ang^2)
       XXX      82.0082    XXY      -7.5012    XYY      32.3138
       YYY     -56.6091    XXZ     -78.5569    XYZ      24.7257
       YYZ       1.7659    XZZ       1.0839    YZZ     -12.0703
       ZZZ      -1.8161
    Hexadecapole Moments (Debye-Ang^3)
      XXXX  -17707.1276   XXXY     116.4706   XXYY   -3351.9414
      XYYY      13.9535   YYYY   -2557.3821   XXXZ     152.2446
      XXYZ      -2.2595   XYYZ    -110.2752   YYYZ      -6.9316
      XXZZ   -3400.8192   XYZZ     -14.1498   YYZZ    -656.3108
      XZZZ    -118.0700   YZZZ      33.1691   ZZZZ   -1563.4815
 -----------------------------------------------------------------
 Calculating analytic gradient of the SCF energy
 Gradient of SCF Energy
            1           2           3           4           5           6
    1   0.0001313  -0.0001936  -0.0000870  -0.0002781   0.0002919  -0.0000366
    2  -0.0001510  -0.0007994  -0.0003412   0.0008737  -0.0005985   0.0002910
    3  -0.0003020   0.0009141   0.0004715  -0.0009621   0.0001672  -0.0001351
            7           8           9          10          11          12
    1  -0.0002378   0.0005248  -0.0004245  -0.0019733   0.0018895  -0.0013040
    2   0.0003920  -0.0005943   0.0013336   0.0017187  -0.0039034   0.0044740
    3   0.0001285  -0.0008217   0.0019858   0.0014476  -0.0033929   0.0028787
           13          14          15          16          17          18
    1  -0.0005103   0.0001450  -0.0000150   0.0007501   0.0008910   0.0000653
    2  -0.0018774  -0.0001458   0.0003619  -0.0001100  -0.0003186  -0.0000308
    3  -0.0018734   0.0002705  -0.0008381   0.0001733  -0.0002592   0.0001671
           19          20          21          22          23          24
    1   0.0002669   0.0000179  -0.0000711   0.0008449   0.0000542  -0.0004210
    2   0.0007270  -0.0003832   0.0001128   0.0001983  -0.0001911  -0.0004636
    3  -0.0008648   0.0003721   0.0000053  -0.0005498   0.0000551   0.0002378
           25          26          27          28          29          30
    1  -0.0005358  -0.0001018  -0.0000329   0.0000135  -0.0000341   0.0000180
    2  -0.0002831  -0.0001468   0.0000311   0.0000078   0.0000075  -0.0001506
    3   0.0002292   0.0001269   0.0000051  -0.0002139   0.0000281   0.0000123
           31          32          33          34          35          36
    1  -0.0000931   0.0000990  -0.0000451  -0.0004487   0.0001089   0.0000296
    2  -0.0001426  -0.0001204   0.0000440  -0.0003692   0.0000678   0.0000522
    3   0.0000664   0.0000808  -0.0000809  -0.0000788   0.0000798  -0.0001767
           37          38          39          40          41          42
    1   0.0000134   0.0000464   0.0001469   0.0001721   0.0000393  -0.0000339
    2   0.0000524   0.0001147   0.0001529   0.0000064  -0.0000205   0.0000299
    3   0.0001186   0.0000812   0.0001316   0.0000397   0.0000080   0.0000756
           43          44          45          46          47          48
    1   0.0001363  -0.0001103  -0.0000379   0.0000043   0.0000211   0.0000020
    2   0.0000190   0.0000278   0.0000354  -0.0000739   0.0000492   0.0000393
    3  -0.0000397  -0.0000421   0.0000764   0.0000446   0.0000427   0.0000398
           49          50          51          52          53          54
    1  -0.0000029   0.0000347  -0.0000261   0.0000957  -0.0000572   0.0000246
    2   0.0000178   0.0000491   0.0001273  -0.0001094   0.0000570  -0.0000173
    3  -0.0000057   0.0000040  -0.0000631  -0.0000695  -0.0000071   0.0000939
           55          56
    1   0.0001050   0.0001284
    2   0.0000027  -0.0001323
    3   0.0000966   0.0000208
 Max gradient component =       4.474E-03
 RMS gradient           =       7.536E-04
 Gradient time:  CPU 29.43 s  wall 0.63 s
 Geometry Optimization Parameters
   NAtoms,    NIC,     NZ,  NCons,   NDum,   NFix, NCnnct, MaxDiis
       56     458       0       0       0       0       0       0

 Cartesian Hessian Update
 Hessian Updated using BFGS Update


** GEOMETRY OPTIMIZATION IN DELOCALIZED INTERNAL COORDINATES **
   Searching for a Minimum

   Optimization Cycle:   2

                       Coordinates (Angstroms)
     ATOM                X               Y               Z
      1  O         3.0105646572   -1.6396107531   -0.7768266503
      2  C         4.1896403052   -1.3117196945   -1.0382555701
      3  C         4.9060326562    0.0312080635   -0.6803082271
      4  C         3.9008500582    1.1983614544   -0.3027752379
      5  C         2.3860412648    0.7764965583   -0.3750817744
      6  O         1.9398357969    0.3751617619    0.9286154651
      7  C         0.5195579307   -0.0335898840    0.8710390862
      8  C        -0.4444944792    1.2029850703    1.1038992583
      9  O        -1.5189680998    1.2895874510    0.0860328054
     10  C        -2.4752682391    0.2468002979    0.2831859749
     11  C        -3.5519172968    0.3031503361   -0.8618853711
     12  C        -4.9022989100   -0.3999181169   -0.4281582509
     13  C        -4.7769128639   -1.3481286862    0.8198273848
     14  O        -5.2116191654   -1.1514170999    1.9744439753
     15  O         5.1157631759   -2.1437699452   -1.7411441917
     16  O        -4.1689009606   -2.5711030804    0.3745347270
     17  O        -2.4257729165   -0.5690338750    1.2317879351
     18  C        -3.9435217536   -3.4655528738    1.5305352634
     19  C        -4.0528146578    1.7976225979   -1.0343305558
     20  C        -5.0594972105    1.8916916056   -2.2489514621
     21  C        -6.3762605551    1.3109123427   -1.6095752654
     22  C        -5.8397557125    0.8590338844   -0.1965471876
     23  O        -4.9111494557    1.9564647249    0.1650206822
     24  H        -3.1291387865   -0.1307229444   -1.7864986047
     25  H        -5.2849598461   -1.0177412736   -1.2609037077
     26  H        -3.2347818235    2.5431472579   -1.0297740073
     27  H        -5.1874144745    2.9389271328   -2.5652013329
     28  H        -4.7138370565    1.3026599083   -3.1138371835
     29  H        -7.1446547489    2.0923493791   -1.4953165125
     30  H        -6.8026720678    0.4753002134   -2.1872881381
     31  H        -6.6025680405    0.7199961819    0.5942123594
     32  O         1.6444687734    0.8510169180   -1.3792542868
     33  C         4.4790874959   -3.4389499137   -2.0785440430
     34  C         5.7482480960   -0.0872546955    0.6672123988
     35  C         6.7408259882    1.1400376432    0.7290004333
     36  C         5.7524126766    2.3086430709    1.0942465618
     37  C         4.3773298620    1.5346004221    1.1731990020
     38  O         4.7555744401    0.2106342246    1.7215669008
     39  H         5.5597048528    0.3108018825   -1.5256259054
     40  H         4.0359149868    2.0569869854   -0.9843633759
     41  H         3.5885801053   -3.2987246644   -2.7246492480
     42  H         6.2113374801   -1.0794364672    0.8330112126
     43  H         7.4946277588    0.9856235145    1.5173493585
     44  H         7.2591002654    1.3031515864   -0.2293537186
     45  H         5.9978989321    2.7543667539    2.0712752423
     46  H         5.7376481819    3.1073702545    0.3353922978
     47  H         3.6029111941    2.0070804509    1.8068189880
     48  H         4.1696875218   -3.9906194007   -1.1673638061
     49  H         5.2444610757   -4.0219392719   -2.6229106702
     50  H        -3.5576315663   -4.4150194584    1.1159103065
     51  H        -4.8812161992   -3.6565009151    2.0915842660
     52  H        -3.1954750123   -3.0343175558    2.2271705557
     53  H        -0.8802054757    1.1636243343    2.1246744245
     54  H         0.1314621400    2.1439997536    0.9920307542
     55  H         0.3789617367   -0.7897863001    1.6677236785
     56  H         0.2950243473   -0.4836337969   -0.1199917196
   Point Group: c1    Number of degrees of freedom:   162


   Energy is  -1510.283033548

 Hessian Updated using BFGS Update

149 Hessian modes will be used to form the next step
  Hessian Eigenvalues:
     0.001735    0.002376    0.002688    0.002915    0.004276    0.004332
     0.004638    0.004696    0.004791    0.005195    0.005199    0.006497
     0.006811    0.010201    0.010822    0.011015    0.011700    0.020973
     0.021590    0.021727    0.025980    0.026083    0.030891    0.031309
     0.035481    0.036648    0.039100    0.041105    0.041625    0.041993
     0.044031    0.045759    0.046337    0.047349    0.047510    0.048102
     0.050880    0.051281    0.053588    0.053736    0.054433    0.054638
     0.054993    0.055833    0.056479    0.056557    0.058415    0.059797
     0.060491    0.060975    0.063281    0.063856    0.064135    0.064507
     0.069545    0.070388    0.072877    0.073252    0.091135    0.092452
     0.092672    0.092785    0.095881    0.096720    0.096885    0.097165
     0.102630    0.102691    0.110172    0.112500    0.112882    0.114653
     0.121618    0.122514    0.137462    0.138672    0.157314    0.157980
     0.159974    0.160041    0.163647    0.165202    0.219042    0.219769
     0.220715    0.221081    0.227666    0.228964    0.238362    0.238581
     0.239361    0.239852    0.245223    0.247612    0.247758    0.248688
     0.249467    0.249717    0.249865    0.249914    0.252089    0.253002
     0.253482    0.256994    0.258212    0.260595    0.264711    0.291098
     0.293083    0.305848    0.307785    0.324550    0.325397    0.326622
     0.326821    0.326879    0.327006    0.327063    0.328623    0.328774
     0.328788    0.329427    0.329681    0.330720    0.330879    0.331014
     0.331120    0.331827    0.331837    0.334444    0.334731    0.334863
     0.334875    0.334921    0.334965    0.334991    0.335284    0.342773
     0.343347    0.346864    0.346908    0.400844    0.402445    0.410338
     0.412081    0.824551    0.827094    0.830459    0.835007

 Minimum Search - Taking Simple RFO Step
 Searching for Lamda that Minimizes Along All modes
 Value Taken    Lamda =  -0.00264104
 Calculated Step too Large.  Step scaled by  0.436762
 Step Taken.  Stepsize is  0.300000

                             Maximum     Tolerance    Cnvgd?
         Gradient           0.001986      0.000300      NO
         Displacement       0.084087      0.001200      NO
         Energy change     -0.001169      0.000001      NO


 New Cartesian Coordinates Obtained by Inverse Iteration

 Displacement from previous Coordinates is:  2.082562
 Adding empirical dispersion correction 
 ----------------------------------------------------------------
 Doing -D3(op) with
 s6 =   1.00000
 s8 =   0.78311
 a1 =   0.30000
 a2 =   4.25000
 n  =  10.00000
 -D3 energy without 3body term =     -0.0655269645 hartrees
 ----------------------------------------------------------------
             Standard Nuclear Orientation (Angstroms)
    I     Atom           X                Y                Z
 ----------------------------------------------------------------
    1      O       3.0378297146    -1.6569694335    -0.7433687492
    2      C       4.2253335908    -1.3493968760    -0.9911803314
    3      C       4.9391544020     0.0060459778    -0.6819385302
    4      C       3.9272724331     1.1827634935    -0.3559210644
    5      C       2.4133783103     0.7590177632    -0.4407735429
    6      O       1.9544941401     0.3618049497     0.8597757847
    7      C       0.5332998882    -0.0424032829     0.7908103597
    8      C      -0.4259489174     1.2005628122     1.0098711694
    9      O      -1.4974566145     1.2831745719    -0.0115960871
   10      C      -2.4738785422     0.2647969421     0.2108318526
   11      C      -3.6013040998     0.3795064704    -0.8785410919
   12      C      -4.9172407293    -0.3882279247    -0.4473971298
   13      C      -4.7360932315    -1.3778568080     0.7606186735
   14      O      -5.1280659438    -1.2233500951     1.9367092432
   15      O       5.1786006445    -2.2410889130    -1.5742209820
   16      O      -4.1631609337    -2.5896209115     0.2446513371
   17      O      -2.4135580219    -0.5637315081     1.1477274421
   18      C      -3.9089966051    -3.5326875702     1.3551105892
   19      C      -4.1384878318     1.8694508528    -0.9368767571
   20      C      -5.1729060639     2.0177045478    -2.1222205052
   21      C      -6.4584182267     1.3554931177    -1.4987905540
   22      C      -5.8822739233     0.8310154131    -0.1265185039
   23      O      -4.9747048270     1.9281556593     0.2865525429
   24      H      -3.2059372874     0.0153894676    -1.8446791987
   25      H      -5.3061262780    -0.9766209318    -1.2982068441
   26      H      -3.3378165248     2.6329354735    -0.9009250179
   27      H      -5.3362383878     3.0796912700    -2.3641501712
   28      H      -4.8292397100     1.4981752273    -3.0310799480
   29      H      -7.2469743462     2.1041690968    -1.3207249237
   30      H      -6.8717102322     0.5466044684    -2.1220914031
   31      H      -6.6253048083     0.6253601282     0.6683608236
   32      O       1.6834534711     0.8218781824    -1.4543010096
   33      C       4.5504521810    -3.5592678910    -1.8288108237
   34      C       5.7661619219    -0.0620439558     0.6787890522
   35      C       6.7508964997     1.1722741664     0.7149208539
   36      C       5.7516933020     2.3456199183     1.0316041698
   37      C       4.3800571810     1.5661250911     1.1155215691
   38      O       4.7576196841     0.2620797055     1.7099190878
   39      H       5.6020123146     0.2527343869    -1.5303054884
   40      H       4.0713378458     2.0202464820    -1.0615524984
   41      H       3.6921603282    -3.4734785619    -2.5261102446
   42      H       6.2326020153    -1.0456467218     0.8822592000
   43      H       7.4941421882     1.0463593135     1.5180623503
   44      H       7.2819130240     1.3085011722    -0.2406685513
   45      H       5.9820100193     2.8217160905     1.9978141743
   46      H       5.7430828404     3.1212164992     0.2488724834
   47      H       3.5939469342     2.0533626617     1.7229724741
   48      H       4.1950209579    -4.0298521814    -0.8893614639
   49      H       5.3369000317    -4.1888081146    -2.2840127437
   50      H      -3.5458860787    -4.4675904664     0.8898676471
   51      H      -4.8294987726    -3.7392924270     1.9387529900
   52      H      -3.1348762890    -3.1362071172     2.0439212414
   53      H      -0.8644797184     1.1735619048     2.0298275309
   54      H       0.1552421556     2.1373365872     0.8900107573
   55      H       0.3820953253    -0.7947007682     1.5891819370
   56      H       0.3142659820    -0.4946840546    -0.2004078833
 ----------------------------------------------------------------
 Molecular Point Group                 C1    NOp =  1
 Largest Abelian Subgroup              C1    NOp =  1
 Nuclear Repulsion Energy =  3041.5652838926 hartrees
 There are      113 alpha and      113 beta electrons
 Applying Cartesian multipole field
    Component          Value
    ---------          -----
     (2,0,0)        1.00000E-12
     (0,2,0)        2.00000E-11
     (0,0,2)       -3.00000E-11
 Nucleus-field energy     =     0.0000000282 hartrees
 Requested basis set is STO-3G
 There are 86 shells and 176 basis functions
 A cutoff of  1.0D-12 yielded   1988 shell pairs
 There are      9314 function pairs
 Smallest overlap matrix eigenvalue = 2.13E-01
 Guess MOs from SCF MO coefficient file
 Reading MOs from coefficient file
 Reading MOs from coefficient file
 A restricted hybrid HF-DFT SCF calculation will be
 performed using Pulay DIIS extrapolation
 Exchange:     0.2000 Hartree-Fock + 0.0800 Slater + 0.7200 B88
 Correlation:  0.1900 VWN1RPA + 0.8100 LYP
 Using SG-1 standard quadrature grid
 Dispersion:   Grimme D3
 SCF converges when DIIS error is below 1.0E-08
 Geometry optimization detected.  Setting ReadMinima to 0
 Setting SaveMinima to 0
 using 48 threads for integral computing
 -------------------------------------------------------
 OpenMP Integral computing Module                
 Release: version 1.0, May 2013, Q-Chem Inc. Pittsburgh 
 -------------------------------------------------------
 -------------------------------------------------------
 OpenMP BLAS3 based DFT computing Module                
 Release: version 1.0, May 2013, Q-Chem Inc. Pittsburgh 
 -------------------------------------------------------
 ---------------------------------------
  Cycle       Energy         DIIS Error
 ---------------------------------------
    1   -1510.2475890054      2.71E-03
    2   -1510.2834970281      2.10E-04
    3   -1510.2834668778      3.03E-04
    4   -1510.2838325939      1.04E-04
    5   -1510.2838758609      3.78E-05
    6   -1510.2838820512      1.25E-05
    7   -1510.2838826502      5.58E-06
    8   -1510.2838827874      1.42E-06
    9   -1510.2838827986      3.91E-07
   10   -1510.2838827994      2.23E-07
   11   -1510.2838827995      1.08E-07
   12   -1510.2838827996      2.19E-08
   13   -1510.2838827996      6.63E-09 Convergence criterion met
 ---------------------------------------
 SCF time:  CPU 87.97 s  wall 1.84 s
 SCF   energy in the final basis set = -1510.28388280
 Total energy in the final basis set = -1510.28388280
 
 --------------------------------------------------------------
 
                    Orbital Energies (a.u.)
 --------------------------------------------------------------
 
 Alpha MOs
 -- Occupied --
-18.942 -18.938 -18.925 -18.915 -18.890 -18.884 -18.881 -18.881
-18.863 -18.855 -10.105 -10.102 -10.094 -10.086 -10.070 -10.069
-10.063 -10.063 -10.060 -10.055 -10.052 -10.050 -10.041 -10.037
-10.036 -10.028 -10.022 -10.021 -10.017 -10.015  -1.019  -1.017
 -1.002  -0.993  -0.972  -0.965  -0.943  -0.940  -0.928  -0.919
 -0.764  -0.758  -0.726  -0.721  -0.712  -0.703  -0.689  -0.667
 -0.650  -0.616  -0.595  -0.579  -0.547  -0.540  -0.539  -0.533
 -0.514  -0.505  -0.482  -0.476  -0.463  -0.452  -0.449  -0.445
 -0.435  -0.430  -0.426  -0.416  -0.410  -0.403  -0.401  -0.397
 -0.388  -0.378  -0.376  -0.365  -0.359  -0.357  -0.347  -0.345
 -0.339  -0.337  -0.331  -0.329  -0.329  -0.325  -0.320  -0.314
 -0.309  -0.305  -0.302  -0.301  -0.296  -0.282  -0.278  -0.271
 -0.270  -0.260  -0.255  -0.241  -0.239  -0.235  -0.230  -0.188
 -0.184  -0.163  -0.160  -0.158  -0.155  -0.147  -0.143  -0.140
 -0.137
 -- Virtual --
  0.092   0.097   0.111   0.119   0.222   0.241   0.246   0.248
  0.265   0.278   0.285   0.289   0.305   0.320   0.325   0.334
  0.336   0.344   0.345   0.348   0.355   0.357   0.366   0.369
  0.371   0.377   0.388   0.401   0.403   0.405   0.410   0.411
  0.417   0.418   0.423   0.425   0.429   0.432   0.435   0.436
  0.437   0.438   0.440   0.444   0.446   0.453   0.454   0.461
  0.466   0.471   0.489   0.492   0.494   0.502   0.514   0.534
  0.543   0.551   0.557   0.637   0.642   0.648   0.663
 --------------------------------------------------------------
 
          Ground-State Mulliken Net Atomic Charges

     Atom                 Charge (a.u.)
  ----------------------------------------
      1 O                    -0.207284
      2 C                     0.212469
      3 C                    -0.078836
      4 C                    -0.081030
      5 C                     0.212934
      6 O                    -0.169673
      7 C                    -0.050689
      8 C                    -0.049291
      9 O                    -0.167529
     10 C                     0.215362
     11 C                    -0.075854
     12 C                    -0.082351
     13 C                     0.214883
     14 O                    -0.219031
     15 O                    -0.169118
     16 O                    -0.175900
     17 O                    -0.209172
     18 C                    -0.128256
     19 C                     0.023280
     20 C                    -0.144910
     21 C                    -0.142794
     22 C                     0.023453
     23 O                    -0.192112
     24 H                     0.088130
     25 H                     0.082898
     26 H                     0.089521
     27 H                     0.077696
     28 H                     0.073501
     29 H                     0.077217
     30 H                     0.072816
     31 H                     0.088410
     32 O                    -0.220554
     33 C                    -0.128511
     34 C                     0.025859
     35 C                    -0.143482
     36 C                    -0.144519
     37 C                     0.026466
     38 O                    -0.186295
     39 H                     0.087066
     40 H                     0.083557
     41 H                     0.091358
     42 H                     0.084287
     43 H                     0.078502
     44 H                     0.074148
     45 H                     0.078165
     46 H                     0.073513
     47 H                     0.087304
     48 H                     0.090648
     49 H                     0.091808
     50 H                     0.085315
     51 H                     0.086577
     52 H                     0.091023
     53 H                     0.092648
     54 H                     0.090740
     55 H                     0.095489
     56 H                     0.100147
  ----------------------------------------
  Sum of atomic charges =     0.000000

 -----------------------------------------------------------------
                    Cartesian Multipole Moments
 -----------------------------------------------------------------
    Charge (ESU x 10^10)
                 0.0000
    Dipole Moment (Debye)
         X       2.8581      Y      -0.1788      Z      -2.4154
       Tot       3.7463
    Quadrupole Moments (Debye-Ang)
        XX    -145.0600     XY       2.6001     YY    -148.9054
        XZ       8.0377     YZ       1.9615     ZZ    -163.7510
    Octopole Moments (Debye-Ang^2)
       XXX      76.8316    XXY      -5.3546    XYY      31.9720
       YYY     -57.8197    XXZ     -77.6958    XYZ      22.9526
       YYZ       2.8818    XZZ       0.7209    YZZ     -10.0857
       ZZZ       2.0753
    Hexadecapole Moments (Debye-Ang^3)
      XXXX  -17856.2742   XXXY     147.0257   XXYY   -3392.1026
      XYYY      43.2899   YYYY   -2653.7985   XXXZ     127.0400
      XXYZ      -9.3816   XYYZ    -107.8572   YYYZ      -1.1900
      XXZZ   -3413.2249   XYZZ       2.8333   YYZZ    -662.4108
      XZZZ    -129.6811   YZZZ      33.5284   ZZZZ   -1413.2020
 -----------------------------------------------------------------
 Calculating analytic gradient of the SCF energy
 Gradient of SCF Energy
            1           2           3           4           5           6
    1   0.0004230  -0.0011537   0.0000848   0.0000125   0.0001706   0.0001925
    2  -0.0002900   0.0011918  -0.0009313   0.0004369   0.0006336  -0.0004844
    3   0.0016589  -0.0027162   0.0008503  -0.0000590   0.0003631  -0.0006888
            7           8           9          10          11          12
    1  -0.0002803  -0.0001058   0.0005978  -0.0005833   0.0000596  -0.0012601
    2   0.0000742  -0.0000127   0.0008119   0.0001059  -0.0001680   0.0011222
    3   0.0000466  -0.0002769   0.0010964   0.0007552  -0.0015816   0.0021162
           13          14          15          16          17          18
    1   0.0008567   0.0001752   0.0001808  -0.0000992   0.0004900  -0.0002332
    2  -0.0010646   0.0000265  -0.0000479  -0.0001891   0.0003691  -0.0000717
    3  -0.0014461  -0.0000052  -0.0000018   0.0000098  -0.0000639   0.0000992
           19          20          21          22          23          24
    1   0.0003545  -0.0000584   0.0001013   0.0008680  -0.0000612  -0.0001050
    2   0.0006858   0.0001056  -0.0000384  -0.0001661  -0.0000470  -0.0011306
    3  -0.0011344   0.0004500  -0.0003285  -0.0003099   0.0001100   0.0005679
           25          26          27          28          29          30
    1  -0.0006685  -0.0001185   0.0000699  -0.0000262   0.0000143  -0.0002650
    2  -0.0001599  -0.0001457  -0.0000162  -0.0000848   0.0000535   0.0000652
    3  -0.0000547   0.0000911  -0.0001127  -0.0000289  -0.0000224   0.0000249
           31          32          33          34          35          36
    1   0.0001235   0.0000022   0.0000904  -0.0002669   0.0001809  -0.0000910
    2  -0.0001252  -0.0005262  -0.0000413   0.0003726   0.0001886  -0.0000625
    3   0.0000982  -0.0000072   0.0001592   0.0001069   0.0001675  -0.0001688
           37          38          39          40          41          42
    1   0.0001826  -0.0000966   0.0001885  -0.0000065  -0.0000572  -0.0000656
    2  -0.0001263  -0.0000982  -0.0002665  -0.0000211   0.0000440   0.0000450
    3  -0.0000648   0.0000189   0.0001708  -0.0000619  -0.0000496   0.0001450
           43          44          45          46          47          48
    1  -0.0000270   0.0000267  -0.0000037   0.0001084   0.0000480   0.0000025
    2   0.0000492  -0.0000266  -0.0000250  -0.0000014   0.0000054  -0.0000302
    3  -0.0000655   0.0000262  -0.0000075   0.0000119  -0.0000050  -0.0000190
           49          50          51          52          53          54
    1  -0.0000253  -0.0000066  -0.0000157   0.0000691  -0.0000590  -0.0000157
    2  -0.0000312   0.0000205  -0.0000168   0.0000888   0.0001060  -0.0000646
    3   0.0000173   0.0000160   0.0000100  -0.0001969   0.0000505   0.0000992
           55          56
    1   0.0001265  -0.0000457
    2  -0.0000042  -0.0000869
    3   0.0000835   0.0000568
 Max gradient component =       2.716E-03
 RMS gradient           =       4.904E-04
 Gradient time:  CPU 29.13 s  wall 0.62 s
 Geometry Optimization Parameters
   NAtoms,    NIC,     NZ,  NCons,   NDum,   NFix, NCnnct, MaxDiis
       56     458       0       0       0       0       0       0

 Cartesian Hessian Update
 Hessian Updated using BFGS Update


** GEOMETRY OPTIMIZATION IN DELOCALIZED INTERNAL COORDINATES **
   Searching for a Minimum

   Optimization Cycle:   3

                       Coordinates (Angstroms)
     ATOM                X               Y               Z
      1  O         3.0378297146   -1.6569694335   -0.7433687492
      2  C         4.2253335908   -1.3493968760   -0.9911803314
      3  C         4.9391544020    0.0060459778   -0.6819385302
      4  C         3.9272724331    1.1827634935   -0.3559210644
      5  C         2.4133783103    0.7590177632   -0.4407735429
      6  O         1.9544941401    0.3618049497    0.8597757847
      7  C         0.5332998882   -0.0424032829    0.7908103597
      8  C        -0.4259489174    1.2005628122    1.0098711694
      9  O        -1.4974566145    1.2831745719   -0.0115960871
     10  C        -2.4738785422    0.2647969421    0.2108318526
     11  C        -3.6013040998    0.3795064704   -0.8785410919
     12  C        -4.9172407293   -0.3882279247   -0.4473971298
     13  C        -4.7360932315   -1.3778568080    0.7606186735
     14  O        -5.1280659438   -1.2233500951    1.9367092432
     15  O         5.1786006445   -2.2410889130   -1.5742209820
     16  O        -4.1631609337   -2.5896209115    0.2446513371
     17  O        -2.4135580219   -0.5637315081    1.1477274421
     18  C        -3.9089966051   -3.5326875702    1.3551105892
     19  C        -4.1384878318    1.8694508528   -0.9368767571
     20  C        -5.1729060639    2.0177045478   -2.1222205052
     21  C        -6.4584182267    1.3554931177   -1.4987905540
     22  C        -5.8822739233    0.8310154131   -0.1265185039
     23  O        -4.9747048270    1.9281556593    0.2865525429
     24  H        -3.2059372874    0.0153894676   -1.8446791987
     25  H        -5.3061262780   -0.9766209318   -1.2982068441
     26  H        -3.3378165248    2.6329354735   -0.9009250179
     27  H        -5.3362383878    3.0796912700   -2.3641501712
     28  H        -4.8292397100    1.4981752273   -3.0310799480
     29  H        -7.2469743462    2.1041690968   -1.3207249237
     30  H        -6.8717102322    0.5466044684   -2.1220914031
     31  H        -6.6253048083    0.6253601282    0.6683608236
     32  O         1.6834534711    0.8218781824   -1.4543010096
     33  C         4.5504521810   -3.5592678910   -1.8288108237
     34  C         5.7661619219   -0.0620439558    0.6787890522
     35  C         6.7508964997    1.1722741664    0.7149208539
     36  C         5.7516933020    2.3456199183    1.0316041698
     37  C         4.3800571810    1.5661250911    1.1155215691
     38  O         4.7576196841    0.2620797055    1.7099190878
     39  H         5.6020123146    0.2527343869   -1.5303054884
     40  H         4.0713378458    2.0202464820   -1.0615524984
     41  H         3.6921603282   -3.4734785619   -2.5261102446
     42  H         6.2326020153   -1.0456467218    0.8822592000
     43  H         7.4941421882    1.0463593135    1.5180623503
     44  H         7.2819130240    1.3085011722   -0.2406685513
     45  H         5.9820100193    2.8217160905    1.9978141743
     46  H         5.7430828404    3.1212164992    0.2488724834
     47  H         3.5939469342    2.0533626617    1.7229724741
     48  H         4.1950209579   -4.0298521814   -0.8893614639
     49  H         5.3369000317   -4.1888081146   -2.2840127437
     50  H        -3.5458860787   -4.4675904664    0.8898676471
     51  H        -4.8294987726   -3.7392924270    1.9387529900
     52  H        -3.1348762890   -3.1362071172    2.0439212414
     53  H        -0.8644797184    1.1735619048    2.0298275309
     54  H         0.1552421556    2.1373365872    0.8900107573
     55  H         0.3820953253   -0.7947007682    1.5891819370
     56  H         0.3142659820   -0.4946840546   -0.2004078833
   Point Group: c1    Number of degrees of freedom:   162


   Energy is  -1510.283882800

 Hessian Updated using BFGS Update

152 Hessian modes will be used to form the next step
  Hessian Eigenvalues:
     0.001080    0.002076    0.002471    0.002689    0.003983    0.004266
     0.004547    0.004614    0.004791    0.005148    0.005186    0.005966
     0.006566    0.007450    0.010819    0.010974    0.011699    0.014398
     0.021577    0.021669    0.024723    0.025971    0.027943    0.030787
     0.031976    0.035632    0.036425    0.039386    0.041307    0.041719
     0.042090    0.044147    0.045821    0.046339    0.047322    0.048057
     0.048954    0.050953    0.051371    0.053489    0.053739    0.054463
     0.054679    0.055084    0.055921    0.056486    0.056557    0.058582
     0.059574    0.060480    0.060735    0.063283    0.063856    0.064159
     0.064507    0.069558    0.070282    0.072884    0.073412    0.091244
     0.092425    0.092684    0.092790    0.095879    0.096720    0.097158
     0.097265    0.102631    0.102699    0.110208    0.111232    0.112914
     0.114648    0.120806    0.125523    0.137655    0.138696    0.156752
     0.159176    0.159976    0.160013    0.161214    0.164167    0.165111
     0.219040    0.219970    0.220544    0.221504    0.227818    0.229773
     0.238372    0.238728    0.239343    0.239911    0.245223    0.247635
     0.247684    0.248681    0.249068    0.249726    0.249910    0.249959
     0.251161    0.252971    0.253199    0.254038    0.257106    0.258773
     0.259549    0.265981    0.291059    0.293100    0.305877    0.308279
     0.324550    0.325402    0.326622    0.326824    0.326879    0.327025
     0.327072    0.328633    0.328774    0.328785    0.329404    0.329687
     0.330720    0.330879    0.330994    0.331163    0.331837    0.331849
     0.334448    0.334731    0.334868    0.334877    0.334943    0.334977
     0.334992    0.335285    0.342797    0.343357    0.346888    0.346969
     0.400881    0.402586    0.410320    0.412013    0.824695    0.827111
     0.830464    0.835069

 Minimum Search - Taking Simple RFO Step
 Searching for Lamda that Minimizes Along All modes
 Value Taken    Lamda =  -0.00229008
 Calculated Step too Large.  Step scaled by  0.394636
 Step Taken.  Stepsize is  0.300000

                             Maximum     Tolerance    Cnvgd?
         Gradient           0.002315      0.000300      NO
         Displacement       0.088684      0.001200      NO
         Energy change     -0.000849      0.000001      NO


 New Cartesian Coordinates Obtained by Inverse Iteration

 Displacement from previous Coordinates is:  1.325959
 Adding empirical dispersion correction 
 ----------------------------------------------------------------
 Doing -D3(op) with
 s6 =   1.00000
 s8 =   0.78311
 a1 =   0.30000
 a2 =   4.25000
 n  =  10.00000
 -D3 energy without 3body term =     -0.0654577148 hartrees
 ----------------------------------------------------------------
             Standard Nuclear Orientation (Angstroms)
    I     Atom           X                Y                Z
 ----------------------------------------------------------------
    1      O       3.0792961068    -1.6928532180    -0.8019974228
    2      C       4.2825674909    -1.3946096253    -0.9736133564
    3      C       4.9701156234    -0.0217957508    -0.6841034013
    4      C       3.9347656362     1.1424143582    -0.3871541025
    5      C       2.4269411208     0.6998981731    -0.4888334825
    6      O       1.9518231216     0.3211939041     0.8116127601
    7      C       0.5272563059    -0.0694031168     0.7335060393
    8      C      -0.4189133177     1.1853023191     0.9432682282
    9      O      -1.4927796599     1.2709149935    -0.0758657035
   10      C      -2.4900789487     0.2798716105     0.1722011385
   11      C      -3.6479922456     0.4403464066    -0.8761505706
   12      C      -4.9398955582    -0.3771205713    -0.4643797968
   13      C      -4.7374430229    -1.3742646009     0.7341477512
   14      O      -5.1526696938    -1.2487592875     1.9056837802
   15      O       5.2685458182    -2.3014720204    -1.4723427680
   16      O      -4.1135708297    -2.5576542724     0.2122217654
   17      O      -2.4199185108    -0.5677315051     1.0912714784
   18      C      -3.8461397786    -3.5068100969     1.3144210979
   19      C      -4.2109970361     1.9210882980    -0.8533034638
   20      C      -5.2406419389     2.1096969220    -2.0368916847
   21      C      -6.5118974900     1.3802965151    -1.4614639882
   22      C      -5.9368834850     0.8076631532    -0.1078109364
   23      O      -5.0563988783     1.9031326691     0.3646114609
   24      H      -3.2662201773     0.1341104955    -1.8678048888
   25      H      -5.3124701072    -0.9557886878    -1.3285960961
   26      H      -3.4247590077     2.6967028445    -0.7756826637
   27      H      -5.4295417789     3.1787852197    -2.2222020904
   28      H      -4.8770242282     1.6489368401    -2.9691486376
   29      H      -7.3237148816     2.0966906207    -1.2573329226
   30      H      -6.8946850222     0.5913189455    -2.1280809400
   31      H      -6.6827301896     0.5534054942     0.6700240169
   32      O       1.7056125001     0.7645803629    -1.5084455505
   33      C       4.6573209179    -3.6287561430    -1.7212042796
   34      C       5.7817707376    -0.0547987152     0.6871881036
   35      C       6.7425167649     1.1979160070     0.7190054058
   36      C       5.7180165460     2.3562474463     1.0088141516
   37      C       4.3602012189     1.5522086987     1.0850145414
   38      O       4.7541120692     0.2632358911     1.7011078426
   39      H       5.6398664043     0.2202367320    -1.5284266517
   40      H       4.0759544344     1.9734414879    -1.1009337261
   41      H       3.8403336735    -3.5675004020    -2.4688755160
   42      H       6.2640226115    -1.0267489742     0.9092438336
   43      H       7.4772174096     1.0957250019     1.5332351144
   44      H       7.2834795730     1.3318495342    -0.2313421336
   45      H       5.9274903397     2.8482197682     1.9717132834
   46      H       5.7047821847     3.1220538726     0.2164178188
   47      H       3.5569496658     2.0322780080     1.6755027103
   48      H       4.2490421152    -4.0708274683    -0.7893909044
   49      H       5.4692828024    -4.2700356391    -2.1104792346
   50      H      -3.4351753599    -4.4192178924     0.8443004817
   51      H      -4.7702559663    -3.7596211504     1.8737393200
   52      H      -3.1049156394    -3.0903387504     2.0273043556
   53      H      -0.8552411518     1.1722611594     1.9643794747
   54      H       0.1722691963     2.1144789430     0.8132638073
   55      H       0.3624328056    -0.8174449042     1.5330857628
   56      H       0.3088150918    -0.5216465525    -0.2578433174
 ----------------------------------------------------------------
 Molecular Point Group                 C1    NOp =  1
 Largest Abelian Subgroup              C1    NOp =  1
 Nuclear Repulsion Energy =  3038.2857640199 hartrees
 There are      113 alpha and      113 beta electrons
 Applying Cartesian multipole field
    Component          Value
    ---------          -----
     (2,0,0)        1.00000E-12
     (0,2,0)        2.00000E-11
     (0,0,2)       -3.00000E-11
 Nucleus-field energy     =     0.0000000306 hartrees
 Requested basis set is STO-3G
 There are 86 shells and 176 basis functions
 A cutoff of  1.0D-12 yielded   1983 shell pairs
 There are      9303 function pairs
 Smallest overlap matrix eigenvalue = 2.13E-01
 Guess MOs from SCF MO coefficient file
 Reading MOs from coefficient file
 Reading MOs from coefficient file
 A restricted hybrid HF-DFT SCF calculation will be
 performed using Pulay DIIS extrapolation
 Exchange:     0.2000 Hartree-Fock + 0.0800 Slater + 0.7200 B88
[...]
      6  O         1.8469778718    0.4607700745   -0.0943240987
      7  C         0.5557263633    0.3397868912   -0.8062967581
      8  C        -0.2769506968    1.6794617269   -0.7885404850
      9  O        -1.6381625074    1.4446603671   -1.3327202475
     10  C        -2.4844096265    0.8827989038   -0.3268504931
     11  C        -3.8839425284    0.5827940629   -0.9567450683
     12  C        -4.7321369958   -0.4398366375   -0.0952444577
     13  C        -3.9797462700   -1.0023191169    1.1681853707
     14  O        -4.2506847683   -0.7920908050    2.3687334628
     15  O         4.9667014403   -2.4453091269   -1.3045452816
     16  O        -2.9824191789   -1.9277723669    0.7069940625
     17  O        -2.1376775883    0.6910847264    0.8609322537
     18  C        -2.1985167964   -2.4305330890    1.8566150421
     19  C        -4.8265010050    1.8653329568   -0.8991202919
     20  C        -6.0812995409    1.6005437600   -1.8230506907
     21  C        -6.9188927576    0.6152098002   -0.9255692023
     22  C        -5.9669859295    0.4611425063    0.3234318074
     23  O        -5.3761220771    1.8131016472    0.4726400768
     24  H        -3.7373448061    0.2362204380   -1.9949803342
     25  H        -5.0446536405   -1.2986035133   -0.7163551363
     26  H        -4.3035442142    2.8253794229   -1.0768824286
     27  H        -6.6257405708    2.5393560164   -2.0126256087
     28  H        -5.7943613595    1.1569537630   -2.7897160703
     29  H        -7.8793438172    1.0627298697   -0.6243768610
     30  H        -7.1177392036   -0.3486898449   -1.4205437305
     31  H        -6.4516604519    0.1479499074    1.2683149775
     32  O         2.5082219514    1.8356661721   -1.9217374571
     33  C         4.2746971006   -3.4397046341   -2.1581892841
     34  C         5.1612598489   -0.7181803415    1.0897795658
     35  C         6.2518540179    0.1610439836    1.8181910255
     36  C         5.4556304901    1.4984355239    2.0489684606
     37  C         4.0527828012    1.1333806854    1.4196779519
     38  O         3.8950972098   -0.3059849541    1.7341026465
     39  H         5.9924642607    0.0172078414   -0.8521289057
     40  H         4.7666918133    2.0273697813   -0.5152853372
     41  H         4.2549194414   -3.1205297958   -3.2203276264
     42  H         5.3034605138   -1.8139769186    1.1624569481
     43  H         6.5437144495   -0.3053089138    2.7726172134
     44  H         7.1551214353    0.3002342945    1.2026107998
     45  H         5.3477543291    1.7242674407    3.1216847183
     46  H         5.9220371537    2.3634985759    1.5509017302
     47  H         3.1937078064    1.7101370530    1.8127203621
     48  H         3.2317605380   -3.6094229889   -1.8214436975
     49  H         4.8532856447   -4.3769521306   -2.0637144373
     50  H        -1.4739780580   -3.1559259577    1.4427625741
     51  H        -2.8435513669   -2.9349396226    2.6048911982
     52  H        -1.6522364080   -1.6061523706    2.3596781064
     53  H        -0.3295537016    2.0694772964    0.2501059079
     54  H         0.1997191026    2.4264157628   -1.4534430404
     55  H        -0.0070910190   -0.4440142654   -0.2595854661
     56  H         0.7162855740    0.0145814339   -1.8561895077
   Point Group: c1    Number of degrees of freedom:   162


   Energy is  -1510.288102961

 Hessian Updated using BFGS Update

162 Hessian modes will be used to form the next step
  Hessian Eigenvalues:
     0.000812    0.001511    0.001839    0.002432    0.002548    0.004537
     0.005083    0.005658    0.005969    0.006158    0.007521    0.011692
     0.013632    0.014458    0.015266    0.015538    0.021055    0.021832
     0.023038    0.025800    0.027831    0.031042    0.031722    0.032322
     0.033667    0.034098    0.036640    0.039377    0.040788    0.041570
     0.042248    0.042457    0.043443    0.044629    0.048376    0.049357
     0.050397    0.051203    0.051593    0.052289    0.053914    0.054044
     0.054858    0.055085    0.056126    0.056445    0.056774    0.057049
     0.058097    0.061502    0.062941    0.063551    0.064293    0.064489
     0.064559    0.065882    0.068973    0.070690    0.071963    0.073059
     0.073664    0.092618    0.092825    0.094049    0.095194    0.096669
     0.097216    0.099343    0.102254    0.102700    0.102892    0.111785
     0.114600    0.117085    0.117483    0.137491    0.138667    0.141900
     0.142465    0.159829    0.159917    0.160006    0.160121    0.160551
     0.160837    0.164750    0.166141    0.175151    0.190331    0.203170
     0.215285    0.220290    0.227480    0.232550    0.237066    0.238182
     0.239227    0.240468    0.240984    0.241859    0.245716    0.247315
     0.247917    0.249214    0.250075    0.250326    0.250793    0.251773
     0.251804    0.253518    0.253859    0.255883    0.256953    0.262117
     0.266011    0.272417    0.289545    0.290853    0.295983    0.299716
     0.304157    0.318978    0.324408    0.325642    0.326736    0.326836
     0.326873    0.327022    0.327266    0.328684    0.328822    0.329390
     0.329547    0.329679    0.330689    0.330878    0.330995    0.331831
     0.331955    0.332148    0.334434    0.334754    0.334833    0.334885
     0.334988    0.335029    0.335110    0.335964    0.339212    0.343470
     0.346986    0.371146    0.387731    0.406525    0.410221    0.411690
     0.450554    0.525020    0.821926    0.828536    0.832447    0.836971

 Minimum Search - Taking Simple RFO Step
 Searching for Lamda that Minimizes Along All modes
 Value Taken    Lamda =  -0.00000507
 Step Taken.  Stepsize is  0.056957

                             Maximum     Tolerance    Cnvgd?
         Gradient           0.000281      0.000300     YES
         Displacement       0.020421      0.001200      NO
         Energy change     -0.000000      0.000001     YES

 Final energy is   -1510.28810296105     


 ******************************
 **  OPTIMIZATION CONVERGED  **
 ******************************

                       Coordinates (Angstroms)
     ATOM                X               Y               Z
      1  O         3.2046600318   -1.0130249558   -1.9726089094
      2  C         4.2527079205   -1.2083423807   -1.3163015313
      3  C         5.0041167170   -0.1849065450   -0.3996502354
      4  C         4.1903954377    1.1535925928   -0.1637669359
      5  C         2.7933420017    1.1932393479   -0.8875513523
      6  O         1.8469778718    0.4607700745   -0.0943240987
      7  C         0.5557263633    0.3397868912   -0.8062967581
      8  C        -0.2769506968    1.6794617269   -0.7885404850
      9  O        -1.6381625074    1.4446603671   -1.3327202475
     10  C        -2.4844096265    0.8827989038   -0.3268504931
     11  C        -3.8839425284    0.5827940629   -0.9567450683
     12  C        -4.7321369958   -0.4398366375   -0.0952444577
     13  C        -3.9797462700   -1.0023191169    1.1681853707
     14  O        -4.2506847683   -0.7920908050    2.3687334628
     15  O         4.9667014403   -2.4453091269   -1.3045452816
     16  O        -2.9824191789   -1.9277723669    0.7069940625
     17  O        -2.1376775883    0.6910847264    0.8609322537
     18  C        -2.1985167964   -2.4305330890    1.8566150421
     19  C        -4.8265010050    1.8653329568   -0.8991202919
     20  C        -6.0812995409    1.6005437600   -1.8230506907
     21  C        -6.9188927576    0.6152098002   -0.9255692023
     22  C        -5.9669859295    0.4611425063    0.3234318074
     23  O        -5.3761220771    1.8131016472    0.4726400768
     24  H        -3.7373448061    0.2362204380   -1.9949803342
     25  H        -5.0446536405   -1.2986035133   -0.7163551363
     26  H        -4.3035442142    2.8253794229   -1.0768824286
     27  H        -6.6257405708    2.5393560164   -2.0126256087
     28  H        -5.7943613595    1.1569537630   -2.7897160703
     29  H        -7.8793438172    1.0627298697   -0.6243768610
     30  H        -7.1177392036   -0.3486898449   -1.4205437305
     31  H        -6.4516604519    0.1479499074    1.2683149775
     32  O         2.5082219514    1.8356661721   -1.9217374571
     33  C         4.2746971006   -3.4397046341   -2.1581892841
     34  C         5.1612598489   -0.7181803415    1.0897795658
     35  C         6.2518540179    0.1610439836    1.8181910255
     36  C         5.4556304901    1.4984355239    2.0489684606
     37  C         4.0527828012    1.1333806854    1.4196779519
     38  O         3.8950972098   -0.3059849541    1.7341026465
     39  H         5.9924642607    0.0172078414   -0.8521289057
     40  H         4.7666918133    2.0273697813   -0.5152853372
     41  H         4.2549194414   -3.1205297958   -3.2203276264
     42  H         5.3034605138   -1.8139769186    1.1624569481
     43  H         6.5437144495   -0.3053089138    2.7726172134
     44  H         7.1551214353    0.3002342945    1.2026107998
     45  H         5.3477543291    1.7242674407    3.1216847183
     46  H         5.9220371537    2.3634985759    1.5509017302
     47  H         3.1937078064    1.7101370530    1.8127203621
     48  H         3.2317605380   -3.6094229889   -1.8214436975
     49  H         4.8532856447   -4.3769521306   -2.0637144373
     50  H        -1.4739780580   -3.1559259577    1.4427625741
     51  H        -2.8435513669   -2.9349396226    2.6048911982
     52  H        -1.6522364080   -1.6061523706    2.3596781064
     53  H        -0.3295537016    2.0694772964    0.2501059079
     54  H         0.1997191026    2.4264157628   -1.4534430404
     55  H        -0.0070910190   -0.4440142654   -0.2595854661
     56  H         0.7162855740    0.0145814339   -1.8561895077

Z-matrix Print:
$molecule
0 1
O 
C  1 1.435732
O  2 1.250419 1 124.663795
C  1 1.479484 2 110.556576 3 11.482299 0
H  4 1.109054 1 105.276538 2 165.607018 0
H  4 1.110771 1 110.648863 2 47.499080 0
C  2 1.573910 1 108.551829 3 174.868417 0
H  7 1.104160 2 107.274388 1 -156.338271 0
C  4 1.577465 1 112.695607 2 -75.616084 0
H  9 1.107813 4 109.800020 1 71.701040 0
H  9 1.110705 4 109.495682 1 -49.383033 0
O  9 1.484642 4 110.214385 1 -171.491522 0
C  12 1.429544 9 110.304341 4 81.288746 0
O  13 1.252120 12 124.313980 9 3.724753 0
C  13 1.563797 12 108.769933 9 -177.139822 0
H  15 1.104326 13 108.668617 12 36.640424 0
C  15 1.583474 13 112.590249 12 161.734884 0
H  17 1.104955 15 110.340747 13 -124.884363 0
C  17 1.574399 15 114.289155 13 -2.989091 0
O  19 1.248567 17 127.427969 15 112.811934 0
O  19 1.436601 17 107.715716 15 -72.875217 0
C  21 1.479493 19 109.711948 17 177.012509 0
H  22 1.105633 21 106.219187 19 178.317303 0
H  22 1.109240 21 111.752225 19 58.847706 0
H  22 1.109549 21 111.142517 19 -62.602088 0
C  7 1.584097 2 114.127448 1 80.670219 0
H  26 1.105630 7 111.448749 2 122.084779 0
C  26 1.565978 7 113.135116 2 0.166417 0
O  28 1.251916 26 127.344080 7 8.972240 0
O  28 1.428290 26 108.742555 7 -171.428586 0
C  30 1.482026 28 110.055792 26 179.654456 0
H  31 1.105497 30 105.976854 28 -177.454463 0
H  31 1.109017 30 111.524152 28 -58.168139 0
H  31 1.109235 30 111.518415 28 63.363886 0
C  17 1.584899 15 101.182623 13 116.725516 0
H  35 1.107160 17 113.935831 15 -153.552883 0
O  35 1.482962 17 103.556468 15 -33.755554 0
C  37 1.478695 35 94.988683 17 56.468950 0
H  38 1.107598 37 110.793485 35 179.758296 0
C  35 1.577931 17 108.447110 15 75.568443 0
H  40 1.101570 35 110.439741 17 168.810223 0
H  40 1.101654 35 112.277906 17 47.289775 0
C  40 1.574141 35 101.035359 17 -73.148204 0
H  43 1.101611 40 112.758077 35 117.940337 0
H  43 1.101691 40 111.626858 35 -119.333560 0
C  7 1.589542 2 112.431247 1 -32.952721 0
H  46 1.106860 7 114.475362 2 -34.074133 0
O  46 1.481722 7 103.471020 2 86.089911 0
C  48 1.479265 46 95.000525 7 57.202562 0
H  49 1.107372 48 110.919931 46 -179.050381 0
C  49 1.578928 48 103.597845 46 56.314588 0
H  51 1.101634 49 110.300961 48 82.802826 0
H  51 1.101910 49 112.260510 48 -155.835723 0
C  51 1.573482 49 101.036712 48 -35.271937 0
H  54 1.101525 51 111.508775 49 117.779736 0
H  54 1.101789 51 112.757225 49 -119.595202 0
$end

 
 --------------------------------------------------------------
 
                    Orbital Energies (a.u.)
 --------------------------------------------------------------
 
 Alpha MOs
 -- Occupied --
-18.945 -18.937 -18.923 -18.917 -18.889 -18.887 -18.884 -18.879
-18.863 -18.860 -10.109 -10.101 -10.094 -10.088 -10.071 -10.065
-10.063 -10.062 -10.060 -10.059 -10.054 -10.052 -10.042 -10.036
-10.035 -10.030 -10.021 -10.020 -10.018 -10.017  -1.022  -1.015
 -1.001  -0.995  -0.971  -0.967  -0.945  -0.939  -0.928  -0.922
 -0.764  -0.760  -0.726  -0.721  -0.713  -0.704  -0.690  -0.668
 -0.652  -0.615  -0.596  -0.580  -0.546  -0.542  -0.538  -0.534
 -0.514  -0.507  -0.485  -0.473  -0.464  -0.454  -0.450  -0.444
 -0.434  -0.432  -0.428  -0.418  -0.410  -0.405  -0.401  -0.392
 -0.390  -0.381  -0.377  -0.363  -0.361  -0.354  -0.350  -0.345
 -0.339  -0.337  -0.333  -0.330  -0.328  -0.326  -0.322  -0.315
 -0.309  -0.306  -0.301  -0.301  -0.297  -0.283  -0.277  -0.275
 -0.271  -0.262  -0.255  -0.243  -0.240  -0.235  -0.231  -0.189
 -0.185  -0.164  -0.162  -0.160  -0.155  -0.145  -0.143  -0.142
 -0.139
 -- Virtual --
  0.091   0.094   0.109   0.119   0.216   0.240   0.244   0.247
  0.270   0.280   0.286   0.289   0.305   0.323   0.327   0.331
  0.338   0.343   0.350   0.351   0.356   0.361   0.368   0.372
  0.374   0.382   0.388   0.398   0.403   0.406   0.406   0.412
  0.415   0.417   0.422   0.424   0.429   0.429   0.433   0.434
  0.436   0.438   0.442   0.442   0.444   0.447   0.453   0.457
  0.467   0.469   0.487   0.489   0.490   0.504   0.510   0.535
  0.544   0.552   0.554   0.634   0.645   0.652   0.659
 --------------------------------------------------------------
 
          Ground-State Mulliken Net Atomic Charges

     Atom                 Charge (a.u.)
  ----------------------------------------
      1 O                    -0.208443
      2 C                     0.215167
      3 C                    -0.078302
      4 C                    -0.081605
      5 C                     0.214316
      6 O                    -0.170639
      7 C                    -0.049784
      8 C                    -0.055258
      9 O                    -0.170409
     10 C                     0.212817
     11 C                    -0.078423
     12 C                    -0.080888
     13 C                     0.215926
     14 O                    -0.214026
     15 O                    -0.168756
     16 O                    -0.178842
     17 O                    -0.208964
     18 C                    -0.129377
     19 C                     0.025574
     20 C                    -0.143689
     21 C                    -0.143997
     22 C                     0.024667
     23 O                    -0.188267
     24 H                     0.086870
     25 H                     0.083037
     26 H                     0.083703
     27 H                     0.077936
     28 H                     0.073689
     29 H                     0.077860
     30 H                     0.073011
     31 H                     0.089879
     32 O                    -0.220907
     33 C                    -0.127955
     34 C                     0.024940
     35 C                    -0.143640
     36 C                    -0.144412
     37 C                     0.026819
     38 O                    -0.186561
     39 H                     0.086706
     40 H                     0.083314
     41 H                     0.090463
     42 H                     0.087671
     43 H                     0.078415
     44 H                     0.073439
     45 H                     0.078423
     46 H                     0.073638
     47 H                     0.086403
     48 H                     0.092136
     49 H                     0.092523
     50 H                     0.085528
     51 H                     0.086605
     52 H                     0.093197
     53 H                     0.093163
     54 H                     0.099284
     55 H                     0.091180
     56 H                     0.094848
  ----------------------------------------
  Sum of atomic charges =     0.000000

 -----------------------------------------------------------------
                    Cartesian Multipole Moments
 -----------------------------------------------------------------
    Charge (ESU x 10^10)
                 0.0000
    Dipole Moment (Debye)
         X       2.4366      Y      -1.5814      Z      -2.0161
       Tot       3.5359
    Quadrupole Moments (Debye-Ang)
        XX    -138.4816     XY       1.6222     YY    -152.2302
        XZ      13.2890     YZ       3.8389     ZZ    -166.4061
    Octopole Moments (Debye-Ang^2)
       XXX      44.2350    XXY     -30.0364    XYY      19.2976
       YYY     -74.4596    XXZ     -45.9191    XYZ      36.8236
       YYZ       9.6006    XZZ      11.0604    YZZ     -34.1062
       ZZZ      32.6433
    Hexadecapole Moments (Debye-Ang^3)
      XXXX  -16703.0148   XXXY     729.4003   XXYY   -3256.2500
      XYYY     511.8671   YYYY   -2114.6986   XXXZ      68.3295
      XXYZ      34.0507   XYYZ     -95.3611   YYYZ      77.3331
      XXZZ   -3302.8396   XYZZ     160.4010   YYZZ    -662.2694
      XZZZ    -155.1205   YZZZ      93.6294   ZZZZ   -1947.2231
 -----------------------------------------------------------------
Archival summary:
1\1\vega02.cac.cornell.edu\OPT\ProcedureUnspecified\STO-3G\102026\jj585\SunJan1412:07:372018SunJan1412:07:372018\0\\#,OPT,ProcedureUnspecified,STO-3G,\\0,1\O\C,1,1.43573\O,2,1.25042,1,124.664\C,1,1.47948,2,110.557,3,11.4823,0\H,4,1.10905,1,105.277,2,165.607,0\H,4,1.11077,1,110.649,2,47.4991,0\C,2,1.57391,1,108.552,3,174.868,0\H,7,1.10416,2,107.274,1,-156.338,0\C,4,1.57746,1,112.696,2,-75.6161,0\H,9,1.10781,4,109.8,1,71.701,0\H,9,1.1107,4,109.496,1,-49.383,0\O,9,1.48464,4,110.214,1,-171.492,0\C,12,1.42954,9,110.304,4,81.2887,0\O,13,1.25212,12,124.314,9,3.72475,0\C,13,1.5638,12,108.77,9,-177.14,0\H,15,1.10433,13,108.669,12,36.6404,0\C,15,1.58347,13,112.59,12,161.735,0\H,17,1.10496,15,110.341,13,-124.884,0\C,17,1.5744,15,114.289,13,-2.98909,0\O,19,1.24857,17,127.428,15,112.812,0\O,19,1.4366,17,107.716,15,-72.8752,0\C,21,1.47949,19,109.712,17,177.013,0\H,22,1.10563,21,106.219,19,178.317,0\H,22,1.10924,21,111.752,19,58.8477,0\H,22,1.10955,21,111.143,19,-62.6021,0\C,7,1.5841,2,114.127,1,80.6702,0\H,26,1.10563,7,111.449,2,122.085,0\C,26,1.56598,7,113.135,2,0.166417,0\O,28,1.25192,26,127.344,7,8.97224,0\O,28,1.42829,26,108.743,7,-171.429,0\C,30,1.48203,28,110.056,26,179.654,0\H,31,1.1055,30,105.977,28,-177.454,0\H,31,1.10902,30,111.524,28,-58.1681,0\H,31,1.10923,30,111.518,28,63.3639,0\C,17,1.5849,15,101.183,13,116.726,0\H,35,1.10716,17,113.936,15,-153.553,0\O,35,1.48296,17,103.556,15,-33.7556,0\C,37,1.47869,35,94.9887,17,56.4689,0\H,38,1.1076,37,110.793,35,179.758,0\C,35,1.57793,17,108.447,15,75.5684,0\H,40,1.10157,35,110.44,17,168.81,0\H,40,1.10165,35,112.278,17,47.2898,0\C,40,1.57414,35,101.035,17,-73.1482,0\H,43,1.10161,40,112.758,35,117.94,0\H,43,1.10169,40,111.627,35,-119.334,0\C,7,1.58954,2,112.431,1,-32.9527,0\H,46,1.10686,7,114.475,2,-34.0741,0\O,46,1.48172,7,103.471,2,86.0899,0\C,48,1.47927,46,95.0005,7,57.2026,0\H,49,1.10737,48,110.92,46,-179.05,0\C,49,1.57893,48,103.598,46,56.3146,0\H,51,1.10163,49,110.301,48,82.8028,0\H,51,1.10191,49,112.261,48,-155.836,0\C,51,1.57348,49,101.037,48,-35.2719,0\H,54,1.10153,51,111.509,49,117.78,0\H,54,1.10179,51,112.757,49,-119.595,0\\\@

 Total job time:  68.61s(wall), 3262.28s(cpu) 
 Sun Jan 14 12:07:37 2018

        *************************************************************
        *                                                           *
        *  Thank you very much for using Q-Chem.  Have a nice day.  *
        *                                                           *
        *************************************************************


0 sent ACK to 0 
now end server 0 ... 
