mFile = /opt/software/qchem/qchem-5.0.1//bin/mpi/machines
Process 0 of 1 is on vega02.cac.cornell.edu - thread support 0
initial socket setup ...start
initial socket setup ...done 
now start server 0 ... 
vega02.cac.cornell.edu 10.84.3
Q-Chem Developer Version! Running on 10.84.3.*
                  Welcome to Q-Chem
     A Quantum Leap Into The Future Of Chemistry


 Q-Chem 5.0, Q-Chem, Inc., Pleasanton, CA (2017)

 Yihan Shao,  Zhengting Gan,  E. Epifanovsky,  A. T. B. Gilbert,  M. Wormit,  
 J. Kussmann,  A. W. Lange,  A. Behn,  Jia Deng,  Xintian Feng,  D. Ghosh,  
 M. Goldey,  P. R. Horn,  L. D. Jacobson,  I. Kaliman,  T. Kus,  A. Landau,  
 Jie Liu,  E. I. Proynov,  R. M. Richard,  R. P. Steele,  E. J. Sundstrom,  
 H. L. Woodcock III,  P. M. Zimmerman,  D. Zuev,  B. Albrecht,  E. Alguire,  
 S. A. Baeppler,  Z. Benda,  Y. A. Bernard,  E. J. Berquist,  K. B. Bravaya,  
 D. Casanova,  Chun-Min Chang,  Yunqing Chen,  A. Chien,  K. D. Closser,  
 M. P. Coons,  S. Dasgupta,  M. Diedenhofen,  Hainam Do,  R. G. Edgar,  
 Po-Tung Fang,  S. Fatehi,  Qingguo Feng,  Qinghui Ge,  A. Ghysels,  
 J. Gomes,  J. Gonthier,  A. Gunina,  M. W. D. Hanson-Heine,  
 P. H. P. Harbach,  A. W. Hauser,  J. E. Herr,  E. G. Hohenstein,  
 Z. C. Holden,  Kerwin Hui,  T.-C. Jagau,  Hyunjun Ji,  B. Kaduk,  
 K. Khistyaev,  Jaehoon Kim,  P. Klunzinger,  K. Koh,  D. Kosenkov,  
 T. Kowalczyk,  C. M. Krauter,  A. Kunitsa,  Ka Un Lao,  A. Laurent,  
 K. V. Lawler,  Joonho Lee,  D. Lefrancois,  S. Lehtola,  D. S. Levine,  
 Yi-Pei Li,  You-Sheng Lin,  Fenglai Liu,  E. Livshits,  A. Luenser,  
 P. Manohar,  E. Mansoor,  S. F. Manzer,  Shan-Ping Mao,  Yuezhi Mao,  
 N. Mardirossian,  A. V. Marenich,  L. A. Martinez-Martinez,  S. A. Maurer,  
 N. J. Mayhall,  S. C. McKenzie,  J.-M. Mewes,  A. F. Morrison,  K. Nanda,  
 T. S. Nguyen-Beck,  R. Olivares-Amaya,  J. A. Parkhill,  T. M. Perrine,  
 F. Plasser,  S. Prager,  A. Prociuk,  D. R. Rehn,  F. Rob,  M. Schneider,  
 N. Sergueev,  S. M. Sharada,  S. Sharma,  D. W. Small,  T. Stauch,  
 T. Stein,  Yu-Chuan Su,  A. J. W. Thom,  T. Tsuchimochi,  L. Vogt,  
 O. Vydrov,  M. A. Watson,  J. Wenzel,  M. de Wergifosse,  T. A. Wesolowski,  
 A. White,  J. Witte,  A. Yamada,  Jun Yang,  K. Yao,  S. Yeganeh,  
 S. R. Yost,  Zhi-Qiang You,  A. Zech,  Igor Ying Zhang,  Xing Zhang,  
 Yan Zhao,  Ying Zhu,  B. R. Brooks,  G. K. L. Chan,  C. J. Cramer,  
 M. S. Gordon,  W. J. Hehre,  A. Klamt,  M. W. Schmidt,  C. D. Sherrill,  
 D. G. Truhlar,  A. Aspuru-Guzik,  R. Baer,  A. T. Bell,  N. A. Besley,  
 Jeng-Da Chai,  A. Dreuw,  B. D. Dunietz,  T. R. Furlani,  Chao-Ping Hsu,  
 Yousung Jung,  Jing Kong,  D. S. Lambrecht,  WanZhen Liang,  C. Ochsenfeld,  
 V. A. Rassolov,  L. V. Slipchenko,  J. E. Subotnik,  T. Van Voorhis,  
 J. M. Herbert,  A. I. Krylov,  P. M. W. Gill,  M. Head-Gordon

 Contributors to earlier versions of Q-Chem not listed above: 
 R. D. Adamson,  B. Austin,  J. Baker,  G. J. O. Beran,  K. Brandhorst,  
 S. T. Brown,  E. F. C. Byrd,  A. K. Chakraborty,  C.-L. Cheng,  
 Siu Hung Chien,  D. M. Chipman,  D. L. Crittenden,  H. Dachsel,  
 R. A. DiStasio Jr.,  R. J. Doerksen,  A. D. Dutoi,  L. Fusti-Molnar,  
 W. A. Goddard III,  A. Golubeva-Zadorozhnaya,  S. R. Gwaltney,  G. Hawkins,  
 A. Heyden,  S. Hirata,  G. Kedziora,  F. J. Keil,  C. Kelley,  Jihan Kim,  
 R. A. King,  R. Z. Khaliullin,  P. P. Korambath,  W. Kurlancheek,  
 A. M. Lee,  M. S. Lee,  S. V. Levchenko,  Ching Yeh Lin,  D. Liotard,  
 R. C. Lochan,  I. Lotan,  P. E. Maslen,  N. Nair,  D. P. O'Neill,  
 D. Neuhauser,  E. Neuscamman,  C. M. Oana,  R. Olson,  B. Peters,  
 R. Peverati,  P. A. Pieniazek,  Y. M. Rhee,  J. Ritchie,  M. A. Rohrdanz,  
 E. Rosta,  N. J. Russ,  H. F. Schaefer III,  N. E. Schultz,  N. Shenvi,  
 A. C. Simmonett,  A. Sodt,  D. Stuck,  K. S. Thanthiriwatte,  V. Vanovschi,  
 Tao Wang,  A. Warshel,  C. F. Williams,  Q. Wu,  X. Xu,  W. Zhang

 Please cite Q-Chem as follows:
 Y. Shao et al., Mol. Phys. 113, 184-215 (2015)
 DOI: 10.1080/00268976.2014.952696

 Q-Chem 5.0.1 for Intel X86 EM64T Linux

 Parts of Q-Chem use Armadillo 5.200.1 (Boston Tea Smuggler).
 http://arma.sourceforge.net/

 Q-Chem begins on Sun Jan 14 13:42:54 2018  

Host: vega02.cac.cornell.edu
0

     Scratch files written to /scratch/jj585/SOT1001/0457c.save//
 Parallel job on  1  processors

Checking the input file for inconsistencies... 	...done.

--------------------------------------------------------------
User input:
--------------------------------------------------------------
$molecule
0  1
O -3.94934 -3.66094 2.70899
C -3.26408 -4.56952 2.26188
C -3.36658 -6.02376 2.66595
C -4.41631 -6.88207 1.94122
C -5.12384 -6.23632 0.77054
O -6.43614 -6.61459 0.75547
C -7.17496 -6.04151 -0.3285
C -8.58232 -5.67452 0.13061
O -8.82524 -4.27854 -0.10413
C -8.86713 -3.905 -1.40715
C -7.61684 -3.18501 -1.8533
C -6.33982 -3.5747 -1.09459
C -6.42039 -4.84686 -0.27494
O -7.44178 -5.47768 -0.04389
O -2.33278 -4.26352 1.31849
O -6.10655 -4.20777 1.00163
O -9.5954 -4.48094 -2.20451
C -6.85167 -4.13796 2.18478
C -7.18905 -3.47615 -3.30752
C -6.31731 -2.33188 -3.82339
C -5.04592 -2.57248 -3.03895
C -5.4175 -3.86227 -2.29693
O -6.26907 -4.53234 -3.19407
H -7.84786 -2.10128 -1.74839
H -5.94178 -2.68403 -0.54369
H -8.04239 -3.63903 -4.00062
H -6.11178 -2.52756 -4.90019
H -6.75887 -1.31796 -3.71252
H -4.2218 -2.7687 -3.76056
H -4.7513 -1.75612 -2.34442
H -4.49027 -4.39991 -2.00983
O -4.40848 -6.12297 -0.23915
C -2.16088 -3.00884 0.77251
C -2.09167 -6.83916 2.3351
C -2.00939 -8.07414 3.23415
C -3.09903 -8.93388 2.63162
C -3.52982 -8.04989 1.45807
O -2.3438 -7.40087 1.07204
H -3.47335 -6.02679 3.77391
H -5.19058 -7.24575 2.65548
H -1.89141 -2.27852 1.56477
H -1.15529 -6.24691 2.43135
H -1.02761 -8.56316 3.04146
H -2.10989 -7.87187 4.32226
H -2.63707 -9.87252 2.25205
H -3.94591 -9.17557 3.30961
H -4.03138 -8.662 0.67606
H -3.09415 -2.68511 0.26238
H -1.34234 -3.04672 0.02496
H -6.32141 -3.52152 2.93306
H -7.01886 -5.1413 2.62551
H -7.82086 -3.63395 2.00811
H -9.38592 -6.2716 -0.4475
H -8.97834 -5.98075 1.20396
H -7.41519 -7.24614 -0.78591
H -6.90028 -6.61904 -1.50653
$end

$opt
CONSTRAINT
tors           1           2           3           4     +85.263
tors           3           4           5           6    -142.105
tors           4           5           6           7    -180.000
tors           5           6           7           8    -142.105
tors           6           7           8           9    +123.158
tors           7           8           9          10     +66.316
tors           8           9          10          11    -104.211
tors           9          10          11          12     +28.421
tors          11          12          13          14      -9.474
ENDCONSTRAINT
$end

$rem
JOBTYPE                   OPT
METHOD                    B3LYP
DFT_D                     d3_op
BASIS                     STO-3G
GEOM_OPT_MAX_CYCLES       100
GEOM_OPT_TOL_GRADIENT     300
GEOM_OPT_TOL_DISPLACEMENT 1200
GEOM_OPT_TOL_ENERGY       100
SYMMETRY                  False
THRESH                    12
SCF_CONVERGENCE           8
MAX_SUB_FILE_NUM          128
MEM_STATIC                400
MEM_TOTAL                 4000
$end
--------------------------------------------------------------
 Adding empirical dispersion correction 
 ----------------------------------------------------------------
 Doing -D3(op) with
 s6 =   1.00000
 s8 =   0.78311
 a1 =   0.30000
 a2 =   4.25000
 n  =  10.00000
 -D3 energy without 3body term =     -0.0824907764 hartrees
 ----------------------------------------------------------------
             Standard Nuclear Orientation (Angstroms)
    I     Atom           X                Y                Z
 ----------------------------------------------------------------
    1      O       1.9299543902     1.0945833417     2.4172175193
    2      C       2.4955766663     1.1602487276     1.3351982339
    3      C       3.2979010561     0.0473186473     0.6978168706
    4      C       2.5232493361    -0.9945619670    -0.1257498846
    5      C       1.0577336559    -0.7087212567    -0.3679116183
    6      O       0.3419255422    -1.8702511133    -0.3053518527
    7      C      -1.0597967230    -1.6804237967    -0.5253675811
    8      C      -1.8643936208    -2.5999856453     0.3874060274
    9      O      -2.7659297583    -1.8239262843     1.1922896310
   10      C      -3.7564902350    -1.1925670884     0.5145555152
   11      C      -3.5119769441     0.2897319845     0.3607269882
   12      C      -2.0330927272     0.7027563669     0.3364047091
   13      C      -1.0378031094    -0.4174805654     0.1101824615
   14      O      -1.3015971667    -1.6111986880     0.1124728874
   15      O       2.3993157777     2.3213315640     0.6326593591
   16      O      -0.3160882911    -0.2153871803     1.3651121500
   17      O      -4.4838639701    -1.8064619741    -0.2548127743
   18      C      -0.1093408221    -1.0886796818     2.4396059210
   19      C      -4.0012344284     0.8889395369    -0.9749750801
   20      C      -4.2312869482     2.3905289147    -0.8085073775
   21      C      -2.8039300973     2.8841543986    -0.7154842225
   22      C      -2.0414675424     1.5720866375    -0.9376388169
   23      O      -2.8717206218     0.8447990640    -1.8098532738
   24      H      -4.0628996259     0.7678124096     1.2014233467
   25      H      -1.8105046812     1.3598784626     1.2161005733
   26      H      -4.9234504161     0.4099091600    -1.3688712974
   27      H      -4.6756410778     2.7677761309    -1.7573305585
   28      H      -4.8879905122     2.6738140759     0.0422517561
   29      H      -2.6198914733     3.5829875702    -1.5617460248
   30      H      -2.5294680393     3.3744061068     0.2436509902
   31      H      -1.0215372861     1.7996687413    -1.3107169734
   32      O       0.8600269303     0.2008084996    -1.1911550339
   33      C       1.6406259658     3.4055322909     1.0209430517
   34      C       4.2854464849     0.5510101462    -0.3842105277
   35      C       5.4215315479    -0.4566411330    -0.5691054454
   36      C       4.6964298121    -1.5678434396    -1.2964069678
   37      C       3.3104644243    -0.9361743357    -1.4523942547
   38      O       3.5798365389     0.4365224760    -1.5939276029
   39      H       3.9116486984    -0.3941517195     1.5147637001
   40      H       2.6067494025    -2.0050565168     0.3366925728
   41      H       1.9954463587     3.7921607331     1.9998599161
   42      H       4.7112662940     1.5528932373    -0.1567475827
   43      H       6.1609828154    -0.0024666537    -1.2670304630
   44      H       5.9395188668    -0.7590246817     0.3664425769
   45      H       5.1688215411    -1.7014374836    -2.2951682816
   46      H       4.6574454255    -2.5417753310    -0.7623403812
   47      H       2.7579625636    -1.4169475308    -2.2898783170
   48      H       0.5705446139     3.1134207065     1.0959320197
   49      H       1.7373646696     4.2077443412     0.2610936731
   50      H       0.4395010480    -0.5737784311     3.2487698124
   51      H       0.4802453923    -1.9781199091     2.1393214518
   52      H      -1.0745830934    -1.4032665228     2.8799581691
   53      H      -2.4973966851    -3.3524887415    -0.2204877704
   54      H      -1.3338384028    -3.4243843787     1.0519109295
   55      H      -0.9862880730    -2.4522981090    -1.5821903298
   56      H      -1.3577578041    -1.4592057572    -1.8133995905
 ----------------------------------------------------------------
 Molecular Point Group                 C1    NOp =  1
 Largest Abelian Subgroup              C1    NOp =  1
 Nuclear Repulsion Energy =  3617.8754577363 hartrees
 There are      113 alpha and      113 beta electrons
 Requested basis set is STO-3G
 There are 86 shells and 176 basis functions

 Total QAlloc Memory Limit   4000 MB
 Mega-Array Size       392 MB
 MEM_STATIC part       400 MB
 A cutoff of  1.0D-12 yielded   2668 shell pairs
 There are     12739 function pairs
 
 -------------------------------------------------------
 OpenMP Integral Computing Module                       
 Release: version 1.0, May 2013, Q-Chem Inc. Pittsburgh 
 -------------------------------------------------------
 Integral Job Info:
 Integral job number is                      11
 Integral operator is                         1
 short-range coefficients                     0
 long-range coefficients              100000000
 Omega coefficients                           0
 if combine SR and LR in K                    0
 Integral screening is                        0
 Integral computing path is                   2
 max size of driver memory is            800000
 size of driver memory is                 45569
 size of scratch memory is              1046100
 max col of scratch BK array                289
 max len of scratch array in speh3           22
 max len of scratch index in speh4            8
 max int batch size is                      520
 min int batch size is                       52
 fixed nKL is                                52
 max L of basis functions is                  1
 order of int derivative is                   0
 number of shells is                         86
 number of basis is                         176
 number of cartesian basis is               176
 number of contracted shell pairs          2668
 number of primitive shell pairs          13511
 maxK2 (contraction) of shell pair            9
 max number of K2 of shell pair               1
 max number of CS2 of shell pair            400
 max number of PS2 of shell pair           1650
 mem total for path MDJ                   65514
 -------------------------------------------------------
 Smallest overlap matrix eigenvalue = 2.41E-02

 Scale SEOQF with 1.000000e-02/1.000000e-01/1.000000e-01

 Standard Electronic Orientation quadrupole field applied
 Nucleus-field energy     =     0.0000000168 hartrees
 Guess from superposition of atomic densities
 Warning:  Energy on first SCF cycle will be non-variational
 A restricted hybrid HF-DFT SCF calculation will be
 performed using Pulay DIIS extrapolation
 Exchange:     0.2000 Hartree-Fock + 0.0800 Slater + 0.7200 B88
 Correlation:  0.1900 VWN1RPA + 0.8100 LYP
 Using SG-1 standard quadrature grid
 Dispersion:   Grimme D3
 SCF converges when DIIS error is below 1.0E-08
 using 48 threads for integral computing
 -------------------------------------------------------
 OpenMP Integral computing Module                
 Release: version 1.0, May 2013, Q-Chem Inc. Pittsburgh 
 -------------------------------------------------------
 -------------------------------------------------------
 OpenMP BLAS3 based DFT computing Module                
 Release: version 1.0, May 2013, Q-Chem Inc. Pittsburgh 
 -------------------------------------------------------
 ---------------------------------------
  Cycle       Energy         DIIS Error
 ---------------------------------------
    1   -1512.1123415460      1.13E-01
    2   -1505.8475987350      1.16E-02
    3   -1497.3050654983      3.51E-02
    4   -1504.6631549991      1.25E-02
    5   -1506.5249098310      2.88E-03
    6   -1506.5377704274      2.53E-03
    7   -1506.5679674761      6.54E-04
    8   -1506.5704368068      2.89E-04
    9   -1506.5708283603      1.01E-04
   10   -1506.5708657214      5.97E-05
   11   -1506.5708809236      3.15E-05
   12   -1506.5708851164      2.05E-05
   13   -1506.5708871886      6.02E-06
   14   -1506.5708873740      2.91E-06
   15   -1506.5708874157      1.09E-06
   16   -1506.5708874229      2.24E-07
   17   -1506.5708874232      1.16E-07
   18   -1506.5708874233      3.54E-08
   19   -1506.5708874232      1.68E-08
   20   -1506.5708874231      4.73E-09 Convergence criterion met
 ---------------------------------------
 SCF time:  CPU 170.25 s  wall 3.60 s
 SCF   energy in the final basis set = -1506.57088742
 Total energy in the final basis set = -1506.57088742
 
 --------------------------------------------------------------
 
                    Orbital Energies (a.u.)
 --------------------------------------------------------------
 
 Alpha MOs
 -- Occupied --
-19.561 -18.917 -18.892 -18.887 -18.885 -18.876 -18.859 -18.843
-18.840 -18.807 -10.538 -10.205 -10.111 -10.097 -10.093 -10.071
-10.068 -10.065 -10.061 -10.054 -10.053 -10.052 -10.041 -10.030
-10.024 -10.013 -10.010 -10.009 -10.006 -10.005  -1.717  -1.244
 -1.086  -1.049  -1.029  -1.020  -1.009  -0.986  -0.954  -0.942
 -0.932  -0.865  -0.838  -0.781  -0.765  -0.739  -0.728  -0.717
 -0.709  -0.668  -0.664  -0.658  -0.628  -0.595  -0.585  -0.553
 -0.536  -0.530  -0.524  -0.518  -0.508  -0.482  -0.477  -0.468
 -0.464  -0.445  -0.442  -0.437  -0.435  -0.426  -0.419  -0.412
 -0.408  -0.406  -0.403  -0.389  -0.380  -0.366  -0.362  -0.360
 -0.353  -0.341  -0.338  -0.332  -0.325  -0.320  -0.317  -0.307
 -0.303  -0.299  -0.295  -0.293  -0.284  -0.277  -0.271  -0.266
 -0.249  -0.233  -0.222  -0.220  -0.211  -0.199  -0.180  -0.168
 -0.158  -0.156  -0.148  -0.143  -0.139  -0.132  -0.126  -0.103
 -0.018
 -- Virtual --
  0.068   0.106   0.129   0.130   0.175   0.201   0.251   0.262
  0.266   0.274   0.291   0.316   0.332   0.345   0.345   0.353
  0.360   0.361   0.369   0.387   0.389   0.392   0.395   0.396
  0.406   0.412   0.414   0.416   0.420   0.425   0.430   0.433
  0.436   0.440   0.447   0.451   0.452   0.461   0.466   0.469
  0.475   0.479   0.480   0.485   0.489   0.495   0.499   0.502
  0.520   0.528   0.537   0.540   0.546   0.551   0.572   0.574
  0.593   0.597   0.616   0.685   0.696   0.708   1.859
 --------------------------------------------------------------
 
          Ground-State Mulliken Net Atomic Charges

     Atom                 Charge (a.u.)
  ----------------------------------------
      1 O                    -0.243719
      2 C                     0.240811
      3 C                    -0.082454
      4 C                    -0.078296
      5 C                     0.212343
      6 O                    -0.273036
      7 C                     0.618815
      8 C                     0.125370
      9 O                    -0.252710
     10 C                     0.187558
     11 C                    -0.097037
     12 C                    -0.061951
     13 C                     0.179508
     14 O                    -0.652945
     15 O                    -0.206841
     16 O                    -0.235230
     17 O                    -0.233500
     18 C                    -0.122426
     19 C                     0.035462
     20 C                    -0.142350
     21 C                    -0.145344
     22 C                     0.038876
     23 O                    -0.215547
     24 H                     0.083987
     25 H                     0.100116
     26 H                     0.089718
     27 H                     0.074179
     28 H                     0.070112
     29 H                     0.075530
     30 H                     0.068461
     31 H                     0.102503
     32 O                    -0.241538
     33 C                    -0.095641
     34 C                     0.042520
     35 C                    -0.143502
     36 C                    -0.144536
     37 C                     0.043083
     38 O                    -0.203944
     39 H                     0.081588
     40 H                     0.068605
     41 H                     0.081867
     42 H                     0.082641
     43 H                     0.072453
     44 H                     0.068221
     45 H                     0.072984
     46 H                     0.068997
     47 H                     0.080534
     48 H                     0.084854
     49 H                     0.093280
     50 H                     0.109880
     51 H                     0.069174
     52 H                     0.076612
     53 H                     0.104851
     54 H                     0.130177
     55 H                     0.192527
     56 H                    -0.055653
  ----------------------------------------
  Sum of atomic charges =    -0.000000

 -----------------------------------------------------------------
                    Cartesian Multipole Moments
 -----------------------------------------------------------------
    Charge (ESU x 10^10)
                -0.0000
    Dipole Moment (Debye)
         X      -0.0313      Y      -1.9015      Z       2.0167
       Tot       2.7720
    Quadrupole Moments (Debye-Ang)
        XX    -162.1159     XY      -7.2358     YY    -145.8258
        XZ      -0.4534     YZ       2.7182     ZZ    -167.8846
    Octopole Moments (Debye-Ang^2)
       XXX      67.7699    XXY      29.5610    XYY      -2.2865
       YYY      -9.6428    XXZ      20.7827    XYZ       4.1682
       YYZ       4.6010    XZZ      -5.0967    YZZ     -15.3134
       ZZZ       4.8278
    Hexadecapole Moments (Debye-Ang^3)
      XXXX   -8587.4430   XXXY    -107.2125   XXYY   -1898.8523
      XYYY     165.3103   YYYY   -2489.0757   XXXZ      -5.2368
      XXYZ      15.6996   XYYZ      26.8227   YYYZ       8.9880
      XXZZ   -1664.3672   XYZZ       7.0430   YYZZ    -642.1490
      XZZZ     -20.3974   YZZZ       1.7928   ZZZZ   -1385.1094
 -----------------------------------------------------------------
 Calculating analytic gradient of the SCF energy
 Gradient of SCF Energy
            1           2           3           4           5           6
    1   0.0266753   0.0209029  -0.0357392  -0.0153826  -0.0637118  -0.1965413
    2   0.0170871  -0.0072164   0.0016747   0.0536279   0.0050788   0.0953660
    3  -0.0670579  -0.0132775  -0.0152936  -0.0579259   0.0531568   0.0496038
            7           8           9          10          11          12
    1  -3.0342300   0.2300705   0.0885145  -0.0100004   0.0332818   0.0293117
    2   1.0565112   0.5453176  -0.0025189  -0.0070934  -0.0272790  -0.0318350
    3   7.6224667  -0.2192824  -0.1611260   0.0266734  -0.0453940  -0.0022370
           13          14          15          16          17          18
    1  -0.0108653   2.8825557  -0.0674097  -0.0595998   0.0600892   0.0120148
    2  -0.5272236  -0.9214540   0.0141418  -0.0946259   0.0411363   0.0421536
    3  -0.2565624  -7.1078453   0.1016404  -0.0047234   0.0401276  -0.0086392
           19          20          21          22          23          24
    1   0.0726919   0.0448742  -0.0162515  -0.0600845  -0.0154346  -0.0085745
    2   0.0160383  -0.0280493  -0.0446267  -0.0387075   0.0381905  -0.0048816
    3  -0.0096339  -0.0002517  -0.0082736  -0.0024964   0.0766094   0.0033192
           25          26          27          28          29          30
    1  -0.0096932  -0.0103776   0.0026653  -0.0045104  -0.0061734   0.0034471
    2   0.0190785   0.0090882   0.0018356   0.0032635   0.0031729   0.0018842
    3   0.0054454   0.0050625  -0.0110694   0.0062561  -0.0111105   0.0075483
           31          32          33          34          35          36
    1   0.0002663   0.0269107   0.0365534  -0.0374557  -0.0504584  -0.0167565
    2   0.0146210  -0.0566376  -0.0279303  -0.0440634  -0.0031050   0.0449663
    3   0.0065152   0.0203613  -0.0343383  -0.0431180  -0.0123426   0.0141151
           37          38          39          40          41          42
    1   0.0334388   0.0204183   0.0111429  -0.0017462   0.0063697   0.0118060
    2   0.0548906  -0.0574228   0.0032389  -0.0065148  -0.0056904  -0.0022850
    3   0.0309700   0.0617919   0.0024712   0.0012882  -0.0041981   0.0084730
           43          44          45          46          47          48
    1   0.0011602   0.0043771   0.0078413  -0.0028162   0.0020042   0.0040744
    2   0.0030579  -0.0027177   0.0068351  -0.0067821  -0.0132601  -0.0059007
    3  -0.0112055   0.0063204  -0.0074021   0.0043740   0.0011723  -0.0048944
           49          50          51          52          53          54
    1  -0.0021859  -0.0059804  -0.0011188   0.0056774   0.0208196   0.0003891
    2   0.0025074  -0.0098365   0.0086391   0.0097183  -0.0262296  -0.0479984
    3   0.0013052   0.0065331  -0.0031363  -0.0022080   0.0106797   0.0195743
           55          56
    1   0.0137120   0.0290417
    2   0.0238188  -0.0850540
    3  -0.0872728   0.0184614
 Max gradient component =       7.622E+00
 RMS gradient           =       8.765E-01
 Gradient time:  CPU 40.91 s  wall 0.88 s
 Geometry Optimization Parameters
   NAtoms,    NIC,     NZ,  NCons,   NDum,   NFix, NCnnct, MaxDiis
       56     591       0       9       0       0       0       0


** CONSTRAINED OPTIMIZATION IN DELOCALIZED INTERNAL COORDINATES **
   Searching for a Minimum

   Optimization Cycle:   1

                       Coordinates (Angstroms)
     ATOM                X               Y               Z
      1  O         1.9299543902    1.0945833417    2.4172175193
      2  C         2.4955766663    1.1602487276    1.3351982339
      3  C         3.2979010561    0.0473186473    0.6978168706
      4  C         2.5232493361   -0.9945619670   -0.1257498846
      5  C         1.0577336559   -0.7087212567   -0.3679116183
      6  O         0.3419255422   -1.8702511133   -0.3053518527
      7  C        -1.0597967230   -1.6804237967   -0.5253675811
      8  C        -1.8643936208   -2.5999856453    0.3874060274
      9  O        -2.7659297583   -1.8239262843    1.1922896310
     10  C        -3.7564902350   -1.1925670884    0.5145555152
     11  C        -3.5119769441    0.2897319845    0.3607269882
     12  C        -2.0330927272    0.7027563669    0.3364047091
     13  C        -1.0378031094   -0.4174805654    0.1101824615
     14  O        -1.3015971667   -1.6111986880    0.1124728874
     15  O         2.3993157777    2.3213315640    0.6326593591
     16  O        -0.3160882911   -0.2153871803    1.3651121500
     17  O        -4.4838639701   -1.8064619741   -0.2548127743
     18  C        -0.1093408221   -1.0886796818    2.4396059210
     19  C        -4.0012344284    0.8889395369   -0.9749750801
     20  C        -4.2312869482    2.3905289147   -0.8085073775
     21  C        -2.8039300973    2.8841543986   -0.7154842225
     22  C        -2.0414675424    1.5720866375   -0.9376388169
     23  O        -2.8717206218    0.8447990640   -1.8098532738
     24  H        -4.0628996259    0.7678124096    1.2014233467
     25  H        -1.8105046812    1.3598784626    1.2161005733
     26  H        -4.9234504161    0.4099091600   -1.3688712974
     27  H        -4.6756410778    2.7677761309   -1.7573305585
     28  H        -4.8879905122    2.6738140759    0.0422517561
     29  H        -2.6198914733    3.5829875702   -1.5617460248
     30  H        -2.5294680393    3.3744061068    0.2436509902
     31  H        -1.0215372861    1.7996687413   -1.3107169734
     32  O         0.8600269303    0.2008084996   -1.1911550339
     33  C         1.6406259658    3.4055322909    1.0209430517
     34  C         4.2854464849    0.5510101462   -0.3842105277
     35  C         5.4215315479   -0.4566411330   -0.5691054454
     36  C         4.6964298121   -1.5678434396   -1.2964069678
     37  C         3.3104644243   -0.9361743357   -1.4523942547
     38  O         3.5798365389    0.4365224760   -1.5939276029
     39  H         3.9116486984   -0.3941517195    1.5147637001
     40  H         2.6067494025   -2.0050565168    0.3366925728
     41  H         1.9954463587    3.7921607331    1.9998599161
     42  H         4.7112662940    1.5528932373   -0.1567475827
     43  H         6.1609828154   -0.0024666537   -1.2670304630
     44  H         5.9395188668   -0.7590246817    0.3664425769
     45  H         5.1688215411   -1.7014374836   -2.2951682816
     46  H         4.6574454255   -2.5417753310   -0.7623403812
     47  H         2.7579625636   -1.4169475308   -2.2898783170
     48  H         0.5705446139    3.1134207065    1.0959320197
     49  H         1.7373646696    4.2077443412    0.2610936731
     50  H         0.4395010480   -0.5737784311    3.2487698124
     51  H         0.4802453923   -1.9781199091    2.1393214518
     52  H        -1.0745830934   -1.4032665228    2.8799581691
     53  H        -2.4973966851   -3.3524887415   -0.2204877704
     54  H        -1.3338384028   -3.4243843787    1.0519109295
     55  H        -0.9862880730   -2.4522981090   -1.5821903298
     56  H        -1.3577578041   -1.4592057572   -1.8133995905
   Point Group: c1    Number of degrees of freedom:   162


   Energy is  -1506.570887423

              Constraints and their Current Values
                                        Value     Constraint
   Dihedral:        1   2   3   4       85.263       85.263
   Dihedral:        3   4   5   6     -142.105     -142.105
   Dihedral:        4   5   6   7     -180.000     -180.000
   Dihedral:        5   6   7   8     -142.105     -142.105
   Dihedral:        6   7   8   9      123.158      123.158
   Dihedral:        7   8   9  10       66.316       66.316
   Dihedral:        8   9  10  11     -104.211     -104.211
   Dihedral:        9  10  11  12       28.421       28.421
   Dihedral:       11  12  13  14       -9.474       -9.474

 Attempting to Generate Delocalized Internal Coordinates

   Using Lagrange Multiplier Algorithm


171 Hessian modes will be used to form the next step
  Hessian Eigenvalues:
    -0.977753   -0.977753   -0.977753   -0.977753   -0.977753   -0.977753
    -0.977753   -0.977753   -0.977753    0.045000    0.045000    0.045000
     0.045000    0.045000    0.045563    0.046774    0.047428    0.048882
     0.049149    0.050538    0.050966    0.051494    0.052134    0.052779
     0.058700    0.059510    0.060032    0.060225    0.061824    0.062617
     0.066287    0.066948    0.067042    0.068160    0.070633    0.072037
     0.073328    0.073717    0.075666    0.075831    0.076984    0.079003
     0.080423    0.081494    0.082486    0.083841    0.084055    0.084665
     0.085217    0.085572    0.086310    0.086718    0.087606    0.088471
     0.089058    0.089152    0.089590    0.089760    0.090184    0.091545
     0.093766    0.093948    0.096602    0.096609    0.096786    0.101191
     0.105992    0.111105    0.111577    0.111583    0.112283    0.112286
     0.114661    0.115029    0.115941    0.117240    0.118347    0.118776
     0.122994    0.127464    0.130889    0.140098    0.157873    0.160000
     0.160000    0.160000    0.160000    0.160000    0.160000    0.161644
     0.167131    0.168821    0.171585    0.172402    0.180716    0.186715
     0.188517    0.194607    0.212068    0.221874    0.235485    0.238217
     0.239522    0.249998    0.250000    0.250000    0.250000    0.250000
     0.258437    0.258469    0.266517    0.267110    0.268120    0.275844
     0.279849    0.279856    0.280152    0.281716    0.282069    0.295107
     0.295603    0.302709    0.310698    0.310865    0.315267    0.321368
     0.322192    0.322253    0.322743    0.322808    0.322959    0.323019
     0.323309    0.323756    0.324136    0.324330    0.324479    0.324484
     0.324571    0.324623    0.325259    0.326411    0.326873    0.327539
     0.329625    0.331317    0.367525    0.368830    0.370028    0.378920
     0.385575    0.456252    0.473288    0.492706    0.517896    0.527289
     0.528481    0.551997    0.860308    0.936873    0.941950    1.022753
     1.022753    1.022753    1.022753    1.022753    1.022753    1.022753
     1.022753    1.022753   34.781596
**WARNING** Magnitude of eigenvalue 171 too large.  Replaced by    25.000000

 Minimum Search - Taking P-RFO Step
 Searching for Lamda that Maximizes Along the Constraint modes Only
 Value Taken    Lamda =   3.35810337


 ********************************************
 ** ERROR IN DETERMINING Lamda IN CONFormD **
 ********************************************



 New Cartesian Coordinates Obtained by Inverse Iteration

 Displacement from previous Coordinates is:  0.000000
 Adding empirical dispersion correction 
 ----------------------------------------------------------------
 Doing -D3(op) with
 s6 =   1.00000
 s8 =   0.78311
 a1 =   0.30000
 a2 =   4.25000
 n  =  10.00000
 -D3 energy without 3body term =     -0.0824907764 hartrees
 ----------------------------------------------------------------
             Standard Nuclear Orientation (Angstroms)
    I     Atom           X                Y                Z
 ----------------------------------------------------------------
    1      O       1.9299543902     1.0945833417     2.4172175193
    2      C       2.4955766663     1.1602487276     1.3351982339
    3      C       3.2979010561     0.0473186473     0.6978168706
    4      C       2.5232493361    -0.9945619670    -0.1257498846
    5      C       1.0577336559    -0.7087212567    -0.3679116183
    6      O       0.3419255422    -1.8702511133    -0.3053518527
    7      C      -1.0597967230    -1.6804237967    -0.5253675811
    8      C      -1.8643936208    -2.5999856453     0.3874060274
    9      O      -2.7659297583    -1.8239262843     1.1922896310
   10      C      -3.7564902350    -1.1925670884     0.5145555152
   11      C      -3.5119769441     0.2897319845     0.3607269882
   12      C      -2.0330927272     0.7027563669     0.3364047091
   13      C      -1.0378031094    -0.4174805654     0.1101824615
   14      O      -1.3015971667    -1.6111986880     0.1124728874
   15      O       2.3993157777     2.3213315640     0.6326593591
   16      O      -0.3160882911    -0.2153871803     1.3651121500
   17      O      -4.4838639701    -1.8064619741    -0.2548127743
   18      C      -0.1093408221    -1.0886796818     2.4396059210
   19      C      -4.0012344284     0.8889395369    -0.9749750801
   20      C      -4.2312869482     2.3905289147    -0.8085073775
   21      C      -2.8039300973     2.8841543986    -0.7154842225
   22      C      -2.0414675424     1.5720866375    -0.9376388169
   23      O      -2.8717206218     0.8447990640    -1.8098532738
   24      H      -4.0628996259     0.7678124096     1.2014233467
   25      H      -1.8105046812     1.3598784626     1.2161005733
   26      H      -4.9234504161     0.4099091600    -1.3688712974
   27      H      -4.6756410778     2.7677761309    -1.7573305585
   28      H      -4.8879905122     2.6738140759     0.0422517561
   29      H      -2.6198914733     3.5829875702    -1.5617460248
   30      H      -2.5294680393     3.3744061068     0.2436509902
   31      H      -1.0215372861     1.7996687413    -1.3107169734
   32      O       0.8600269303     0.2008084996    -1.1911550339
   33      C       1.6406259658     3.4055322909     1.0209430517
   34      C       4.2854464849     0.5510101462    -0.3842105277
   35      C       5.4215315479    -0.4566411330    -0.5691054454
   36      C       4.6964298121    -1.5678434396    -1.2964069678
   37      C       3.3104644243    -0.9361743357    -1.4523942547
   38      O       3.5798365389     0.4365224760    -1.5939276029
   39      H       3.9116486984    -0.3941517195     1.5147637001
   40      H       2.6067494025    -2.0050565168     0.3366925728
   41      H       1.9954463587     3.7921607331     1.9998599161
   42      H       4.7112662940     1.5528932373    -0.1567475827
   43      H       6.1609828154    -0.0024666537    -1.2670304630
   44      H       5.9395188668    -0.7590246817     0.3664425769
   45      H       5.1688215411    -1.7014374836    -2.2951682816
   46      H       4.6574454255    -2.5417753310    -0.7623403812
   47      H       2.7579625636    -1.4169475308    -2.2898783170
   48      H       0.5705446139     3.1134207065     1.0959320197
   49      H       1.7373646696     4.2077443412     0.2610936731
   50      H       0.4395010480    -0.5737784311     3.2487698124
   51      H       0.4802453923    -1.9781199091     2.1393214518
   52      H      -1.0745830934    -1.4032665228     2.8799581691
   53      H      -2.4973966851    -3.3524887415    -0.2204877704
   54      H      -1.3338384028    -3.4243843787     1.0519109295
   55      H      -0.9862880730    -2.4522981090    -1.5821903298
   56      H      -1.3577578041    -1.4592057572    -1.8133995905
 ----------------------------------------------------------------
 Molecular Point Group                 C1    NOp =  1
 Largest Abelian Subgroup              C1    NOp =  1
 Nuclear Repulsion Energy =  3617.8754577363 hartrees
 There are      113 alpha and      113 beta electrons
 Applying Cartesian multipole field
    Component          Value
    ---------          -----
     (2,0,0)        1.00000E-12
     (0,2,0)        2.00000E-11
     (0,0,2)       -3.00000E-11
 Nucleus-field energy     =     0.0000000168 hartrees
 Requested basis set is STO-3G
 There are 86 shells and 176 basis functions
 A cutoff of  1.0D-12 yielded   2668 shell pairs
 There are     12739 function pairs
 Smallest overlap matrix eigenvalue = 2.41E-02
 Guess MOs from SCF MO coefficient file
 Reading MOs from coefficient file
 Reading MOs from coefficient file
 A restricted hybrid HF-DFT SCF calculation will be
 performed using Pulay DIIS extrapolation
 Exchange:     0.2000 Hartree-Fock + 0.0800 Slater + 0.7200 B88
 Correlation:  0.1900 VWN1RPA + 0.8100 LYP
 Using SG-1 standard quadrature grid
 Dispersion:   Grimme D3
 SCF converges when DIIS error is below 1.0E-08
 Geometry optimization detected.  Setting ReadMinima to 0
 Setting SaveMinima to 0
 using 48 threads for integral computing
 -------------------------------------------------------
 OpenMP Integral computing Module                
 Release: version 1.0, May 2013, Q-Chem Inc. Pittsburgh 
 -------------------------------------------------------
 -------------------------------------------------------
 OpenMP BLAS3 based DFT computing Module                
 Release: version 1.0, May 2013, Q-Chem Inc. Pittsburgh 
 -------------------------------------------------------
 ---------------------------------------
  Cycle       Energy         DIIS Error
 ---------------------------------------
    1   -1506.5708874233      1.59E-09
    2   -1506.5708874233      2.43E-09 Convergence criterion met
 ---------------------------------------
 SCF time:  CPU 17.81 s  wall 0.37 s
 SCF   energy in the final basis set = -1506.57088742
 Total energy in the final basis set = -1506.57088742
 
 --------------------------------------------------------------
 
                    Orbital Energies (a.u.)
 --------------------------------------------------------------
 
 Alpha MOs
 -- Occupied --
-19.561 -18.917 -18.892 -18.887 -18.885 -18.876 -18.859 -18.843
-18.840 -18.807 -10.538 -10.205 -10.111 -10.097 -10.093 -10.071
-10.068 -10.065 -10.061 -10.054 -10.053 -10.052 -10.041 -10.030
-10.024 -10.013 -10.010 -10.009 -10.006 -10.005  -1.717  -1.244
 -1.086  -1.049  -1.029  -1.020  -1.009  -0.986  -0.954  -0.942
 -0.932  -0.865  -0.838  -0.781  -0.765  -0.739  -0.728  -0.717
 -0.709  -0.668  -0.664  -0.658  -0.628  -0.595  -0.585  -0.553
 -0.536  -0.530  -0.524  -0.518  -0.508  -0.482  -0.477  -0.468
 -0.464  -0.445  -0.442  -0.437  -0.435  -0.426  -0.419  -0.412
 -0.408  -0.406  -0.403  -0.389  -0.380  -0.366  -0.362  -0.360
 -0.353  -0.341  -0.338  -0.332  -0.325  -0.320  -0.317  -0.307
 -0.303  -0.299  -0.295  -0.293  -0.284  -0.277  -0.271  -0.266
 -0.249  -0.233  -0.222  -0.220  -0.211  -0.199  -0.180  -0.168
 -0.158  -0.156  -0.148  -0.143  -0.139  -0.132  -0.126  -0.103
 -0.018
 -- Virtual --
  0.068   0.106   0.129   0.130   0.175   0.201   0.251   0.262
  0.266   0.274   0.291   0.316   0.332   0.345   0.345   0.353
  0.360   0.361   0.369   0.387   0.389   0.392   0.395   0.396
  0.406   0.412   0.414   0.416   0.420   0.425   0.430   0.433
  0.436   0.440   0.447   0.451   0.452   0.461   0.466   0.469
  0.475   0.479   0.480   0.485   0.489   0.495   0.499   0.502
  0.520   0.528   0.537   0.540   0.546   0.551   0.572   0.574
  0.593   0.597   0.616   0.685   0.696   0.708   1.859
 --------------------------------------------------------------
 
          Ground-State Mulliken Net Atomic Charges

     Atom                 Charge (a.u.)
  ----------------------------------------
      1 O                    -0.243719
      2 C                     0.240810
      3 C                    -0.082454
      4 C                    -0.078296
      5 C                     0.212343
      6 O                    -0.273036
      7 C                     0.618815
      8 C                     0.125370
      9 O                    -0.252710
     10 C                     0.187558
     11 C                    -0.097037
     12 C                    -0.061951
     13 C                     0.179508
     14 O                    -0.652945
     15 O                    -0.206841
     16 O                    -0.235230
     17 O                    -0.233500
     18 C                    -0.122426
     19 C                     0.035462
     20 C                    -0.142350
     21 C                    -0.145344
     22 C                     0.038876
     23 O                    -0.215547
     24 H                     0.083987
     25 H                     0.100116
     26 H                     0.089718
     27 H                     0.074179
     28 H                     0.070112
     29 H                     0.075530
     30 H                     0.068461
     31 H                     0.102503
     32 O                    -0.241538
     33 C                    -0.095641
     34 C                     0.042520
     35 C                    -0.143503
     36 C                    -0.144536
     37 C                     0.043083
     38 O                    -0.203944
     39 H                     0.081588
     40 H                     0.068605
     41 H                     0.081867
     42 H                     0.082641
     43 H                     0.072453
     44 H                     0.068221
     45 H                     0.072984
     46 H                     0.068997
     47 H                     0.080534
     48 H                     0.084854
     49 H                     0.093280
     50 H                     0.109880
     51 H                     0.069174
     52 H                     0.076612
     53 H                     0.104851
     54 H                     0.130177
     55 H                     0.192527
     56 H                    -0.055653
  ----------------------------------------
  Sum of atomic charges =    -0.000000

 -----------------------------------------------------------------
                    Cartesian Multipole Moments
 -----------------------------------------------------------------
    Charge (ESU x 10^10)
                -0.0000
    Dipole Moment (Debye)
         X      -0.0313      Y      -1.9015      Z       2.0167
       Tot       2.7720
    Quadrupole Moments (Debye-Ang)
        XX    -162.1159     XY      -7.2358     YY    -145.8258
        XZ      -0.4534     YZ       2.7182     ZZ    -167.8846
    Octopole Moments (Debye-Ang^2)
       XXX      67.7699    XXY      29.5610    XYY      -2.2865
       YYY      -9.6428    XXZ      20.7827    XYZ       4.1682
       YYZ       4.6010    XZZ      -5.0967    YZZ     -15.3134
       ZZZ       4.8278
    Hexadecapole Moments (Debye-Ang^3)
      XXXX   -8587.4431   XXXY    -107.2125   XXYY   -1898.8523
      XYYY     165.3103   YYYY   -2489.0757   XXXZ      -5.2368
      XXYZ      15.6996   XYYZ      26.8227   YYYZ       8.9880
      XXZZ   -1664.3672   XYZZ       7.0430   YYZZ    -642.1490
      XZZZ     -20.3974   YZZZ       1.7928   ZZZZ   -1385.1094
 -----------------------------------------------------------------
 Calculating analytic gradient of the SCF energy
 Gradient of SCF Energy
            1           2           3           4           5           6
    1   0.0266753   0.0209029  -0.0357392  -0.0153826  -0.0637118  -0.1965413
    2   0.0170871  -0.0072164   0.0016747   0.0536279   0.0050788   0.0953660
    3  -0.0670579  -0.0132775  -0.0152936  -0.0579259   0.0531568   0.0496038
            7           8           9          10          11          12
    1  -3.0342301   0.2300705   0.0885145  -0.0100004   0.0332818   0.0293117
    2   1.0565112   0.5453176  -0.0025189  -0.0070934  -0.0272790  -0.0318350
    3   7.6224668  -0.2192824  -0.1611260   0.0266734  -0.0453940  -0.0022370
           13          14          15          16          17          18
    1  -0.0108653   2.8825557  -0.0674097  -0.0595998   0.0600892   0.0120148
    2  -0.5272236  -0.9214541   0.0141418  -0.0946259   0.0411364   0.0421536
    3  -0.2565625  -7.1078453   0.1016404  -0.0047234   0.0401276  -0.0086392
           19          20          21          22          23          24
    1   0.0726919   0.0448742  -0.0162515  -0.0600845  -0.0154347  -0.0085745
    2   0.0160383  -0.0280493  -0.0446267  -0.0387075   0.0381905  -0.0048816
    3  -0.0096339  -0.0002517  -0.0082736  -0.0024964   0.0766094   0.0033192
           25          26          27          28          29          30
    1  -0.0096932  -0.0103776   0.0026653  -0.0045104  -0.0061734   0.0034471
    2   0.0190785   0.0090882   0.0018356   0.0032635   0.0031729   0.0018842
    3   0.0054454   0.0050625  -0.0110694   0.0062561  -0.0111105   0.0075483
           31          32          33          34          35          36
    1   0.0002663   0.0269107   0.0365534  -0.0374557  -0.0504584  -0.0167565
    2   0.0146210  -0.0566376  -0.0279303  -0.0440634  -0.0031050   0.0449663
    3   0.0065152   0.0203613  -0.0343383  -0.0431180  -0.0123426   0.0141151
           37          38          39          40          41          42
    1   0.0334388   0.0204183   0.0111429  -0.0017462   0.0063697   0.0118060
    2   0.0548905  -0.0574228   0.0032389  -0.0065148  -0.0056904  -0.0022850
    3   0.0309700   0.0617919   0.0024712   0.0012882  -0.0041981   0.0084730
           43          44          45          46          47          48
    1   0.0011602   0.0043771   0.0078413  -0.0028162   0.0020042   0.0040744
    2   0.0030579  -0.0027177   0.0068351  -0.0067821  -0.0132601  -0.0059007
    3  -0.0112055   0.0063204  -0.0074021   0.0043740   0.0011723  -0.0048944
           49          50          51          52          53          54
    1  -0.0021859  -0.0059804  -0.0011188   0.0056774   0.0208196   0.0003891
    2   0.0025074  -0.0098365   0.0086391   0.0097183  -0.0262296  -0.0479984
    3   0.0013052   0.0065331  -0.0031363  -0.0022080   0.0106797   0.0195743
           55          56
    1   0.0137120   0.0290417
    2   0.0238189  -0.0850540
    3  -0.0872728   0.0184614
 Max gradient component =       7.622E+00
 RMS gradient           =       8.765E-01
 Gradient time:  CPU 37.75 s  wall 0.79 s
 Geometry Optimization Parameters
   NAtoms,    NIC,     NZ,  NCons,   NDum,   NFix, NCnnct, MaxDiis
       56     591       0       9       0       0       0       0

 Cartesian Hessian Update
 Hessian Updated using BFGS Update
**WARNING** Hereditary positive definiteness endangered
**WARNING** Small Scalar Product
 Hessian Update Skipped this cycle


** CONSTRAINED OPTIMIZATION IN DELOCALIZED INTERNAL COORDINATES **
   Searching for a Minimum

   Optimization Cycle:   2

                       Coordinates (Angstroms)
     ATOM                X               Y               Z
      1  O         1.9299543902    1.0945833417    2.4172175193
      2  C         2.4955766663    1.1602487276    1.3351982339
      3  C         3.2979010561    0.0473186473    0.6978168706
      4  C         2.5232493361   -0.9945619670   -0.1257498846
      5  C         1.0577336559   -0.7087212567   -0.3679116183
      6  O         0.3419255422   -1.8702511133   -0.3053518527
      7  C        -1.0597967230   -1.6804237967   -0.5253675811
      8  C        -1.8643936208   -2.5999856453    0.3874060274
      9  O        -2.7659297583   -1.8239262843    1.1922896310
     10  C        -3.7564902350   -1.1925670884    0.5145555152
     11  C        -3.5119769441    0.2897319845    0.3607269882
     12  C        -2.0330927272    0.7027563669    0.3364047091
     13  C        -1.0378031094   -0.4174805654    0.1101824615
     14  O        -1.3015971667   -1.6111986880    0.1124728874
     15  O         2.3993157777    2.3213315640    0.6326593591
     16  O        -0.3160882911   -0.2153871803    1.3651121500
     17  O        -4.4838639701   -1.8064619741   -0.2548127743
     18  C        -0.1093408221   -1.0886796818    2.4396059210
     19  C        -4.0012344284    0.8889395369   -0.9749750801
     20  C        -4.2312869482    2.3905289147   -0.8085073775
     21  C        -2.8039300973    2.8841543986   -0.7154842225
     22  C        -2.0414675424    1.5720866375   -0.9376388169
     23  O        -2.8717206218    0.8447990640   -1.8098532738
     24  H        -4.0628996259    0.7678124096    1.2014233467
     25  H        -1.8105046812    1.3598784626    1.2161005733
     26  H        -4.9234504161    0.4099091600   -1.3688712974
     27  H        -4.6756410778    2.7677761309   -1.7573305585
     28  H        -4.8879905122    2.6738140759    0.0422517561
     29  H        -2.6198914733    3.5829875702   -1.5617460248
     30  H        -2.5294680393    3.3744061068    0.2436509902
     31  H        -1.0215372861    1.7996687413   -1.3107169734
     32  O         0.8600269303    0.2008084996   -1.1911550339
     33  C         1.6406259658    3.4055322909    1.0209430517
     34  C         4.2854464849    0.5510101462   -0.3842105277
     35  C         5.4215315479   -0.4566411330   -0.5691054454
     36  C         4.6964298121   -1.5678434396   -1.2964069678
     37  C         3.3104644243   -0.9361743357   -1.4523942547
     38  O         3.5798365389    0.4365224760   -1.5939276029
     39  H         3.9116486984   -0.3941517195    1.5147637001
     40  H         2.6067494025   -2.0050565168    0.3366925728
     41  H         1.9954463587    3.7921607331    1.9998599161
     42  H         4.7112662940    1.5528932373   -0.1567475827
     43  H         6.1609828154   -0.0024666537   -1.2670304630
     44  H         5.9395188668   -0.7590246817    0.3664425769
     45  H         5.1688215411   -1.7014374836   -2.2951682816
     46  H         4.6574454255   -2.5417753310   -0.7623403812
     47  H         2.7579625636   -1.4169475308   -2.2898783170
     48  H         0.5705446139    3.1134207065    1.0959320197
     49  H         1.7373646696    4.2077443412    0.2610936731
     50  H         0.4395010480   -0.5737784311    3.2487698124
     51  H         0.4802453923   -1.9781199091    2.1393214518
     52  H        -1.0745830934   -1.4032665228    2.8799581691
     53  H        -2.4973966851   -3.3524887415   -0.2204877704
     54  H        -1.3338384028   -3.4243843787    1.0519109295
     55  H        -0.9862880730   -2.4522981090   -1.5821903298
     56  H        -1.3577578041   -1.4592057572   -1.8133995905
   Point Group: c1    Number of degrees of freedom:   162


   Energy is  -1506.570887423

              Constraints and their Current Values
                                        Value     Constraint
   Dihedral:        1   2   3   4       85.263       85.263
   Dihedral:        3   4   5   6     -142.105     -142.105
   Dihedral:        4   5   6   7     -180.000     -180.000
   Dihedral:        5   6   7   8     -142.105     -142.105
   Dihedral:        6   7   8   9      123.158      123.158
   Dihedral:        7   8   9  10       66.316       66.316
   Dihedral:        8   9  10  11     -104.211     -104.211
   Dihedral:        9  10  11  12       28.421       28.421
   Dihedral:       11  12  13  14       -9.474       -9.474
 Hessian Updated using BFGS Update
**WARNING** Hereditary positive definiteness endangered
**WARNING** Small Scalar Product
 Hessian Update Skipped this cycle

   Using Lagrange Multiplier Algorithm


171 Hessian modes will be used to form the next step
  Hessian Eigenvalues:
    -0.977753   -0.977753   -0.977753   -0.977753   -0.977753   -0.977753
    -0.977753   -0.977753   -0.977753    0.045000    0.045000    0.045000
     0.045000    0.045000    0.045563    0.046774    0.047428    0.048882
     0.049149    0.050538    0.050966    0.051494    0.052134    0.052779
     0.058700    0.059510    0.060032    0.060225    0.061824    0.062617
     0.066287    0.066948    0.067042    0.068160    0.070633    0.072037
     0.073328    0.073717    0.075666    0.075831    0.076984    0.079003
     0.080423    0.081494    0.082486    0.083841    0.084055    0.084665
     0.085217    0.085572    0.086310    0.086718    0.087606    0.088471
     0.089058    0.089152    0.089590    0.089760    0.090184    0.091545
     0.093766    0.093948    0.096602    0.096609    0.096786    0.101191
     0.105992    0.111105    0.111577    0.111583    0.112283    0.112286
     0.114661    0.115029    0.115941    0.117240    0.118347    0.118776
     0.122994    0.127464    0.130889    0.140098    0.157873    0.160000
     0.160000    0.160000    0.160000    0.160000    0.160000    0.161644
     0.167131    0.168821    0.171585    0.172402    0.180716    0.186715
     0.188517    0.194607    0.212068    0.221874    0.235485    0.238217
     0.239522    0.249998    0.250000    0.250000    0.250000    0.250000
     0.258437    0.258469    0.266517    0.267110    0.268120    0.275844
     0.279849    0.279856    0.280152    0.281716    0.282069    0.295107
     0.295603    0.302709    0.310698    0.310865    0.315267    0.321368
     0.322192    0.322253    0.322743    0.322808    0.322959    0.323019
     0.323309    0.323756    0.324136    0.324330    0.324479    0.324484
     0.324571    0.324623    0.325259    0.326411    0.326873    0.327539
     0.329625    0.331317    0.367525    0.368830    0.370028    0.378920
     0.385575    0.456252    0.473288    0.492706    0.517896    0.527289
     0.528481    0.551997    0.860308    0.936873    0.941950    1.022753
     1.022753    1.022753    1.022753    1.022753    1.022753    1.022753
     1.022753    1.022753   34.781596
**WARNING** Magnitude of eigenvalue 171 too large.  Replaced by    25.000000

 Minimum Search - Taking P-RFO Step
 Searching for Lamda that Maximizes Along the Constraint modes Only
 Value Taken    Lamda =   3.35810340


 ********************************************
 ** ERROR IN DETERMINING Lamda IN CONFormD **
 ********************************************



 New Cartesian Coordinates Obtained by Inverse Iteration

 Displacement from previous Coordinates is:  0.000000
 Adding empirical dispersion correction 
 ----------------------------------------------------------------
 Doing -D3(op) with
 s6 =   1.00000
 s8 =   0.78311
 a1 =   0.30000
 a2 =   4.25000
 n  =  10.00000
 -D3 energy without 3body term =     -0.0824907764 hartrees
 ----------------------------------------------------------------
             Standard Nuclear Orientation (Angstroms)
    I     Atom           X                Y                Z
 ----------------------------------------------------------------
    1      O       1.9299543902     1.0945833417     2.4172175193
    2      C       2.4955766663     1.1602487276     1.3351982339
    3      C       3.2979010561     0.0473186473     0.6978168706
    4      C       2.5232493361    -0.9945619670    -0.1257498846
    5      C       1.0577336559    -0.7087212567    -0.3679116183
    6      O       0.3419255422    -1.8702511133    -0.3053518527
    7      C      -1.0597967230    -1.6804237967    -0.5253675811
    8      C      -1.8643936208    -2.5999856453     0.3874060274
    9      O      -2.7659297583    -1.8239262843     1.1922896310
   10      C      -3.7564902350    -1.1925670884     0.5145555152
   11      C      -3.5119769441     0.2897319845     0.3607269882
   12      C      -2.0330927272     0.7027563669     0.3364047091
   13      C      -1.0378031094    -0.4174805654     0.1101824615
   14      O      -1.3015971667    -1.6111986880     0.1124728874
   15      O       2.3993157777     2.3213315640     0.6326593591
   16      O      -0.3160882911    -0.2153871803     1.3651121500
   17      O      -4.4838639701    -1.8064619741    -0.2548127743
   18      C      -0.1093408221    -1.0886796818     2.4396059210
   19      C      -4.0012344284     0.8889395369    -0.9749750801
   20      C      -4.2312869482     2.3905289147    -0.8085073775
   21      C      -2.8039300973     2.8841543986    -0.7154842225
   22      C      -2.0414675424     1.5720866375    -0.9376388169
   23      O      -2.8717206218     0.8447990640    -1.8098532738
   24      H      -4.0628996259     0.7678124096     1.2014233467
   25      H      -1.8105046812     1.3598784626     1.2161005733
   26      H      -4.9234504161     0.4099091600    -1.3688712974
   27      H      -4.6756410778     2.7677761309    -1.7573305585
   28      H      -4.8879905122     2.6738140759     0.0422517561
   29      H      -2.6198914733     3.5829875702    -1.5617460248
   30      H      -2.5294680393     3.3744061068     0.2436509902
   31      H      -1.0215372861     1.7996687413    -1.3107169734
   32      O       0.8600269303     0.2008084996    -1.1911550339
   33      C       1.6406259658     3.4055322909     1.0209430517
   34      C       4.2854464849     0.5510101462    -0.3842105277
   35      C       5.4215315479    -0.4566411330    -0.5691054454
   36      C       4.6964298121    -1.5678434396    -1.2964069678
   37      C       3.3104644243    -0.9361743357    -1.4523942547
   38      O       3.5798365389     0.4365224760    -1.5939276029
   39      H       3.9116486984    -0.3941517195     1.5147637001
   40      H       2.6067494025    -2.0050565168     0.3366925728
   41      H       1.9954463587     3.7921607331     1.9998599161
   42      H       4.7112662940     1.5528932373    -0.1567475827
   43      H       6.1609828154    -0.0024666537    -1.2670304630
   44      H       5.9395188668    -0.7590246817     0.3664425769
   45      H       5.1688215411    -1.7014374836    -2.2951682816
   46      H       4.6574454255    -2.5417753310    -0.7623403812
   47      H       2.7579625636    -1.4169475308    -2.2898783170
   48      H       0.5705446139     3.1134207065     1.0959320197
   49      H       1.7373646696     4.2077443412     0.2610936731
   50      H       0.4395010480    -0.5737784311     3.2487698124
   51      H       0.4802453923    -1.9781199091     2.1393214518
   52      H      -1.0745830934    -1.4032665228     2.8799581691
   53      H      -2.4973966851    -3.3524887415    -0.2204877704
   54      H      -1.3338384028    -3.4243843787     1.0519109295
   55      H      -0.9862880730    -2.4522981090    -1.5821903298
   56      H      -1.3577578041    -1.4592057572    -1.8133995905
 ----------------------------------------------------------------
 Molecular Point Group                 C1    NOp =  1
 Largest Abelian Subgroup              C1    NOp =  1
 Nuclear Repulsion Energy =  3617.8754577363 hartrees
 There are      113 alpha and      113 beta electrons
 Applying Cartesian multipole field
    Component          Value
    ---------          -----
     (2,0,0)        1.00000E-12
     (0,2,0)        2.00000E-11
     (0,0,2)       -3.00000E-11
 Nucleus-field energy     =     0.0000000168 hartrees
 Requested basis set is STO-3G
 There are 86 shells and 176 basis functions
 A cutoff of  1.0D-12 yielded   2668 shell pairs
 There are     12739 function pairs
 Smallest overlap matrix eigenvalue = 2.41E-02
 Guess MOs from SCF MO coefficient file
 Reading MOs from coefficient file
 Reading MOs from coefficient file
 A restricted hybrid HF-DFT SCF calculation will be
 performed using Pulay DIIS extrapolation
 Exchange:     0.2000 Hartree-Fock + 0.0800 Slater + 0.7200 B88
 Correlation:  0.1900 VWN1RPA + 0.8100 LYP
 Using SG-1 standard quadrature grid
 Dispersion:   Grimme D3
 SCF converges when DIIS error is below 1.0E-08
 Geometry optimization detected.  Setting ReadMinima to 0
 Setting SaveMinima to 0
 using 48 threads for integral computing
 -------------------------------------------------------
 OpenMP Integral computing Module                
 Release: version 1.0, May 2013, Q-Chem Inc. Pittsburgh 
 -------------------------------------------------------
 -------------------------------------------------------
 OpenMP BLAS3 based DFT computing Module                
 Release: version 1.0, May 2013, Q-Chem Inc. Pittsburgh 
 -------------------------------------------------------
 ---------------------------------------
  Cycle       Energy         DIIS Error
 ---------------------------------------
    1   -1506.5708874233      6.41E-10
    2   -1506.5708874233      1.35E-09 Convergence criterion met
 ---------------------------------------
 SCF time:  CPU 19.84 s  wall 0.41 s
 SCF   energy in the final basis set = -1506.57088742
 Total energy in the final basis set = -1506.57088742
 
 --------------------------------------------------------------
 
                    Orbital Energies (a.u.)
 --------------------------------------------------------------
 
 Alpha MOs
 -- Occupied --
-19.561 -18.917 -18.892 -18.887 -18.885 -18.876 -18.859 -18.843
-18.840 -18.807 -10.538 -10.205 -10.111 -10.097 -10.093 -10.071
-10.068 -10.065 -10.061 -10.054 -10.053 -10.052 -10.041 -10.030
-10.024 -10.013 -10.010 -10.009 -10.006 -10.005  -1.717  -1.244
 -1.086  -1.049  -1.029  -1.020  -1.009  -0.986  -0.954  -0.942
 -0.932  -0.865  -0.838  -0.781  -0.765  -0.739  -0.728  -0.717
 -0.709  -0.668  -0.664  -0.658  -0.628  -0.595  -0.585  -0.553
 -0.536  -0.530  -0.524  -0.518  -0.508  -0.482  -0.477  -0.468
 -0.464  -0.445  -0.442  -0.437  -0.435  -0.426  -0.419  -0.412
 -0.408  -0.406  -0.403  -0.389  -0.380  -0.366  -0.362  -0.360
 -0.353  -0.341  -0.338  -0.332  -0.325  -0.320  -0.317  -0.307
 -0.303  -0.299  -0.295  -0.293  -0.284  -0.277  -0.271  -0.266
 -0.249  -0.233  -0.222  -0.220  -0.211  -0.199  -0.180  -0.168
 -0.158  -0.156  -0.148  -0.143  -0.139  -0.132  -0.126  -0.103
 -0.018
 -- Virtual --
  0.068   0.106   0.129   0.130   0.175   0.201   0.251   0.262
  0.266   0.274   0.291   0.316   0.332   0.345   0.345   0.353
  0.360   0.361   0.369   0.387   0.389   0.392   0.395   0.396
  0.406   0.412   0.414   0.416   0.420   0.425   0.430   0.433
  0.436   0.440   0.447   0.451   0.452   0.461   0.466   0.469
  0.475   0.479   0.480   0.485   0.489   0.495   0.499   0.502
  0.520   0.528   0.537   0.540   0.546   0.551   0.572   0.574
  0.593   0.597   0.616   0.685   0.696   0.708   1.859
 --------------------------------------------------------------
 
          Ground-State Mulliken Net Atomic Charges

     Atom                 Charge (a.u.)
  ----------------------------------------
      1 O                    -0.243719
      2 C                     0.240810
      3 C                    -0.082454
      4 C                    -0.078296
      5 C                     0.212343
      6 O                    -0.273036
      7 C                     0.618815
      8 C                     0.125370
      9 O                    -0.252710
     10 C                     0.187558
     11 C                    -0.097037
     12 C                    -0.061951
     13 C                     0.179508
     14 O                    -0.652945
     15 O                    -0.206841
     16 O                    -0.235230
     17 O                    -0.233500
     18 C                    -0.122426
     19 C                     0.035462
     20 C                    -0.142350
     21 C                    -0.145344
     22 C                     0.038876
     23 O                    -0.215547
     24 H                     0.083987
     25 H                     0.100116
     26 H                     0.089718
     27 H                     0.074179
     28 H                     0.070112
     29 H                     0.075530
     30 H                     0.068461
     31 H                     0.102503
     32 O                    -0.241538
     33 C                    -0.095641
     34 C                     0.042520
     35 C                    -0.143503
     36 C                    -0.144536
     37 C                     0.043083
     38 O                    -0.203944
     39 H                     0.081588
     40 H                     0.068605
     41 H                     0.081867
     42 H                     0.082641
     43 H                     0.072453
     44 H                     0.068221
     45 H                     0.072984
     46 H                     0.068997
     47 H                     0.080534
     48 H                     0.084854
     49 H                     0.093280
     50 H                     0.109880
     51 H                     0.069174
     52 H                     0.076612
     53 H                     0.104851
     54 H                     0.130177
     55 H                     0.192527
     56 H                    -0.055653
  ----------------------------------------
  Sum of atomic charges =    -0.000000

 -----------------------------------------------------------------
                    Cartesian Multipole Moments
 -----------------------------------------------------------------
    Charge (ESU x 10^10)
                -0.0000
    Dipole Moment (Debye)
         X      -0.0313      Y      -1.9015      Z       2.0167
       Tot       2.7720
    Quadrupole Moments (Debye-Ang)
        XX    -162.1160     XY      -7.2359     YY    -145.8258
        XZ      -0.4534     YZ       2.7182     ZZ    -167.8846
    Octopole Moments (Debye-Ang^2)
       XXX      67.7699    XXY      29.5610    XYY      -2.2865
       YYY      -9.6428    XXZ      20.7827    XYZ       4.1682
       YYZ       4.6010    XZZ      -5.0967    YZZ     -15.3134
       ZZZ       4.8278
    Hexadecapole Moments (Debye-Ang^3)
      XXXX   -8587.4431   XXXY    -107.2125   XXYY   -1898.8524
      XYYY     165.3103   YYYY   -2489.0757   XXXZ      -5.2368
      XXYZ      15.6996   XYYZ      26.8227   YYYZ       8.9880
      XXZZ   -1664.3672   XYZZ       7.0430   YYZZ    -642.1490
      XZZZ     -20.3974   YZZZ       1.7928   ZZZZ   -1385.1094
 -----------------------------------------------------------------
 Calculating analytic gradient of the SCF energy
 Gradient of SCF Energy
            1           2           3           4           5           6
    1   0.0266753   0.0209029  -0.0357392  -0.0153826  -0.0637118  -0.1965413
    2   0.0170871  -0.0072164   0.0016747   0.0536279   0.0050788   0.0953660
    3  -0.0670579  -0.0132775  -0.0152936  -0.0579259   0.0531568   0.0496038
            7           8           9          10          11          12
    1  -3.0342301   0.2300705   0.0885145  -0.0100004   0.0332818   0.0293117
    2   1.0565112   0.5453176  -0.0025189  -0.0070934  -0.0272790  -0.0318350
    3   7.6224668  -0.2192824  -0.1611260   0.0266734  -0.0453940  -0.0022370
           13          14          15          16          17          18
    1  -0.0108653   2.8825557  -0.0674097  -0.0595998   0.0600892   0.0120148
    2  -0.5272236  -0.9214541   0.0141418  -0.0946259   0.0411364   0.0421536
    3  -0.2565625  -7.1078453   0.1016404  -0.0047234   0.0401276  -0.0086392
           19          20          21          22          23          24
    1   0.0726919   0.0448742  -0.0162515  -0.0600845  -0.0154347  -0.0085745
    2   0.0160383  -0.0280493  -0.0446267  -0.0387075   0.0381905  -0.0048816
    3  -0.0096339  -0.0002517  -0.0082736  -0.0024964   0.0766094   0.0033192
           25          26          27          28          29          30
    1  -0.0096932  -0.0103776   0.0026653  -0.0045104  -0.0061734   0.0034471
    2   0.0190785   0.0090882   0.0018356   0.0032635   0.0031729   0.0018842
    3   0.0054454   0.0050625  -0.0110694   0.0062561  -0.0111105   0.0075483
           31          32          33          34          35          36
    1   0.0002663   0.0269107   0.0365534  -0.0374557  -0.0504584  -0.0167565
    2   0.0146210  -0.0566376  -0.0279303  -0.0440634  -0.0031050   0.0449663
    3   0.0065152   0.0203613  -0.0343383  -0.0431180  -0.0123426   0.0141151
           37          38          39          40          41          42
    1   0.0334388   0.0204183   0.0111429  -0.0017462   0.0063697   0.0118060
    2   0.0548905  -0.0574228   0.0032389  -0.0065148  -0.0056904  -0.0022850
    3   0.0309700   0.0617919   0.0024712   0.0012882  -0.0041981   0.0084730
           43          44          45          46          47          48
    1   0.0011602   0.0043771   0.0078413  -0.0028162   0.0020042   0.0040744
    2   0.0030579  -0.0027177   0.0068351  -0.0067821  -0.0132601  -0.0059007
    3  -0.0112055   0.0063204  -0.0074021   0.0043740   0.0011723  -0.0048944
           49          50          51          52          53          54
    1  -0.0021859  -0.0059804  -0.0011188   0.0056774   0.0208196   0.0003891
    2   0.0025074  -0.0098365   0.0086391   0.0097183  -0.0262296  -0.0479984
    3   0.0013052   0.0065331  -0.0031363  -0.0022080   0.0106797   0.0195743
           55          56
    1   0.0137120   0.0290417
    2   0.0238189  -0.0850540
    3  -0.0872729   0.0184614
 Max gradient component =       7.622E+00
 RMS gradient           =       8.765E-01
 Gradient time:  CPU 36.58 s  wall 0.77 s
 Geometry Optimization Parameters
   NAtoms,    NIC,     NZ,  NCons,   NDum,   NFix, NCnnct, MaxDiis
       56     591       0       9       0       0       0       0

 Cartesian Hessian Update
 Hessian Updated using BFGS Update
**WARNING** Hereditary positive definiteness endangered
**WARNING** Small Scalar Product
 Hessian Update Skipped this cycle


** CONSTRAINED OPTIMIZATION IN DELOCALIZED INTERNAL COORDINATES **
   Searching for a Minimum

   Optimization Cycle:   3

                       Coordinates (Angstroms)
     ATOM                X               Y               Z
      1  O         1.9299543902    1.0945833417    2.4172175193
      2  C         2.4955766663    1.1602487276    1.3351982339
      3  C         3.2979010561    0.0473186473    0.6978168706
      4  C         2.5232493361   -0.9945619670   -0.1257498846
      5  C         1.0577336559   -0.7087212567   -0.3679116183
      6  O         0.3419255422   -1.8702511133   -0.3053518527
      7  C        -1.0597967230   -1.6804237967   -0.5253675811
      8  C        -1.8643936208   -2.5999856453    0.3874060274
      9  O        -2.7659297583   -1.8239262843    1.1922896310
     10  C        -3.7564902350   -1.1925670884    0.5145555152
     11  C        -3.5119769441    0.2897319845    0.3607269882
     12  C        -2.0330927272    0.7027563669    0.3364047091
     13  C        -1.0378031094   -0.4174805654    0.1101824615
     14  O        -1.3015971667   -1.6111986880    0.1124728874
     15  O         2.3993157777    2.3213315640    0.6326593591
     16  O        -0.3160882911   -0.2153871803    1.3651121500
     17  O        -4.4838639701   -1.8064619741   -0.2548127743
     18  C        -0.1093408221   -1.0886796818    2.4396059210
     19  C        -4.0012344284    0.8889395369   -0.9749750801
     20  C        -4.2312869482    2.3905289147   -0.8085073775
     21  C        -2.8039300973    2.8841543986   -0.7154842225
     22  C        -2.0414675424    1.5720866375   -0.9376388169
     23  O        -2.8717206218    0.8447990640   -1.8098532738
     24  H        -4.0628996259    0.7678124096    1.2014233467
     25  H        -1.8105046812    1.3598784626    1.2161005733
     26  H        -4.9234504161    0.4099091600   -1.3688712974
     27  H        -4.6756410778    2.7677761309   -1.7573305585
     28  H        -4.8879905122    2.6738140759    0.0422517561
     29  H        -2.6198914733    3.5829875702   -1.5617460248
     30  H        -2.5294680393    3.3744061068    0.2436509902
     31  H        -1.0215372861    1.7996687413   -1.3107169734
     32  O         0.8600269303    0.2008084996   -1.1911550339
     33  C         1.6406259658    3.4055322909    1.0209430517
     34  C         4.2854464849    0.5510101462   -0.3842105277
     35  C         5.4215315479   -0.4566411330   -0.5691054454
     36  C         4.6964298121   -1.5678434396   -1.2964069678
     37  C         3.3104644243   -0.9361743357   -1.4523942547
     38  O         3.5798365389    0.4365224760   -1.5939276029
     39  H         3.9116486984   -0.3941517195    1.5147637001
     40  H         2.6067494025   -2.0050565168    0.3366925728
     41  H         1.9954463587    3.7921607331    1.9998599161
     42  H         4.7112662940    1.5528932373   -0.1567475827
     43  H         6.1609828154   -0.0024666537   -1.2670304630
     44  H         5.9395188668   -0.7590246817    0.3664425769
     45  H         5.1688215411   -1.7014374836   -2.2951682816
     46  H         4.6574454255   -2.5417753310   -0.7623403812
     47  H         2.7579625636   -1.4169475308   -2.2898783170
     48  H         0.5705446139    3.1134207065    1.0959320197
     49  H         1.7373646696    4.2077443412    0.2610936731
     50  H         0.4395010480   -0.5737784311    3.2487698124
     51  H         0.4802453923   -1.9781199091    2.1393214518
     52  H        -1.0745830934   -1.4032665228    2.8799581691
     53  H        -2.4973966851   -3.3524887415   -0.2204877704
     54  H        -1.3338384028   -3.4243843787    1.0519109295
     55  H        -0.9862880730   -2.4522981090   -1.5821903298
     56  H        -1.3577578041   -1.4592057572   -1.8133995905
   Point Group: c1    Number of degrees of freedom:   162


   Energy is  -1506.570887423

              Constraints and their Current Values
                                        Value     Constraint
   Dihedral:        1   2   3   4       85.263       85.263
   Dihedral:        3   4   5   6     -142.105     -142.105
   Dihedral:        4   5   6   7     -180.000     -180.000
   Dihedral:        5   6   7   8     -142.105     -142.105
   Dihedral:        6   7   8   9      123.158      123.158
   Dihedral:        7   8   9  10       66.316       66.316
   Dihedral:        8   9  10  11     -104.211     -104.211
   Dihedral:        9  10  11  12       28.421       28.421
   Dihedral:       11  12  13  14       -9.474       -9.474
 Hessian Updated using BFGS Update
**WARNING** Hereditary positive definiteness endangered
**WARNING** Small Scalar Product
 Hessian Update Skipped this cycle

   Using Lagrange Multiplier Algorithm


171 Hessian modes will be used to form the next step
  Hessian Eigenvalues:
    -0.977753   -0.977753   -0.977753   -0.977753   -0.977753   -0.977753
    -0.977753   -0.977753   -0.977753    0.045000    0.045000    0.045000
     0.045000    0.045000    0.045563    0.046774    0.047428    0.048882
     0.049149    0.050538    0.050966    0.051494    0.052134    0.052779
     0.058700    0.059510    0.060032    0.060225    0.061824    0.062617
     0.066287    0.066948    0.067042    0.068160    0.070633    0.072037
     0.073328    0.073717    0.075666    0.075831    0.076984    0.079003
     0.080423    0.081494    0.082486    0.083841    0.084055    0.084665
     0.085217    0.085572    0.086310    0.086718    0.087606    0.088471
     0.089058    0.089152    0.089590    0.089760    0.090184    0.091545
     0.093766    0.093948    0.096602    0.096609    0.096786    0.101191
     0.105992    0.111105    0.111577    0.111583    0.112283    0.112286
     0.114661    0.115029    0.115941    0.117240    0.118347    0.118776
     0.122994    0.127464    0.130889    0.140098    0.157873    0.160000
     0.160000    0.160000    0.160000    0.160000    0.160000    0.161644
     0.167131    0.168821    0.171585    0.172402    0.180716    0.186715
     0.188517    0.194607    0.212068    0.221874    0.235485    0.238217
     0.239522    0.249998    0.250000    0.250000    0.250000    0.250000
     0.258437    0.258469    0.266517    0.267110    0.268120    0.275844
     0.279849    0.279856    0.280152    0.281716    0.282069    0.295107
     0.295603    0.302709    0.310698    0.310865    0.315267    0.321368
     0.322192    0.322253    0.322743    0.322808    0.322959    0.323019
     0.323309    0.323756    0.324136    0.324330    0.324479    0.324484
     0.324571    0.324623    0.325259    0.326411    0.326873    0.327539
     0.329625    0.331317    0.367525    0.368830    0.370028    0.378920
     0.385575    0.456252    0.473288    0.492706    0.517896    0.527289
     0.528481    0.551997    0.860308    0.936873    0.941950    1.022753
     1.022753    1.022753    1.022753    1.022753    1.022753    1.022753
     1.022753    1.022753   34.781596
**WARNING** Magnitude of eigenvalue 171 too large.  Replaced by    25.000000

 Minimum Search - Taking P-RFO Step
 Searching for Lamda that Maximizes Along the Constraint modes Only
 Value Taken    Lamda =   3.35810340


 ********************************************
 ** ERROR IN DETERMINING Lamda IN CONFormD **
 ********************************************



 New Cartesian Coordinates Obtained by Inverse Iteration

 Displacement from previous Coordinates is:  0.000000
 Adding empirical dispersion correction 
 ----------------------------------------------------------------
 Doing -D3(op) with
 s6 =   1.00000
 s8 =   0.78311
 a1 =   0.30000
 a2 =   4.25000
 n  =  10.00000
 -D3 energy without 3body term =     -0.0824907764 hartrees
 ----------------------------------------------------------------
             Standard Nuclear Orientation (Angstroms)
    I     Atom           X                Y                Z
 ----------------------------------------------------------------
    1      O       1.9299543902     1.0945833417     2.4172175193
    2      C       2.4955766663     1.1602487276     1.3351982339
    3      C       3.2979010561     0.0473186473     0.6978168706
    4      C       2.5232493361    -0.9945619670    -0.1257498846
    5      C       1.0577336559    -0.7087212567    -0.3679116183
    6      O       0.3419255422    -1.8702511133    -0.3053518527
    7      C      -1.0597967230    -1.6804237967    -0.5253675811
    8      C      -1.8643936208    -2.5999856453     0.3874060274
    9      O      -2.7659297583    -1.8239262843     1.1922896310
   10      C      -3.7564902350    -1.1925670884     0.5145555152
   11      C      -3.5119769441     0.2897319845     0.3607269882
   12      C      -2.0330927272     0.7027563669     0.3364047091
   13      C      -1.0378031094    -0.4174805654     0.1101824615
   14      O      -1.3015971667    -1.6111986880     0.1124728874
   15      O       2.3993157777     2.3213315640     0.6326593591
   16      O      -0.3160882911    -0.2153871803     1.3651121500
   17      O      -4.4838639701    -1.8064619741    -0.2548127743
   18      C      -0.1093408221    -1.0886796818     2.4396059210
   19      C      -4.0012344284     0.8889395369    -0.9749750801
   20      C      -4.2312869482     2.3905289147    -0.8085073775
   21      C      -2.8039300973     2.8841543986    -0.7154842225
   22      C      -2.0414675424     1.5720866375    -0.9376388169
   23      O      -2.8717206218     0.8447990640    -1.8098532738
   24      H      -4.0628996259     0.7678124096     1.2014233467
   25      H      -1.8105046812     1.3598784626     1.2161005733
   26      H      -4.9234504161     0.4099091600    -1.3688712974
   27      H      -4.6756410778     2.7677761309    -1.7573305585
   28      H      -4.8879905122     2.6738140759     0.0422517561
   29      H      -2.6198914733     3.5829875702    -1.5617460248
   30      H      -2.5294680393     3.3744061068     0.2436509902
   31      H      -1.0215372861     1.7996687413    -1.3107169734
   32      O       0.8600269303     0.2008084996    -1.1911550339
   33      C       1.6406259658     3.4055322909     1.0209430517
   34      C       4.2854464849     0.5510101462    -0.3842105277
   35      C       5.4215315479    -0.4566411330    -0.5691054454
   36      C       4.6964298121    -1.5678434396    -1.2964069678
   37      C       3.3104644243    -0.9361743357    -1.4523942547
   38      O       3.5798365389     0.4365224760    -1.5939276029
   39      H       3.9116486984    -0.3941517195     1.5147637001
   40      H       2.6067494025    -2.0050565168     0.3366925728
[...]
 -0.303  -0.299  -0.295  -0.293  -0.284  -0.277  -0.271  -0.266
 -0.249  -0.233  -0.222  -0.220  -0.211  -0.199  -0.180  -0.168
 -0.158  -0.156  -0.148  -0.143  -0.139  -0.132  -0.126  -0.103
 -0.018
 -- Virtual --
  0.068   0.106   0.129   0.130   0.175   0.201   0.251   0.262
  0.266   0.274   0.291   0.316   0.332   0.345   0.345   0.353
  0.360   0.361   0.369   0.387   0.389   0.392   0.395   0.396
  0.406   0.412   0.414   0.416   0.420   0.425   0.430   0.433
  0.436   0.440   0.447   0.451   0.452   0.461   0.466   0.469
  0.475   0.479   0.480   0.485   0.489   0.495   0.499   0.502
  0.520   0.528   0.537   0.540   0.546   0.551   0.572   0.574
  0.593   0.597   0.616   0.685   0.696   0.708   1.859
 --------------------------------------------------------------
 
          Ground-State Mulliken Net Atomic Charges

     Atom                 Charge (a.u.)
  ----------------------------------------
      1 O                    -0.243719
      2 C                     0.240810
      3 C                    -0.082454
      4 C                    -0.078296
      5 C                     0.212343
      6 O                    -0.273036
      7 C                     0.618815
      8 C                     0.125370
      9 O                    -0.252710
     10 C                     0.187558
     11 C                    -0.097037
     12 C                    -0.061951
     13 C                     0.179508
     14 O                    -0.652945
     15 O                    -0.206841
     16 O                    -0.235230
     17 O                    -0.233500
     18 C                    -0.122426
     19 C                     0.035462
     20 C                    -0.142350
     21 C                    -0.145344
     22 C                     0.038876
     23 O                    -0.215547
     24 H                     0.083987
     25 H                     0.100116
     26 H                     0.089718
     27 H                     0.074179
     28 H                     0.070112
     29 H                     0.075530
     30 H                     0.068461
     31 H                     0.102503
     32 O                    -0.241538
     33 C                    -0.095641
     34 C                     0.042520
     35 C                    -0.143503
     36 C                    -0.144536
     37 C                     0.043083
     38 O                    -0.203944
     39 H                     0.081588
     40 H                     0.068605
     41 H                     0.081867
     42 H                     0.082641
     43 H                     0.072453
     44 H                     0.068221
     45 H                     0.072984
     46 H                     0.068997
     47 H                     0.080534
     48 H                     0.084854
     49 H                     0.093280
     50 H                     0.109880
     51 H                     0.069174
     52 H                     0.076612
     53 H                     0.104851
     54 H                     0.130177
     55 H                     0.192527
     56 H                    -0.055653
  ----------------------------------------
  Sum of atomic charges =    -0.000000

 -----------------------------------------------------------------
                    Cartesian Multipole Moments
 -----------------------------------------------------------------
    Charge (ESU x 10^10)
                -0.0000
    Dipole Moment (Debye)
         X      -0.0313      Y      -1.9015      Z       2.0167
       Tot       2.7720
    Quadrupole Moments (Debye-Ang)
        XX    -162.1160     XY      -7.2359     YY    -145.8258
        XZ      -0.4534     YZ       2.7182     ZZ    -167.8846
    Octopole Moments (Debye-Ang^2)
       XXX      67.7699    XXY      29.5610    XYY      -2.2865
       YYY      -9.6428    XXZ      20.7827    XYZ       4.1682
       YYZ       4.6010    XZZ      -5.0967    YZZ     -15.3134
       ZZZ       4.8278
    Hexadecapole Moments (Debye-Ang^3)
      XXXX   -8587.4431   XXXY    -107.2125   XXYY   -1898.8524
      XYYY     165.3103   YYYY   -2489.0757   XXXZ      -5.2368
      XXYZ      15.6996   XYYZ      26.8227   YYYZ       8.9880
      XXZZ   -1664.3672   XYZZ       7.0430   YYZZ    -642.1490
      XZZZ     -20.3974   YZZZ       1.7928   ZZZZ   -1385.1094
 -----------------------------------------------------------------
 Calculating analytic gradient of the SCF energy
 Gradient of SCF Energy
            1           2           3           4           5           6
    1   0.0266753   0.0209029  -0.0357392  -0.0153826  -0.0637118  -0.1965413
    2   0.0170871  -0.0072164   0.0016747   0.0536279   0.0050788   0.0953660
    3  -0.0670579  -0.0132775  -0.0152936  -0.0579259   0.0531568   0.0496038
            7           8           9          10          11          12
    1  -3.0342301   0.2300704   0.0885145  -0.0100004   0.0332818   0.0293117
    2   1.0565111   0.5453176  -0.0025189  -0.0070934  -0.0272790  -0.0318350
    3   7.6224668  -0.2192824  -0.1611260   0.0266734  -0.0453940  -0.0022370
           13          14          15          16          17          18
    1  -0.0108653   2.8825557  -0.0674097  -0.0595998   0.0600892   0.0120148
    2  -0.5272236  -0.9214541   0.0141418  -0.0946259   0.0411364   0.0421536
    3  -0.2565625  -7.1078453   0.1016404  -0.0047234   0.0401276  -0.0086392
           19          20          21          22          23          24
    1   0.0726919   0.0448742  -0.0162515  -0.0600845  -0.0154347  -0.0085745
    2   0.0160383  -0.0280493  -0.0446267  -0.0387075   0.0381905  -0.0048816
    3  -0.0096339  -0.0002517  -0.0082736  -0.0024964   0.0766094   0.0033192
           25          26          27          28          29          30
    1  -0.0096932  -0.0103776   0.0026653  -0.0045104  -0.0061734   0.0034471
    2   0.0190785   0.0090882   0.0018356   0.0032635   0.0031729   0.0018842
    3   0.0054454   0.0050625  -0.0110694   0.0062561  -0.0111105   0.0075483
           31          32          33          34          35          36
    1   0.0002663   0.0269107   0.0365534  -0.0374557  -0.0504584  -0.0167565
    2   0.0146210  -0.0566376  -0.0279303  -0.0440634  -0.0031050   0.0449663
    3   0.0065152   0.0203613  -0.0343383  -0.0431180  -0.0123426   0.0141151
           37          38          39          40          41          42
    1   0.0334388   0.0204183   0.0111429  -0.0017462   0.0063697   0.0118060
    2   0.0548905  -0.0574228   0.0032389  -0.0065148  -0.0056904  -0.0022850
    3   0.0309700   0.0617919   0.0024712   0.0012882  -0.0041981   0.0084730
           43          44          45          46          47          48
    1   0.0011602   0.0043771   0.0078413  -0.0028162   0.0020042   0.0040744
    2   0.0030579  -0.0027177   0.0068351  -0.0067821  -0.0132601  -0.0059007
    3  -0.0112055   0.0063204  -0.0074021   0.0043740   0.0011723  -0.0048944
           49          50          51          52          53          54
    1  -0.0021859  -0.0059804  -0.0011188   0.0056774   0.0208196   0.0003891
    2   0.0025074  -0.0098365   0.0086391   0.0097183  -0.0262296  -0.0479984
    3   0.0013052   0.0065331  -0.0031363  -0.0022080   0.0106797   0.0195743
           55          56
    1   0.0137120   0.0290417
    2   0.0238189  -0.0850540
    3  -0.0872729   0.0184614
 Max gradient component =       7.622E+00
 RMS gradient           =       8.765E-01
 Gradient time:  CPU 35.65 s  wall 0.75 s
 Geometry Optimization Parameters
   NAtoms,    NIC,     NZ,  NCons,   NDum,   NFix, NCnnct, MaxDiis
       56     591       0       9       0       0       0       0

 Cartesian Hessian Update
 Hessian Updated using BFGS Update
**WARNING** Hereditary positive definiteness endangered
**WARNING** Small Scalar Product
 Hessian Update Skipped this cycle


** CONSTRAINED OPTIMIZATION IN DELOCALIZED INTERNAL COORDINATES **
   Searching for a Minimum

   Optimization Cycle: 100

                       Coordinates (Angstroms)
     ATOM                X               Y               Z
      1  O         1.9299543902    1.0945833417    2.4172175193
      2  C         2.4955766663    1.1602487276    1.3351982339
      3  C         3.2979010561    0.0473186473    0.6978168706
      4  C         2.5232493361   -0.9945619670   -0.1257498846
      5  C         1.0577336559   -0.7087212567   -0.3679116183
      6  O         0.3419255422   -1.8702511133   -0.3053518527
      7  C        -1.0597967230   -1.6804237967   -0.5253675811
      8  C        -1.8643936208   -2.5999856453    0.3874060274
      9  O        -2.7659297583   -1.8239262843    1.1922896310
     10  C        -3.7564902350   -1.1925670884    0.5145555152
     11  C        -3.5119769441    0.2897319845    0.3607269882
     12  C        -2.0330927272    0.7027563669    0.3364047091
     13  C        -1.0378031094   -0.4174805654    0.1101824615
     14  O        -1.3015971667   -1.6111986880    0.1124728874
     15  O         2.3993157777    2.3213315640    0.6326593591
     16  O        -0.3160882911   -0.2153871803    1.3651121500
     17  O        -4.4838639701   -1.8064619741   -0.2548127743
     18  C        -0.1093408221   -1.0886796818    2.4396059210
     19  C        -4.0012344284    0.8889395369   -0.9749750801
     20  C        -4.2312869482    2.3905289147   -0.8085073775
     21  C        -2.8039300973    2.8841543986   -0.7154842225
     22  C        -2.0414675424    1.5720866375   -0.9376388169
     23  O        -2.8717206218    0.8447990640   -1.8098532738
     24  H        -4.0628996259    0.7678124096    1.2014233467
     25  H        -1.8105046812    1.3598784626    1.2161005733
     26  H        -4.9234504161    0.4099091600   -1.3688712974
     27  H        -4.6756410778    2.7677761309   -1.7573305585
     28  H        -4.8879905122    2.6738140759    0.0422517561
     29  H        -2.6198914733    3.5829875702   -1.5617460248
     30  H        -2.5294680393    3.3744061068    0.2436509902
     31  H        -1.0215372861    1.7996687413   -1.3107169734
     32  O         0.8600269303    0.2008084996   -1.1911550339
     33  C         1.6406259658    3.4055322909    1.0209430517
     34  C         4.2854464849    0.5510101462   -0.3842105277
     35  C         5.4215315479   -0.4566411330   -0.5691054454
     36  C         4.6964298121   -1.5678434396   -1.2964069678
     37  C         3.3104644243   -0.9361743357   -1.4523942547
     38  O         3.5798365389    0.4365224760   -1.5939276029
     39  H         3.9116486984   -0.3941517195    1.5147637001
     40  H         2.6067494025   -2.0050565168    0.3366925728
     41  H         1.9954463587    3.7921607331    1.9998599161
     42  H         4.7112662940    1.5528932373   -0.1567475827
     43  H         6.1609828154   -0.0024666537   -1.2670304630
     44  H         5.9395188668   -0.7590246817    0.3664425769
     45  H         5.1688215411   -1.7014374836   -2.2951682816
     46  H         4.6574454255   -2.5417753310   -0.7623403812
     47  H         2.7579625636   -1.4169475308   -2.2898783170
     48  H         0.5705446139    3.1134207065    1.0959320197
     49  H         1.7373646696    4.2077443412    0.2610936731
     50  H         0.4395010480   -0.5737784311    3.2487698124
     51  H         0.4802453923   -1.9781199091    2.1393214518
     52  H        -1.0745830934   -1.4032665228    2.8799581691
     53  H        -2.4973966851   -3.3524887415   -0.2204877704
     54  H        -1.3338384028   -3.4243843787    1.0519109295
     55  H        -0.9862880730   -2.4522981090   -1.5821903298
     56  H        -1.3577578041   -1.4592057572   -1.8133995905
   Point Group: c1    Number of degrees of freedom:   162


   Energy is  -1506.570887423

              Constraints and their Current Values
                                        Value     Constraint
   Dihedral:        1   2   3   4       85.263       85.263
   Dihedral:        3   4   5   6     -142.105     -142.105
   Dihedral:        4   5   6   7     -180.000     -180.000
   Dihedral:        5   6   7   8     -142.105     -142.105
   Dihedral:        6   7   8   9      123.158      123.158
   Dihedral:        7   8   9  10       66.316       66.316
   Dihedral:        8   9  10  11     -104.211     -104.211
   Dihedral:        9  10  11  12       28.421       28.421
   Dihedral:       11  12  13  14       -9.474       -9.474
 Hessian Updated using BFGS Update
**WARNING** Hereditary positive definiteness endangered
**WARNING** Small Scalar Product
 Hessian Update Skipped this cycle

   Using Lagrange Multiplier Algorithm


171 Hessian modes will be used to form the next step
  Hessian Eigenvalues:
    -0.977753   -0.977753   -0.977753   -0.977753   -0.977753   -0.977753
    -0.977753   -0.977753   -0.977753    0.045000    0.045000    0.045000
     0.045000    0.045000    0.045563    0.046774    0.047428    0.048882
     0.049149    0.050538    0.050966    0.051494    0.052134    0.052779
     0.058700    0.059510    0.060032    0.060225    0.061824    0.062617
     0.066287    0.066948    0.067042    0.068160    0.070633    0.072037
     0.073328    0.073717    0.075666    0.075831    0.076984    0.079003
     0.080423    0.081494    0.082486    0.083841    0.084055    0.084665
     0.085217    0.085572    0.086310    0.086718    0.087606    0.088471
     0.089058    0.089152    0.089590    0.089760    0.090184    0.091545
     0.093766    0.093948    0.096602    0.096609    0.096786    0.101191
     0.105992    0.111105    0.111577    0.111583    0.112283    0.112286
     0.114661    0.115029    0.115941    0.117240    0.118347    0.118776
     0.122994    0.127464    0.130889    0.140098    0.157873    0.160000
     0.160000    0.160000    0.160000    0.160000    0.160000    0.161644
     0.167131    0.168821    0.171585    0.172402    0.180716    0.186715
     0.188517    0.194607    0.212068    0.221874    0.235485    0.238217
     0.239522    0.249998    0.250000    0.250000    0.250000    0.250000
     0.258437    0.258469    0.266517    0.267110    0.268120    0.275844
     0.279849    0.279856    0.280152    0.281716    0.282069    0.295107
     0.295603    0.302709    0.310698    0.310865    0.315267    0.321368
     0.322192    0.322253    0.322743    0.322808    0.322959    0.323019
     0.323309    0.323756    0.324136    0.324330    0.324479    0.324484
     0.324571    0.324623    0.325259    0.326411    0.326873    0.327539
     0.329625    0.331317    0.367525    0.368830    0.370028    0.378920
     0.385575    0.456252    0.473288    0.492706    0.517896    0.527289
     0.528481    0.551997    0.860308    0.936873    0.941950    1.022753
     1.022753    1.022753    1.022753    1.022753    1.022753    1.022753
     1.022753    1.022753   34.781596
**WARNING** Magnitude of eigenvalue 171 too large.  Replaced by    25.000000

 Minimum Search - Taking P-RFO Step
 Searching for Lamda that Maximizes Along the Constraint modes Only
 Value Taken    Lamda =   3.35810340


 ********************************************
 ** ERROR IN DETERMINING Lamda IN CONFormD **
 ********************************************



 New Cartesian Coordinates Obtained by Inverse Iteration

 Displacement from previous Coordinates is:  0.000000
 Adding empirical dispersion correction 
 ----------------------------------------------------------------
 Doing -D3(op) with
 s6 =   1.00000
 s8 =   0.78311
 a1 =   0.30000
 a2 =   4.25000
 n  =  10.00000
 -D3 energy without 3body term =     -0.0824907764 hartrees
 ----------------------------------------------------------------
             Standard Nuclear Orientation (Angstroms)
    I     Atom           X                Y                Z
 ----------------------------------------------------------------
    1      O       1.9299543902     1.0945833417     2.4172175193
    2      C       2.4955766663     1.1602487276     1.3351982339
    3      C       3.2979010561     0.0473186473     0.6978168706
    4      C       2.5232493361    -0.9945619670    -0.1257498846
    5      C       1.0577336559    -0.7087212567    -0.3679116183
    6      O       0.3419255422    -1.8702511133    -0.3053518527
    7      C      -1.0597967230    -1.6804237967    -0.5253675811
    8      C      -1.8643936208    -2.5999856453     0.3874060274
    9      O      -2.7659297583    -1.8239262843     1.1922896310
   10      C      -3.7564902350    -1.1925670884     0.5145555152
   11      C      -3.5119769441     0.2897319845     0.3607269882
   12      C      -2.0330927272     0.7027563669     0.3364047091
   13      C      -1.0378031094    -0.4174805654     0.1101824615
   14      O      -1.3015971667    -1.6111986880     0.1124728874
   15      O       2.3993157777     2.3213315640     0.6326593591
   16      O      -0.3160882911    -0.2153871803     1.3651121500
   17      O      -4.4838639701    -1.8064619741    -0.2548127743
   18      C      -0.1093408221    -1.0886796818     2.4396059210
   19      C      -4.0012344284     0.8889395369    -0.9749750801
   20      C      -4.2312869482     2.3905289147    -0.8085073775
   21      C      -2.8039300973     2.8841543986    -0.7154842225
   22      C      -2.0414675424     1.5720866375    -0.9376388169
   23      O      -2.8717206218     0.8447990640    -1.8098532738
   24      H      -4.0628996259     0.7678124096     1.2014233467
   25      H      -1.8105046812     1.3598784626     1.2161005733
   26      H      -4.9234504161     0.4099091600    -1.3688712974
   27      H      -4.6756410778     2.7677761309    -1.7573305585
   28      H      -4.8879905122     2.6738140759     0.0422517561
   29      H      -2.6198914733     3.5829875702    -1.5617460248
   30      H      -2.5294680393     3.3744061068     0.2436509902
   31      H      -1.0215372861     1.7996687413    -1.3107169734
   32      O       0.8600269303     0.2008084996    -1.1911550339
   33      C       1.6406259658     3.4055322909     1.0209430517
   34      C       4.2854464849     0.5510101462    -0.3842105277
   35      C       5.4215315479    -0.4566411330    -0.5691054454
   36      C       4.6964298121    -1.5678434396    -1.2964069678
   37      C       3.3104644243    -0.9361743357    -1.4523942547
   38      O       3.5798365389     0.4365224760    -1.5939276029
   39      H       3.9116486984    -0.3941517195     1.5147637001
   40      H       2.6067494025    -2.0050565168     0.3366925728
   41      H       1.9954463587     3.7921607331     1.9998599161
   42      H       4.7112662940     1.5528932373    -0.1567475827
   43      H       6.1609828154    -0.0024666537    -1.2670304630
   44      H       5.9395188668    -0.7590246817     0.3664425769
   45      H       5.1688215411    -1.7014374836    -2.2951682816
   46      H       4.6574454255    -2.5417753310    -0.7623403812
   47      H       2.7579625636    -1.4169475308    -2.2898783170
   48      H       0.5705446139     3.1134207065     1.0959320197
   49      H       1.7373646696     4.2077443412     0.2610936731
   50      H       0.4395010480    -0.5737784311     3.2487698124
   51      H       0.4802453923    -1.9781199091     2.1393214518
   52      H      -1.0745830934    -1.4032665228     2.8799581691
   53      H      -2.4973966851    -3.3524887415    -0.2204877704
   54      H      -1.3338384028    -3.4243843787     1.0519109295
   55      H      -0.9862880730    -2.4522981090    -1.5821903298
   56      H      -1.3577578041    -1.4592057572    -1.8133995905
 ----------------------------------------------------------------
 Molecular Point Group                 C1    NOp =  1
 Largest Abelian Subgroup              C1    NOp =  1
 Nuclear Repulsion Energy =  3617.8754577363 hartrees
 There are      113 alpha and      113 beta electrons


 *******************************************
 **  MAXIMUM OPTIMIZATION CYCLES REACHED  **
 *******************************************

 Q-Chem fatal error occurred in module 0, line  456, PE  0:

 Maximum optimization cycles reached

