mFile = /opt/software/qchem/qchem-5.0.1//bin/mpi/machines
Process 0 of 1 is on vega02.cac.cornell.edu - thread support 0
initial socket setup ...start
initial socket setup ...done 
now start server 0 ... 
vega02.cac.cornell.edu 10.84.3
Q-Chem Developer Version! Running on 10.84.3.*
                  Welcome to Q-Chem
     A Quantum Leap Into The Future Of Chemistry


 Q-Chem 5.0, Q-Chem, Inc., Pleasanton, CA (2017)

 Yihan Shao,  Zhengting Gan,  E. Epifanovsky,  A. T. B. Gilbert,  M. Wormit,  
 J. Kussmann,  A. W. Lange,  A. Behn,  Jia Deng,  Xintian Feng,  D. Ghosh,  
 M. Goldey,  P. R. Horn,  L. D. Jacobson,  I. Kaliman,  T. Kus,  A. Landau,  
 Jie Liu,  E. I. Proynov,  R. M. Richard,  R. P. Steele,  E. J. Sundstrom,  
 H. L. Woodcock III,  P. M. Zimmerman,  D. Zuev,  B. Albrecht,  E. Alguire,  
 S. A. Baeppler,  Z. Benda,  Y. A. Bernard,  E. J. Berquist,  K. B. Bravaya,  
 D. Casanova,  Chun-Min Chang,  Yunqing Chen,  A. Chien,  K. D. Closser,  
 M. P. Coons,  S. Dasgupta,  M. Diedenhofen,  Hainam Do,  R. G. Edgar,  
 Po-Tung Fang,  S. Fatehi,  Qingguo Feng,  Qinghui Ge,  A. Ghysels,  
 J. Gomes,  J. Gonthier,  A. Gunina,  M. W. D. Hanson-Heine,  
 P. H. P. Harbach,  A. W. Hauser,  J. E. Herr,  E. G. Hohenstein,  
 Z. C. Holden,  Kerwin Hui,  T.-C. Jagau,  Hyunjun Ji,  B. Kaduk,  
 K. Khistyaev,  Jaehoon Kim,  P. Klunzinger,  K. Koh,  D. Kosenkov,  
 T. Kowalczyk,  C. M. Krauter,  A. Kunitsa,  Ka Un Lao,  A. Laurent,  
 K. V. Lawler,  Joonho Lee,  D. Lefrancois,  S. Lehtola,  D. S. Levine,  
 Yi-Pei Li,  You-Sheng Lin,  Fenglai Liu,  E. Livshits,  A. Luenser,  
 P. Manohar,  E. Mansoor,  S. F. Manzer,  Shan-Ping Mao,  Yuezhi Mao,  
 N. Mardirossian,  A. V. Marenich,  L. A. Martinez-Martinez,  S. A. Maurer,  
 N. J. Mayhall,  S. C. McKenzie,  J.-M. Mewes,  A. F. Morrison,  K. Nanda,  
 T. S. Nguyen-Beck,  R. Olivares-Amaya,  J. A. Parkhill,  T. M. Perrine,  
 F. Plasser,  S. Prager,  A. Prociuk,  D. R. Rehn,  F. Rob,  M. Schneider,  
 N. Sergueev,  S. M. Sharada,  S. Sharma,  D. W. Small,  T. Stauch,  
 T. Stein,  Yu-Chuan Su,  A. J. W. Thom,  T. Tsuchimochi,  L. Vogt,  
 O. Vydrov,  M. A. Watson,  J. Wenzel,  M. de Wergifosse,  T. A. Wesolowski,  
 A. White,  J. Witte,  A. Yamada,  Jun Yang,  K. Yao,  S. Yeganeh,  
 S. R. Yost,  Zhi-Qiang You,  A. Zech,  Igor Ying Zhang,  Xing Zhang,  
 Yan Zhao,  Ying Zhu,  B. R. Brooks,  G. K. L. Chan,  C. J. Cramer,  
 M. S. Gordon,  W. J. Hehre,  A. Klamt,  M. W. Schmidt,  C. D. Sherrill,  
 D. G. Truhlar,  A. Aspuru-Guzik,  R. Baer,  A. T. Bell,  N. A. Besley,  
 Jeng-Da Chai,  A. Dreuw,  B. D. Dunietz,  T. R. Furlani,  Chao-Ping Hsu,  
 Yousung Jung,  Jing Kong,  D. S. Lambrecht,  WanZhen Liang,  C. Ochsenfeld,  
 V. A. Rassolov,  L. V. Slipchenko,  J. E. Subotnik,  T. Van Voorhis,  
 J. M. Herbert,  A. I. Krylov,  P. M. W. Gill,  M. Head-Gordon

 Contributors to earlier versions of Q-Chem not listed above: 
 R. D. Adamson,  B. Austin,  J. Baker,  G. J. O. Beran,  K. Brandhorst,  
 S. T. Brown,  E. F. C. Byrd,  A. K. Chakraborty,  C.-L. Cheng,  
 Siu Hung Chien,  D. M. Chipman,  D. L. Crittenden,  H. Dachsel,  
 R. A. DiStasio Jr.,  R. J. Doerksen,  A. D. Dutoi,  L. Fusti-Molnar,  
 W. A. Goddard III,  A. Golubeva-Zadorozhnaya,  S. R. Gwaltney,  G. Hawkins,  
 A. Heyden,  S. Hirata,  G. Kedziora,  F. J. Keil,  C. Kelley,  Jihan Kim,  
 R. A. King,  R. Z. Khaliullin,  P. P. Korambath,  W. Kurlancheek,  
 A. M. Lee,  M. S. Lee,  S. V. Levchenko,  Ching Yeh Lin,  D. Liotard,  
 R. C. Lochan,  I. Lotan,  P. E. Maslen,  N. Nair,  D. P. O'Neill,  
 D. Neuhauser,  E. Neuscamman,  C. M. Oana,  R. Olson,  B. Peters,  
 R. Peverati,  P. A. Pieniazek,  Y. M. Rhee,  J. Ritchie,  M. A. Rohrdanz,  
 E. Rosta,  N. J. Russ,  H. F. Schaefer III,  N. E. Schultz,  N. Shenvi,  
 A. C. Simmonett,  A. Sodt,  D. Stuck,  K. S. Thanthiriwatte,  V. Vanovschi,  
 Tao Wang,  A. Warshel,  C. F. Williams,  Q. Wu,  X. Xu,  W. Zhang

 Please cite Q-Chem as follows:
 Y. Shao et al., Mol. Phys. 113, 184-215 (2015)
 DOI: 10.1080/00268976.2014.952696

 Q-Chem 5.0.1 for Intel X86 EM64T Linux

 Parts of Q-Chem use Armadillo 5.200.1 (Boston Tea Smuggler).
 http://arma.sourceforge.net/

 Q-Chem begins on Sun Jan 14 15:46:48 2018  

Host: vega02.cac.cornell.edu
0

     Scratch files written to /scratch/jj585/SOT1001/0483c.save//
 Parallel job on  1  processors

Checking the input file for inconsistencies... 	...done.

--------------------------------------------------------------
User input:
--------------------------------------------------------------
$molecule
0  1
O -3.94934 -3.66094 2.70899
C -3.26408 -4.56952 2.26188
C -3.36658 -6.02376 2.66595
C -2.27432 -6.57256 3.5985
C -1.30151 -5.56245 4.16542
O -0.91947 -5.94027 5.4211
C 0.34486 -5.39515 5.81296
C 0.72263 -5.89152 7.20474
O 0.77354 -4.78682 8.12121
C 1.60414 -4.94643 9.1813
C 1.56799 -3.77861 10.13815
C 2.64112 -2.70775 9.89338
C 3.34348 -2.77062 8.55195
O 3.29454 -1.90985 7.68521
O -2.29497 -4.27277 1.35662
O 4.13422 -3.85577 8.34173
O 2.40199 -5.86789 9.30382
C 4.84336 -4.08988 7.18245
C 0.29491 -2.89632 10.05306
C 0.07988 -2.17454 11.38251
C 1.2264 -1.18634 11.35409
C 1.76826 -1.43894 9.94192
O 0.64075 -1.83334 9.20061
H 1.58487 -4.2121 11.1636
H 3.43498 -2.71828 10.67195
H -0.62309 -3.46319 9.78394
H -0.87672 -1.61157 11.28765
H 0.03207 -2.81921 12.28632
H 0.80724 -0.16017 11.44951
H 2.01502 -1.35145 12.11999
H 2.30656 -0.53845 9.57236
O -0.63538 -4.82074 3.45229
C -2.0373 -3.00392 0.8815
C -4.62459 -6.29859 3.52378
C -5.03281 -7.76306 3.39233
C -3.91962 -8.43047 4.16508
C -3.17482 -7.19889 4.6965
O -4.17701 -6.22864 4.85354
H -3.47288 -6.60233 1.72059
H -1.65251 -7.33865 3.08484
H -1.75022 -2.33274 1.71906
H -5.49027 -5.64969 3.26576
H -5.98282 -7.88508 3.96115
H -5.17953 -8.13259 2.35466
H -4.37358 -9.01327 4.99744
H -3.2488 -9.08318 3.56544
H -2.63547 -7.49327 5.62129
H -2.93405 -2.59912 0.36541
H -1.19836 -3.05022 0.15731
H 5.39868 -5.04483 7.28282
H 5.57078 -3.26907 7.00534
H 4.14762 -4.17007 6.31974
H 0.06703 -6.70967 7.57514
H 1.74357 -6.32337 7.08175
H 0.34935 -4.28123 5.77917
H 1.11449 -5.76209 5.09275
$end

$opt
CONSTRAINT
tors           1           2           3           4    -104.134
tors           3           4           5           6    +146.698
tors           4           5           6           7    +156.215
tors           5           6           7           8    -178.363
tors           6           7           8           9    -115.607
tors           7           8           9          10    -153.077
tors           8           9          10          11    -177.482
tors           9          10          11          12     -93.921
tors          11          12          13          14    +116.155
ENDCONSTRAINT
$end

$rem
JOBTYPE                   OPT
METHOD                    B3LYP
DFT_D                     d3_op
BASIS                     STO-3G
GEOM_OPT_MAX_CYCLES       100
GEOM_OPT_TOL_GRADIENT     300
GEOM_OPT_TOL_DISPLACEMENT 1200
GEOM_OPT_TOL_ENERGY       100
SYMMETRY                  False
THRESH                    12
SCF_CONVERGENCE           8
MAX_SUB_FILE_NUM          128
MEM_STATIC                400
MEM_TOTAL                 4000
$end
--------------------------------------------------------------
 Adding empirical dispersion correction 
 ----------------------------------------------------------------
 Doing -D3(op) with
 s6 =   1.00000
 s8 =   0.78311
 a1 =   0.30000
 a2 =   4.25000
 n  =  10.00000
 -D3 energy without 3body term =     -0.0644092886 hartrees
 ----------------------------------------------------------------
             Standard Nuclear Orientation (Angstroms)
    I     Atom           X                Y                Z
 ----------------------------------------------------------------
    1      O      -4.5308037499     1.0250341957     2.2721275239
    2      C      -4.7236383996     1.2192476917     1.0804471339
    3      C      -4.9667932342     0.1424227723     0.0460793986
    4      C      -3.8015568092    -0.2033880216    -0.8954628569
    5      C      -2.4684319278     0.4394261125    -0.5829763226
    6      O      -1.4533088186    -0.4090554445    -0.9221501675
    7      C      -0.2167119533     0.2656910686    -1.1766806341
    8      C       0.8552060071    -0.7385642886    -1.5872996569
    9      O       1.9020944450    -0.7662894199    -0.6043820130
   10      C       3.1236081070    -1.1351501596    -1.0637387897
   11      C       4.1662821741    -1.2033137959     0.0266083137
   12      C       4.9978132690     0.0749452643     0.2079127604
   13      C       4.4465988249     1.3213728677    -0.4548673823
   14      O       4.0722179517     2.3280908393     0.1290129406
   15      O      -4.6809391448     2.4936568378     0.6105657402
   16      O       4.4318024755     1.3187667712    -1.8138327957
   17      O       3.4051312688    -1.2759659358    -2.2476222008
   18      C       3.9602292677     2.3567665008    -2.5895856050
   19      C       3.6062289583    -1.3563743562     1.4651219560
   20      C       4.6621129817    -2.0008798100     2.3619849451
   21      C       5.6675281311    -0.8739000185     2.4664453378
   22      C       4.9052775357     0.2390987837     1.7371643053
   23      O       3.5506922404    -0.0490379668     1.9789215534
   24      H       4.7730843057    -2.1147152634    -0.1755914768
   25      H       6.0426864503    -0.0449977324    -0.1531267637
   26      H       2.6641080981    -1.9448231252     1.5163811243
   27      H       4.1867406347    -2.1463409970     3.3589199356
   28      H       5.0734017636    -2.9720986747     2.0122233465
   29      H       5.8096907789    -0.6294972094     3.5424945929
   30      H       6.6500860700    -1.0675412241     1.9838807238
   31      H       5.2626152083     1.2350797925     2.0800277498
   32      O      -2.3304799107     1.6540013889    -0.4924587171
   33      C      -4.4531816916     3.6044096032     1.3957205036
   34      C      -5.2144404710    -1.2393876921     0.6966665829
   35      C      -6.0338962793    -2.1171613754    -0.2449281234
   36      C      -5.0089058823    -2.4044676011    -1.3166652486
   37      C      -3.7701220249    -1.7426316715    -0.6991611517
   38      O      -3.9609367914    -1.8734879951     0.6853596201
   39      H      -5.8984201790     0.4316866739    -0.4907130153
   40      H      -4.0352037071     0.0762666511    -1.9464578858
   41      H      -3.4576767755     3.5305408600     1.8834885255
   42      H      -5.7232153354    -1.1822047759     1.6840498136
   43      H      -6.2499922714    -3.0629440008     0.3025769640
   44      H      -6.9891317888    -1.6786560256    -0.6055891661
   45      H      -4.8791280184    -3.5074480962    -1.3884317075
   46      H      -5.2374576423    -1.9823976356    -2.3192713444
   47      H      -2.8687898014    -2.2410495202    -1.1138591405
   48      H      -5.2454024722     3.6951337285     2.1693663260
   49      H      -4.4715385675     4.5111368743     0.7570313377
   50      H       4.0656098804     2.0870658190    -3.6603518775
   51      H       4.5465388782     3.2797082722    -2.3929733169
   52      H       2.8860257792     2.5384650355    -2.3708948744
   53      H       0.4528391771    -1.7540096634    -1.7955028451
   54      H       1.2561313241    -0.3439056476    -2.5503380224
   55      H       0.1219902754     0.8644208976    -0.2998778725
   56      H      -0.3785912939     0.9684475749    -2.0285058020
 ----------------------------------------------------------------
 Molecular Point Group                 C1    NOp =  1
 Largest Abelian Subgroup              C1    NOp =  1
 Nuclear Repulsion Energy =  3096.9324705786 hartrees
 There are      113 alpha and      113 beta electrons
 Requested basis set is STO-3G
 There are 86 shells and 176 basis functions

 Total QAlloc Memory Limit   4000 MB
 Mega-Array Size       392 MB
 MEM_STATIC part       400 MB
 A cutoff of  1.0D-12 yielded   1994 shell pairs
 There are      9278 function pairs
 
 -------------------------------------------------------
 OpenMP Integral Computing Module                       
 Release: version 1.0, May 2013, Q-Chem Inc. Pittsburgh 
 -------------------------------------------------------
 Integral Job Info:
 Integral job number is                      11
 Integral operator is                         1
 short-range coefficients                     0
 long-range coefficients              100000000
 Omega coefficients                           0
 if combine SR and LR in K                    0
 Integral screening is                        0
 Integral computing path is                   2
 max size of driver memory is            800000
 size of driver memory is                 45569
 size of scratch memory is              1046100
 max col of scratch BK array                289
 max len of scratch array in speh3           22
 max len of scratch index in speh4            8
 max int batch size is                      520
 min int batch size is                       52
 fixed nKL is                                52
 max L of basis functions is                  1
 order of int derivative is                   0
 number of shells is                         86
 number of basis is                         176
 number of cartesian basis is               176
 number of contracted shell pairs          1994
 number of primitive shell pairs          10507
 maxK2 (contraction) of shell pair            9
 max number of K2 of shell pair               1
 max number of CS2 of shell pair            289
 max number of PS2 of shell pair           1194
 mem total for path MDJ                   49782
 -------------------------------------------------------
 Smallest overlap matrix eigenvalue = 1.94E-01

 Scale SEOQF with 1.000000e-02/1.000000e-01/1.000000e-01

 Standard Electronic Orientation quadrupole field applied
 Nucleus-field energy     =     0.0000000055 hartrees
 Guess from superposition of atomic densities
 Warning:  Energy on first SCF cycle will be non-variational
 A restricted hybrid HF-DFT SCF calculation will be
 performed using Pulay DIIS extrapolation
 Exchange:     0.2000 Hartree-Fock + 0.0800 Slater + 0.7200 B88
 Correlation:  0.1900 VWN1RPA + 0.8100 LYP
 Using SG-1 standard quadrature grid
 Dispersion:   Grimme D3
 SCF converges when DIIS error is below 1.0E-08
 using 48 threads for integral computing
 -------------------------------------------------------
 OpenMP Integral computing Module                
 Release: version 1.0, May 2013, Q-Chem Inc. Pittsburgh 
 -------------------------------------------------------
 -------------------------------------------------------
 OpenMP BLAS3 based DFT computing Module                
 Release: version 1.0, May 2013, Q-Chem Inc. Pittsburgh 
 -------------------------------------------------------
 ---------------------------------------
  Cycle       Energy         DIIS Error
 ---------------------------------------
    1   -1509.4508982341      8.30E-02
    2   -1509.5896589042      1.05E-02
    3   -1507.5943413342      2.51E-02
    4   -1510.0890152083      3.42E-03
    5   -1510.1348194621      1.23E-03
    6   -1510.1409506854      4.19E-04
    7   -1510.1416407161      1.38E-04
    8   -1510.1417218362      2.64E-05
    9   -1510.1417248271      6.72E-06
   10   -1510.1417249865      3.29E-06
   11   -1510.1417250294      1.07E-06
   12   -1510.1417250344      1.96E-07
   13   -1510.1417250345      8.42E-08
   14   -1510.1417250346      4.09E-08
   15   -1510.1417250345      6.84E-09 Convergence criterion met
 ---------------------------------------
 SCF time:  CPU 110.89 s  wall 2.36 s
 SCF   energy in the final basis set = -1510.14172503
 Total energy in the final basis set = -1510.14172503
 
 --------------------------------------------------------------
 
                    Orbital Energies (a.u.)
 --------------------------------------------------------------
 
 Alpha MOs
 -- Occupied --
-18.950 -18.948 -18.930 -18.922 -18.896 -18.896 -18.870 -18.864
-18.856 -18.847 -10.112 -10.112 -10.110 -10.103 -10.089 -10.088
-10.082 -10.072 -10.066 -10.063 -10.063 -10.063 -10.043 -10.040
-10.036 -10.036 -10.015 -10.014 -10.013 -10.013  -1.051  -1.047
 -1.041  -1.033  -1.022  -1.021  -0.957  -0.951  -0.946  -0.938
 -0.783  -0.780  -0.751  -0.741  -0.736  -0.721  -0.712  -0.682
 -0.674  -0.632  -0.608  -0.588  -0.554  -0.550  -0.535  -0.535
 -0.529  -0.526  -0.504  -0.499  -0.487  -0.479  -0.465  -0.460
 -0.446  -0.444  -0.432  -0.429  -0.423  -0.420  -0.418  -0.415
 -0.413  -0.400  -0.393  -0.384  -0.380  -0.368  -0.366  -0.357
 -0.349  -0.346  -0.345  -0.342  -0.335  -0.328  -0.325  -0.315
 -0.312  -0.308  -0.305  -0.297  -0.293  -0.291  -0.286  -0.279
 -0.277  -0.252  -0.247  -0.233  -0.232  -0.224  -0.216  -0.188
 -0.183  -0.170  -0.165  -0.155  -0.154  -0.146  -0.146  -0.140
 -0.133
 -- Virtual --
  0.100   0.111   0.118   0.125   0.241   0.244   0.249   0.266
  0.297   0.300   0.332   0.333   0.336   0.342   0.350   0.352
  0.362   0.368   0.382   0.384   0.387   0.389   0.398   0.399
  0.403   0.405   0.407   0.412   0.416   0.421   0.422   0.424
  0.426   0.436   0.437   0.442   0.447   0.451   0.456   0.457
  0.464   0.471   0.474   0.476   0.480   0.482   0.487   0.490
  0.490   0.501   0.509   0.520   0.526   0.542   0.547   0.563
  0.565   0.583   0.583   0.677   0.683   0.694   0.699
 --------------------------------------------------------------
 
          Ground-State Mulliken Net Atomic Charges

     Atom                 Charge (a.u.)
  ----------------------------------------
      1 O                    -0.236910
      2 C                     0.236874
      3 C                    -0.082127
      4 C                    -0.078734
      5 C                     0.231649
      6 O                    -0.187777
      7 C                    -0.034139
      8 C                    -0.036888
      9 O                    -0.187394
     10 C                     0.231558
     11 C                    -0.083316
     12 C                    -0.079147
     13 C                     0.235152
     14 O                    -0.232294
     15 O                    -0.207835
     16 O                    -0.211839
     17 O                    -0.227776
     18 C                    -0.097273
     19 C                     0.039411
     20 C                    -0.142585
     21 C                    -0.144476
     22 C                     0.042200
     23 O                    -0.208847
     24 H                     0.087398
     25 H                     0.089150
     26 H                     0.085728
     27 H                     0.075298
     28 H                     0.070719
     29 H                     0.076524
     30 H                     0.071038
     31 H                     0.090666
     32 O                    -0.222931
     33 C                    -0.096021
     34 C                     0.041409
     35 C                    -0.142897
     36 C                    -0.144695
     37 C                     0.037949
     38 O                    -0.211206
     39 H                     0.084944
     40 H                     0.088209
     41 H                     0.089785
     42 H                     0.089427
     43 H                     0.074822
     44 H                     0.071208
     45 H                     0.074001
     46 H                     0.069480
     47 H                     0.088735
     48 H                     0.082778
     49 H                     0.093135
     50 H                     0.095792
     51 H                     0.086842
     52 H                     0.083889
     53 H                     0.095726
     54 H                     0.094045
     55 H                     0.105828
     56 H                     0.085740
  ----------------------------------------
  Sum of atomic charges =    -0.000000

 -----------------------------------------------------------------
                    Cartesian Multipole Moments
 -----------------------------------------------------------------
    Charge (ESU x 10^10)
                -0.0000
    Dipole Moment (Debye)
         X       0.0610      Y      -0.9291      Z      -2.6883
       Tot       2.8450
    Quadrupole Moments (Debye-Ang)
        XX    -140.7186     XY      -2.5875     YY    -157.1839
        XZ      10.6723     YZ      -3.8920     ZZ    -162.6520
    Octopole Moments (Debye-Ang^2)
       XXX      -6.9904    XXY       0.4730    XYY     -11.5168
       YYY      31.0760    XXZ       2.5811    XYZ     -41.1410
       YYZ      -0.4670    XZZ       7.7064    YZZ      24.8915
       ZZZ     -18.8031
    Hexadecapole Moments (Debye-Ang^3)
      XXXX  -15550.2674   XXXY     -25.5006   XXYY   -3100.0287
      XYYY    -131.4150   YYYY   -2537.3906   XXXZ      91.1634
      XXYZ     -47.3975   XYYZ    -115.6142   YYYZ      38.7542
      XXZZ   -3184.7787   XYZZ      53.0116   YYZZ    -766.9784
      XZZZ     -21.7118   YZZZ     -50.4539   ZZZZ   -2112.7454
 -----------------------------------------------------------------
 Calculating analytic gradient of the SCF energy
 Gradient of SCF Energy
            1           2           3           4           5           6
    1  -0.0072705  -0.0155573   0.0397261   0.0200301   0.0181846  -0.0137179
    2   0.0238448  -0.0070610  -0.0187322   0.0125230  -0.0149830   0.0619216
    3  -0.0680633  -0.0236917   0.0228836   0.0273434   0.0194475  -0.0017398
            7           8           9          10          11          12
    1  -0.0013720  -0.0109390   0.0401122  -0.0270710  -0.0098192  -0.0473613
    2  -0.0348826   0.0031365  -0.0113523  -0.0008921   0.0380255   0.0127675
    3  -0.0023535   0.0417430  -0.0577901   0.0103522  -0.0092982   0.0242932
           13          14          15          16          17          18
    1   0.0117745   0.0205837   0.0252430  -0.0453333  -0.0063862   0.0236134
    2  -0.0251088  -0.0516701   0.0058274   0.1090179   0.0132686  -0.0522404
    3  -0.0022063  -0.0454617   0.1202442   0.0363436   0.0579558   0.0097230
           19          20          21          22          23          24
    1   0.0346732  -0.0008274  -0.0443744  -0.0525430   0.0662900  -0.0028959
    2   0.0615220   0.0469131   0.0010297  -0.0506630  -0.0467676  -0.0114858
    3   0.0122466  -0.0236091  -0.0182723  -0.0101830  -0.0329131   0.0050029
           25          26          27          28          29          30
    1   0.0039319   0.0039883  -0.0049469   0.0042029  -0.0060747   0.0061595
    2   0.0036542  -0.0137793   0.0058012  -0.0071169  -0.0041549   0.0014486
    3  -0.0024710   0.0014494   0.0085022  -0.0006018   0.0114008  -0.0066984
           31          32          33          34          35          36
    1   0.0142467  -0.0132407  -0.0113149   0.0576792   0.0499357   0.0067085
    2  -0.0014899  -0.0557207  -0.0282232  -0.0218844   0.0187359   0.0225226
    3   0.0021315  -0.0205192  -0.0499393  -0.0431501  -0.0039937   0.0437368
           37          38          39          40          41          42
    1  -0.0393706  -0.0479588  -0.0097628  -0.0007812  -0.0003946  -0.0147021
    2   0.0182812   0.0333087  -0.0002381   0.0012581  -0.0055933  -0.0016283
    3   0.0591680  -0.0635220   0.0054942  -0.0041444  -0.0064876  -0.0031582
           43          44          45          46          47          48
    1   0.0052639  -0.0073700  -0.0044381   0.0009378  -0.0063582  -0.0026153
    2  -0.0092188   0.0016001  -0.0105294   0.0055569  -0.0069970  -0.0056427
    3   0.0047181  -0.0037749   0.0074521  -0.0069071  -0.0131152  -0.0066712
           49          50          51          52          53          54
    1   0.0004973  -0.0012988   0.0047299   0.0022786   0.0038407  -0.0060877
    2   0.0027853   0.0030235  -0.0073998  -0.0084094   0.0000436   0.0088535
    3   0.0023505  -0.0016811   0.0030183   0.0030414  -0.0037744   0.0002245
           55          56
    1  -0.0011402  -0.0013074
    2   0.0004106  -0.0032163
    3   0.0005041  -0.0045793
 Max gradient component =       1.202E-01
 RMS gradient           =       2.768E-02
 Gradient time:  CPU 31.14 s  wall 0.67 s
 Geometry Optimization Parameters
   NAtoms,    NIC,     NZ,  NCons,   NDum,   NFix, NCnnct, MaxDiis
       56     458       0       9       0       0       0       0


** CONSTRAINED OPTIMIZATION IN DELOCALIZED INTERNAL COORDINATES **
   Searching for a Minimum

   Optimization Cycle:   1

                       Coordinates (Angstroms)
     ATOM                X               Y               Z
      1  O        -4.5308037499    1.0250341957    2.2721275239
      2  C        -4.7236383996    1.2192476917    1.0804471339
      3  C        -4.9667932342    0.1424227723    0.0460793986
      4  C        -3.8015568092   -0.2033880216   -0.8954628569
      5  C        -2.4684319278    0.4394261125   -0.5829763226
      6  O        -1.4533088186   -0.4090554445   -0.9221501675
      7  C        -0.2167119533    0.2656910686   -1.1766806341
      8  C         0.8552060071   -0.7385642886   -1.5872996569
      9  O         1.9020944450   -0.7662894199   -0.6043820130
     10  C         3.1236081070   -1.1351501596   -1.0637387897
     11  C         4.1662821741   -1.2033137959    0.0266083137
     12  C         4.9978132690    0.0749452643    0.2079127604
     13  C         4.4465988249    1.3213728677   -0.4548673823
     14  O         4.0722179517    2.3280908393    0.1290129406
     15  O        -4.6809391448    2.4936568378    0.6105657402
     16  O         4.4318024755    1.3187667712   -1.8138327957
     17  O         3.4051312688   -1.2759659358   -2.2476222008
     18  C         3.9602292677    2.3567665008   -2.5895856050
     19  C         3.6062289583   -1.3563743562    1.4651219560
     20  C         4.6621129817   -2.0008798100    2.3619849451
     21  C         5.6675281311   -0.8739000185    2.4664453378
     22  C         4.9052775357    0.2390987837    1.7371643053
     23  O         3.5506922404   -0.0490379668    1.9789215534
     24  H         4.7730843057   -2.1147152634   -0.1755914768
     25  H         6.0426864503   -0.0449977324   -0.1531267637
     26  H         2.6641080981   -1.9448231252    1.5163811243
     27  H         4.1867406347   -2.1463409970    3.3589199356
     28  H         5.0734017636   -2.9720986747    2.0122233465
     29  H         5.8096907789   -0.6294972094    3.5424945929
     30  H         6.6500860700   -1.0675412241    1.9838807238
     31  H         5.2626152083    1.2350797925    2.0800277498
     32  O        -2.3304799107    1.6540013889   -0.4924587171
     33  C        -4.4531816916    3.6044096032    1.3957205036
     34  C        -5.2144404710   -1.2393876921    0.6966665829
     35  C        -6.0338962793   -2.1171613754   -0.2449281234
     36  C        -5.0089058823   -2.4044676011   -1.3166652486
     37  C        -3.7701220249   -1.7426316715   -0.6991611517
     38  O        -3.9609367914   -1.8734879951    0.6853596201
     39  H        -5.8984201790    0.4316866739   -0.4907130153
     40  H        -4.0352037071    0.0762666511   -1.9464578858
     41  H        -3.4576767755    3.5305408600    1.8834885255
     42  H        -5.7232153354   -1.1822047759    1.6840498136
     43  H        -6.2499922714   -3.0629440008    0.3025769640
     44  H        -6.9891317888   -1.6786560256   -0.6055891661
     45  H        -4.8791280184   -3.5074480962   -1.3884317075
     46  H        -5.2374576423   -1.9823976356   -2.3192713444
     47  H        -2.8687898014   -2.2410495202   -1.1138591405
     48  H        -5.2454024722    3.6951337285    2.1693663260
     49  H        -4.4715385675    4.5111368743    0.7570313377
     50  H         4.0656098804    2.0870658190   -3.6603518775
     51  H         4.5465388782    3.2797082722   -2.3929733169
     52  H         2.8860257792    2.5384650355   -2.3708948744
     53  H         0.4528391771   -1.7540096634   -1.7955028451
     54  H         1.2561313241   -0.3439056476   -2.5503380224
     55  H         0.1219902754    0.8644208976   -0.2998778725
     56  H        -0.3785912939    0.9684475749   -2.0285058020
   Point Group: c1    Number of degrees of freedom:   162


   Energy is  -1510.141725035

              Constraints and their Current Values
                                        Value     Constraint
   Dihedral:        1   2   3   4     -104.134     -104.134
   Dihedral:        3   4   5   6      146.698      146.698
   Dihedral:        4   5   6   7      156.215      156.215
   Dihedral:        5   6   7   8     -178.362     -178.363
   Dihedral:        6   7   8   9     -115.607     -115.607
   Dihedral:        7   8   9  10     -153.077     -153.077
   Dihedral:        8   9  10  11     -177.483     -177.482
   Dihedral:        9  10  11  12      -93.921      -93.921
   Dihedral:       11  12  13  14      116.155      116.155

 Attempting to Generate Delocalized Internal Coordinates

   Using Lagrange Multiplier Algorithm


171 Hessian modes will be used to form the next step
  Hessian Eigenvalues:
    -0.977753   -0.977753   -0.977753   -0.977753   -0.977753   -0.977753
    -0.977753   -0.977753   -0.977753    0.045000    0.045000    0.045000
     0.045000    0.045019    0.045039    0.045199    0.045594    0.045616
     0.047540    0.048883    0.048889    0.054355    0.059939    0.060002
     0.062539    0.062554    0.066997    0.067072    0.067241    0.067443
     0.069702    0.070837    0.071569    0.073713    0.073929    0.075555
     0.075798    0.076852    0.076997    0.082543    0.082581    0.083350
     0.083733    0.084328    0.084447    0.085859    0.085960    0.086222
     0.086614    0.086720    0.086888    0.088689    0.088717    0.088968
     0.089142    0.089728    0.089882    0.094000    0.094071    0.096652
     0.096741    0.111538    0.111547    0.114652    0.114661    0.115903
     0.115939    0.116555    0.116752    0.117565    0.119161    0.119350
     0.122822    0.123925    0.130365    0.130760    0.130944    0.140071
     0.140549    0.160000    0.160000    0.160000    0.160000    0.160000
     0.160000    0.171511    0.171993    0.172745    0.173095    0.220242
     0.220655    0.229190    0.237833    0.238064    0.248294    0.249836
     0.249919    0.250000    0.250000    0.250000    0.250000    0.250000
     0.250000    0.250000    0.250000    0.258069    0.258744    0.266769
     0.266967    0.277374    0.279405    0.280635    0.281488    0.295245
     0.296572    0.298740    0.308056    0.310698    0.310866    0.313314
     0.319627    0.320432    0.321343    0.321792    0.321817    0.322385
     0.322386    0.322943    0.323288    0.323494    0.323571    0.323654
     0.323915    0.323917    0.323971    0.324250    0.324339    0.324699
     0.324737    0.324739    0.324904    0.324919    0.324984    0.325669
     0.326805    0.326820    0.369786    0.371330    0.385271    0.387365
     0.401015    0.407721    0.492541    0.492871    0.517904    0.531403
     0.531614    0.537319    0.928883    0.931949    0.941950    0.942748
     1.022753    1.022753    1.022753    1.022753    1.022753    1.022753
     1.022753    1.022753    1.022753

 Minimum Search - Taking P-RFO Step
 Searching for Lamda that Maximizes Along the Constraint modes Only
 Value Taken    Lamda =   0.00058609
 Searching for Lamda that Minimizes Along All other modes
 Value Taken    Lamda =  -0.16449397
 Calculated Step too Large.  Step scaled by  0.526886
 Step Taken.  Stepsize is  0.300000

                             Maximum     Tolerance    Cnvgd?
         Gradient            0.107737       0.000300      NO
         Displacement        0.099249       0.001200      NO
         Energy change     *********       0.000001      NO


 New Cartesian Coordinates Obtained by Inverse Iteration

 Displacement from previous Coordinates is:  0.769131
 Adding empirical dispersion correction 
 ----------------------------------------------------------------
 Doing -D3(op) with
 s6 =   1.00000
 s8 =   0.78311
 a1 =   0.30000
 a2 =   4.25000
 n  =  10.00000
 -D3 energy without 3body term =     -0.0641559339 hartrees
 ----------------------------------------------------------------
             Standard Nuclear Orientation (Angstroms)
    I     Atom           X                Y                Z
 ----------------------------------------------------------------
    1      O      -4.5588424313     1.0266052704     2.3096171079
    2      C      -4.7597363690     1.2275062997     1.1019217225
    3      C      -5.0235488982     0.1437290152     0.0507338354
    4      C      -3.8479288612    -0.2094493329    -0.9071868019
    5      C      -2.4926767715     0.4446559685    -0.5821044821
    6      O      -1.4588151868    -0.4170304261    -0.9276757402
    7      C      -0.2104020352     0.2753228800    -1.1783528938
    8      C       0.8746959191    -0.7414343612    -1.5951181121
    9      O       1.9252214173    -0.7669998814    -0.5968466117
   10      C       3.1627634918    -1.1423342100    -1.0810948411
   11      C       4.2155385044    -1.2101139518     0.0314288530
   12      C       5.0521035377     0.0890454512     0.2157448820
   13      C       4.4814686675     1.3427926817    -0.4629591523
   14      O       4.0895627824     2.3644954537     0.1208672059
   15      O      -4.7229511480     2.5015164949     0.5764100108
   16      O       4.4878763049     1.2750729802    -1.8405090925
   17      O       3.4313373980    -1.2881780363    -2.2828631652
   18      C       3.9861831655     2.3404717088    -2.6111736111
   19      C       3.6405924898    -1.3660290049     1.4853566513
   20      C       4.7219238693    -2.0136881810     2.3879395291
   21      C       5.7363958431    -0.8602234745     2.4920379726
   22      C       4.9532204795     0.2677934041     1.7615588841
   23      O       3.5727808589    -0.0323663779     2.0087240946
   24      H       4.8288175566    -2.1122908787    -0.1708304343
   25      H       6.0961711379    -0.0282892278    -0.1412544430
   26      H       2.6976846085    -1.9492553751     1.5324077815
   27      H       4.2561537414    -2.1704977733     3.3819530603
   28      H       5.1350025986    -2.9767263165     2.0321154974
   29      H       5.8881274906    -0.6127034181     3.5605359674
   30      H       6.7134701977    -1.0479663893     2.0066380230
   31      H       5.2940042540     1.2693395200     2.0977826648
   32      O      -2.3393619333     1.6696701355    -0.4601750036
   33      C      -4.4712254678     3.6082176654     1.4085620334
   34      C      -5.2824030453    -1.2546624254     0.7076899769
   35      C      -6.1221317526    -2.1241682218    -0.2612640626
   36      C      -5.0820135254    -2.4131794233    -1.3560195542
   37      C      -3.8161935425    -1.7659423406    -0.7222239906
   38      O      -4.0083999038    -1.9109599896     0.6900055939
   39      H      -5.9486344798     0.4425276227    -0.4856736140
   40      H      -4.0814008412     0.0788332059    -1.9532215695
   41      H      -3.4730269017     3.5266026729     1.8932545971
   42      H      -5.7772325807    -1.1968822754     1.6996494595
   43      H      -6.3540865864    -3.0688174589     0.2708769319
   44      H      -7.0674544697    -1.6696051904    -0.6137104914
   45      H      -4.9587555331    -3.5097623580    -1.4502942150
   46      H      -5.3080270681    -1.9765057264    -2.3477444456
   47      H      -2.9106745384    -2.2560522633    -1.1333069424
   48      H      -5.2495499033     3.7035088341     2.1982509329
   49      H      -4.4868743410     4.5237072336     0.7833431399
   50      H       4.0876237870     2.0718618282    -3.6821471724
   51      H       4.5562811813     3.2775198807    -2.4237932574
   52      H       2.9104195188     2.5222588243    -2.3915926494
   53      H       0.4649104373    -1.7548853654    -1.8007608212
   54      H       1.2926490618    -0.3620999822    -2.5565735626
   55      H       0.1281421631     0.8699481080    -0.2988978063
   56      H      -0.3730970276     0.9852942310    -2.0227555902
 ----------------------------------------------------------------
 Molecular Point Group                 C1    NOp =  1
 Largest Abelian Subgroup              C1    NOp =  1
 Nuclear Repulsion Energy =  3065.0443520756 hartrees
 There are      113 alpha and      113 beta electrons
 Applying Cartesian multipole field
    Component          Value
    ---------          -----
     (2,0,0)        1.00000E-12
     (0,2,0)        2.00000E-11
     (0,0,2)       -3.00000E-11
 Nucleus-field energy     =     0.0000000050 hartrees
 Requested basis set is STO-3G
 There are 86 shells and 176 basis functions
 A cutoff of  1.0D-12 yielded   1980 shell pairs
 There are      9225 function pairs
 Smallest overlap matrix eigenvalue = 2.02E-01
 Guess MOs from SCF MO coefficient file
 Reading MOs from coefficient file
 Reading MOs from coefficient file
 A restricted hybrid HF-DFT SCF calculation will be
 performed using Pulay DIIS extrapolation
 Exchange:     0.2000 Hartree-Fock + 0.0800 Slater + 0.7200 B88
 Correlation:  0.1900 VWN1RPA + 0.8100 LYP
 Using SG-1 standard quadrature grid
 Dispersion:   Grimme D3
 SCF converges when DIIS error is below 1.0E-08
 Geometry optimization detected.  Setting ReadMinima to 0
 Setting SaveMinima to 0
 using 48 threads for integral computing
 -------------------------------------------------------
 OpenMP Integral computing Module                
 Release: version 1.0, May 2013, Q-Chem Inc. Pittsburgh 
 -------------------------------------------------------
 -------------------------------------------------------
 OpenMP BLAS3 based DFT computing Module                
 Release: version 1.0, May 2013, Q-Chem Inc. Pittsburgh 
 -------------------------------------------------------
 ---------------------------------------
  Cycle       Energy         DIIS Error
 ---------------------------------------
    1   -1510.0365871247      3.07E-03
    2   -1510.2064284050      9.63E-04
    3   -1510.2001515298      1.55E-03
    4   -1510.2102510247      2.85E-04
    5   -1510.2106283045      5.48E-05
    6   -1510.2106406918      2.14E-05
    7   -1510.2106421010      1.21E-05
    8   -1510.2106427402      2.04E-06
    9   -1510.2106427613      5.72E-07
   10   -1510.2106427623      3.52E-07
   11   -1510.2106427628      1.24E-07
   12   -1510.2106427628      2.00E-08
   13   -1510.2106427628      1.15E-08
   14   -1510.2106427629      6.52E-09 Convergence criterion met
 ---------------------------------------
 SCF time:  CPU 97.35 s  wall 2.03 s
 SCF   energy in the final basis set = -1510.21064276
 Total energy in the final basis set = -1510.21064276
 
 --------------------------------------------------------------
 
                    Orbital Energies (a.u.)
 --------------------------------------------------------------
 
 Alpha MOs
 -- Occupied --
-18.946 -18.943 -18.934 -18.926 -18.894 -18.893 -18.870 -18.866
-18.860 -18.851 -10.107 -10.107 -10.104 -10.098 -10.086 -10.085
-10.077 -10.068 -10.062 -10.061 -10.060 -10.060 -10.041 -10.041
-10.037 -10.035 -10.015 -10.015 -10.013 -10.013  -1.037  -1.033
 -1.029  -1.022  -1.001  -1.000  -0.948  -0.943  -0.939  -0.932
 -0.775  -0.772  -0.741  -0.732  -0.727  -0.713  -0.704  -0.676
 -0.668  -0.625  -0.603  -0.585  -0.551  -0.547  -0.534  -0.534
 -0.524  -0.521  -0.497  -0.492  -0.479  -0.471  -0.458  -0.454
 -0.439  -0.438  -0.426  -0.424  -0.416  -0.414  -0.413  -0.409
 -0.408  -0.394  -0.387  -0.378  -0.374  -0.360  -0.360  -0.353
 -0.346  -0.343  -0.341  -0.341  -0.331  -0.329  -0.326  -0.311
 -0.308  -0.305  -0.304  -0.296  -0.291  -0.288  -0.283  -0.277
 -0.275  -0.251  -0.247  -0.234  -0.233  -0.231  -0.224  -0.186
 -0.181  -0.171  -0.167  -0.154  -0.152  -0.147  -0.145  -0.142
 -0.136
 -- Virtual --
  0.096   0.105   0.111   0.117   0.238   0.239   0.245   0.258
  0.289   0.291   0.318   0.319   0.323   0.330   0.347   0.348
  0.351   0.360   0.370   0.372   0.380   0.381   0.383   0.385
  0.395   0.400   0.403   0.406   0.410   0.412   0.414   0.417
  0.421   0.426   0.431   0.432   0.435   0.438   0.444   0.445
  0.451   0.459   0.460   0.466   0.469   0.471   0.478   0.480
  0.484   0.490   0.493   0.499   0.501   0.526   0.526   0.554
  0.556   0.562   0.563   0.653   0.659   0.668   0.674
 --------------------------------------------------------------
 
          Ground-State Mulliken Net Atomic Charges

     Atom                 Charge (a.u.)
  ----------------------------------------
      1 O                    -0.227874
      2 C                     0.224464
      3 C                    -0.080916
      4 C                    -0.076480
      5 C                     0.220913
      6 O                    -0.183162
      7 C                    -0.037672
      8 C                    -0.040248
      9 O                    -0.181585
     10 C                     0.220954
     11 C                    -0.081711
     12 C                    -0.077701
     13 C                     0.222733
     14 O                    -0.223491
     15 O                    -0.193772
     16 O                    -0.197598
     17 O                    -0.220428
     18 C                    -0.105817
     19 C                     0.034340
     20 C                    -0.143625
     21 C                    -0.145249
     22 C                     0.036445
     23 O                    -0.199127
     24 H                     0.086849
     25 H                     0.088044
     26 H                     0.086179
     27 H                     0.075799
     28 H                     0.071553
     29 H                     0.076610
     30 H                     0.071616
     31 H                     0.090139
     32 O                    -0.216951
     33 C                    -0.104360
     34 C                     0.035748
     35 C                    -0.143902
     36 C                    -0.145428
     37 C                     0.032765
     38 O                    -0.201762
     39 H                     0.084358
     40 H                     0.087589
     41 H                     0.090426
     42 H                     0.089028
     43 H                     0.075118
     44 H                     0.071818
     45 H                     0.074674
     46 H                     0.070337
     47 H                     0.088863
     48 H                     0.083297
     49 H                     0.092700
     50 H                     0.095339
     51 H                     0.087184
     52 H                     0.084421
     53 H                     0.094628
     54 H                     0.093524
     55 H                     0.104954
     56 H                     0.085451
  ----------------------------------------
  Sum of atomic charges =     0.000000

 -----------------------------------------------------------------
                    Cartesian Multipole Moments
 -----------------------------------------------------------------
    Charge (ESU x 10^10)
                 0.0000
    Dipole Moment (Debye)
         X       0.0684      Y      -0.7888      Z      -2.6545
       Tot       2.7701
    Quadrupole Moments (Debye-Ang)
        XX    -139.7401     XY      -2.6452     YY    -156.8215
        XZ      10.6104     YZ      -3.7589     ZZ    -162.3608
    Octopole Moments (Debye-Ang^2)
       XXX      -7.6379    XXY       0.7971    XYY     -10.8903
       YYY      32.6878    XXZ       4.2822    XYZ     -43.0424
       YYZ      -0.2798    XZZ       7.0750    YZZ      25.5093
       ZZZ     -18.9797
    Hexadecapole Moments (Debye-Ang^3)
      XXXX  -15840.8205   XXXY     -28.2507   XXYY   -3152.9769
      XYYY    -144.9938   YYYY   -2553.4621   XXXZ      92.6842
      XXYZ     -45.2631   XYYZ    -118.9164   YYYZ      35.6260
      XXZZ   -3241.6015   XYZZ      49.7080   YYZZ    -772.5555
      XZZZ     -32.5521   YZZZ     -56.4545   ZZZZ   -2157.5874
 -----------------------------------------------------------------
 Calculating analytic gradient of the SCF energy
 Gradient of SCF Energy
            1           2           3           4           5           6
    1  -0.0020749  -0.0159575   0.0258887   0.0114683   0.0106530  -0.0069517
    2   0.0102263   0.0001221  -0.0094718   0.0103895  -0.0220357   0.0427686
    3  -0.0285957  -0.0314370   0.0120243   0.0125344   0.0218827  -0.0027630
            7           8           9          10          11          12
    1   0.0000357  -0.0077536   0.0248389  -0.0213486  -0.0015659  -0.0298555
    2  -0.0225386  -0.0029552  -0.0049603  -0.0025010   0.0233116   0.0084458
    3  -0.0014039   0.0318181  -0.0411897   0.0164766  -0.0098609   0.0144620
           13          14          15          16          17          18
    1   0.0128156   0.0094561   0.0194925  -0.0318362   0.0003604   0.0183676
    2  -0.0297916  -0.0210936   0.0038222   0.0742885   0.0091795  -0.0394500
    3  -0.0104658  -0.0188941   0.0821717   0.0237879   0.0264272   0.0062276
           19          20          21          22          23          24
    1   0.0163035  -0.0005768  -0.0213006  -0.0357056   0.0398672  -0.0042383
    2   0.0406610   0.0228289   0.0017958  -0.0272523  -0.0269714  -0.0086085
    3   0.0084226  -0.0149395  -0.0095785  -0.0051593  -0.0192667   0.0046631
           25          26          27          28          29          30
    1   0.0024011   0.0044977  -0.0034633   0.0021405  -0.0047342   0.0036152
    2   0.0033835  -0.0116019   0.0046273  -0.0046155  -0.0035964   0.0020207
    3  -0.0018536   0.0007002   0.0047104   0.0013935   0.0067856  -0.0038476
           31          32          33          34          35          36
    1   0.0123804  -0.0077396  -0.0092486   0.0385838   0.0247401   0.0051945
    2  -0.0019823  -0.0244154  -0.0199119  -0.0141973   0.0126376   0.0110531
    3   0.0010379  -0.0164501  -0.0385404  -0.0213913  -0.0020452   0.0208282
           37          38          39          40          41          42
    1  -0.0198896  -0.0281588  -0.0075875  -0.0003536   0.0009618  -0.0125714
    2   0.0103752   0.0207612  -0.0007613   0.0007801  -0.0024188  -0.0007313
    3   0.0394669  -0.0377090   0.0056524  -0.0022756  -0.0030033  -0.0036687
           43          44          45          46          47          48
    1   0.0043276  -0.0048879  -0.0036539   0.0015352  -0.0059425  -0.0023850
    2  -0.0052402  -0.0005608  -0.0061099   0.0028755  -0.0048698  -0.0022060
    3   0.0031799  -0.0017423   0.0054993  -0.0041533  -0.0116010  -0.0027610
           49          50          51          52          53          54
    1   0.0005409  -0.0012542   0.0033016  -0.0001066   0.0032435  -0.0039295
    2   0.0029662   0.0027789  -0.0027473  -0.0042543  -0.0000236   0.0065050
    3   0.0020720  -0.0020589   0.0012155   0.0012389  -0.0046672   0.0000346
           55          56
    1  -0.0006027  -0.0013372
    2   0.0014529  -0.0021830
    3  -0.0001387  -0.0032525
 Max gradient component =       8.217E-02
 RMS gradient           =       1.769E-02
 Gradient time:  CPU 31.44 s  wall 0.68 s
 Geometry Optimization Parameters
   NAtoms,    NIC,     NZ,  NCons,   NDum,   NFix, NCnnct, MaxDiis
       56     458       0       9       0       0       0       0

 Cartesian Hessian Update
 Hessian Updated using BFGS Update


** CONSTRAINED OPTIMIZATION IN DELOCALIZED INTERNAL COORDINATES **
   Searching for a Minimum

   Optimization Cycle:   2

                       Coordinates (Angstroms)
     ATOM                X               Y               Z
      1  O        -4.5588424313    1.0266052704    2.3096171079
      2  C        -4.7597363690    1.2275062997    1.1019217225
      3  C        -5.0235488982    0.1437290152    0.0507338354
      4  C        -3.8479288612   -0.2094493329   -0.9071868019
      5  C        -2.4926767715    0.4446559685   -0.5821044821
      6  O        -1.4588151868   -0.4170304261   -0.9276757402
      7  C        -0.2104020352    0.2753228800   -1.1783528938
      8  C         0.8746959191   -0.7414343612   -1.5951181121
      9  O         1.9252214173   -0.7669998814   -0.5968466117
     10  C         3.1627634918   -1.1423342100   -1.0810948411
     11  C         4.2155385044   -1.2101139518    0.0314288530
     12  C         5.0521035377    0.0890454512    0.2157448820
     13  C         4.4814686675    1.3427926817   -0.4629591523
     14  O         4.0895627824    2.3644954537    0.1208672059
     15  O        -4.7229511480    2.5015164949    0.5764100108
     16  O         4.4878763049    1.2750729802   -1.8405090925
     17  O         3.4313373980   -1.2881780363   -2.2828631652
     18  C         3.9861831655    2.3404717088   -2.6111736111
     19  C         3.6405924898   -1.3660290049    1.4853566513
     20  C         4.7219238693   -2.0136881810    2.3879395291
     21  C         5.7363958431   -0.8602234745    2.4920379726
     22  C         4.9532204795    0.2677934041    1.7615588841
     23  O         3.5727808589   -0.0323663779    2.0087240946
     24  H         4.8288175566   -2.1122908787   -0.1708304343
     25  H         6.0961711379   -0.0282892278   -0.1412544430
     26  H         2.6976846085   -1.9492553751    1.5324077815
     27  H         4.2561537414   -2.1704977733    3.3819530603
     28  H         5.1350025986   -2.9767263165    2.0321154974
     29  H         5.8881274906   -0.6127034181    3.5605359674
     30  H         6.7134701977   -1.0479663893    2.0066380230
     31  H         5.2940042540    1.2693395200    2.0977826648
     32  O        -2.3393619333    1.6696701355   -0.4601750036
     33  C        -4.4712254678    3.6082176654    1.4085620334
     34  C        -5.2824030453   -1.2546624254    0.7076899769
     35  C        -6.1221317526   -2.1241682218   -0.2612640626
     36  C        -5.0820135254   -2.4131794233   -1.3560195542
     37  C        -3.8161935425   -1.7659423406   -0.7222239906
     38  O        -4.0083999038   -1.9109599896    0.6900055939
     39  H        -5.9486344798    0.4425276227   -0.4856736140
     40  H        -4.0814008412    0.0788332059   -1.9532215695
     41  H        -3.4730269017    3.5266026729    1.8932545971
     42  H        -5.7772325807   -1.1968822754    1.6996494595
     43  H        -6.3540865864   -3.0688174589    0.2708769319
     44  H        -7.0674544697   -1.6696051904   -0.6137104914
     45  H        -4.9587555331   -3.5097623580   -1.4502942150
     46  H        -5.3080270681   -1.9765057264   -2.3477444456
     47  H        -2.9106745384   -2.2560522633   -1.1333069424
     48  H        -5.2495499033    3.7035088341    2.1982509329
     49  H        -4.4868743410    4.5237072336    0.7833431399
     50  H         4.0876237870    2.0718618282   -3.6821471724
     51  H         4.5562811813    3.2775198807   -2.4237932574
     52  H         2.9104195188    2.5222588243   -2.3915926494
     53  H         0.4649104373   -1.7548853654   -1.8007608212
     54  H         1.2926490618   -0.3620999822   -2.5565735626
     55  H         0.1281421631    0.8699481080   -0.2988978063
     56  H        -0.3730970276    0.9852942310   -2.0227555902
   Point Group: c1    Number of degrees of freedom:   162


   Energy is  -1510.210642763

              Constraints and their Current Values
                                        Value     Constraint
   Dihedral:        1   2   3   4     -104.118     -104.134
   Dihedral:        3   4   5   6      146.711      146.698
   Dihedral:        4   5   6   7      156.162      156.215
   Dihedral:        5   6   7   8     -178.354     -178.363
   Dihedral:        6   7   8   9     -115.634     -115.607
   Dihedral:        7   8   9  10     -153.050     -153.077
   Dihedral:        8   9  10  11     -177.476     -177.482
   Dihedral:        9  10  11  12      -93.903      -93.921
   Dihedral:       11  12  13  14      116.150      116.155
 Hessian Updated using BFGS Update

   Using Lagrange Multiplier Algorithm


159 Hessian modes will be used to form the next step
  Hessian Eigenvalues:
    -0.977753   -0.977753   -0.977753   -0.977753   -0.977753   -0.977753
    -0.977753   -0.977753   -0.977374    0.044994    0.045000    0.045008
     0.045044    0.045179    0.045594    0.045616    0.047572    0.048883
     0.048889    0.054317    0.059807    0.059981    0.062548    0.062559
     0.066998    0.067072    0.067239    0.067428    0.069690    0.070845
     0.071560    0.073709    0.073928    0.075529    0.075794    0.076802
     0.076946    0.082543    0.082578    0.083353    0.083731    0.084319
     0.084415    0.085856    0.085958    0.086210    0.086600    0.086708
     0.086872    0.088602    0.088700    0.088993    0.089171    0.089760
     0.089925    0.094004    0.094093    0.096648    0.096746    0.111542
     0.111616    0.114656    0.114691    0.115903    0.115939    0.116558
     0.116753    0.117692    0.119140    0.119372    0.122834    0.123918
     0.130348    0.130775    0.130964    0.140093    0.140548    0.159587
     0.161687    0.171663    0.172075    0.172744    0.173079    0.219055
     0.220398    0.227240    0.231392    0.237870    0.238099    0.248322
     0.249863    0.249942    0.253490    0.258388    0.260101    0.266840
     0.267259    0.277637    0.279943    0.280917    0.287420    0.295787
     0.297486    0.301540    0.308290    0.310579    0.312485    0.319620
     0.319998    0.320432    0.321340    0.321803    0.322101    0.322378
     0.322547    0.323084    0.323440    0.323548    0.323621    0.323706
     0.323913    0.323933    0.323975    0.324273    0.324363    0.324658
     0.324723    0.324801    0.324911    0.324963    0.325657    0.326740
     0.326813    0.330216    0.369761    0.371331    0.386289    0.400191
     0.406179    0.420899    0.477000    0.492710    0.518723    0.526744
     0.531512    0.537135    0.929758    0.933836    0.942344    0.991114
     1.022753    1.022753    1.022753    1.022753    1.022753    1.022753
     1.022753    1.022753    1.027309

 Minimum Search - Taking P-RFO Step
 Searching for Lamda that Maximizes Along the Constraint modes Only
 Value Taken    Lamda =   0.00003439
 Searching for Lamda that Minimizes Along All other modes
 Value Taken    Lamda =  -0.07655210
 Calculated Step too Large.  Step scaled by  0.621694
 Step Taken.  Stepsize is  0.300000

                             Maximum     Tolerance    Cnvgd?
         Gradient            0.062114       0.000300      NO
         Displacement        0.088477       0.001200      NO
         Energy change     -0.068918       0.000001      NO


 New Cartesian Coordinates Obtained by Inverse Iteration

 Displacement from previous Coordinates is:  0.618881
 Adding empirical dispersion correction 
 ----------------------------------------------------------------
 Doing -D3(op) with
 s6 =   1.00000
 s8 =   0.78311
 a1 =   0.30000
 a2 =   4.25000
 n  =  10.00000
 -D3 energy without 3body term =     -0.0641561048 hartrees
 ----------------------------------------------------------------
             Standard Nuclear Orientation (Angstroms)
    I     Atom           X                Y                Z
 ----------------------------------------------------------------
    1      O      -4.5492097751     1.0612435438     2.3125796430
    2      C      -4.7570049673     1.2446945615     1.0960012941
    3      C      -5.0496345914     0.1502854823     0.0388946734
    4      C      -3.8696429893    -0.2200201676    -0.9255175390
    5      C      -2.4998464558     0.4376653185    -0.5875892562
    6      O      -1.4602983187    -0.4484082156    -0.9330645925
    7      C      -0.2080478811     0.2716841449    -1.1734217474
    8      C       0.8865995567    -0.7523678540    -1.5897329516
    9      O       1.9327758258    -0.7680859322    -0.5670451629
   10      C       3.1786919782    -1.1500991401    -1.0854824902
   11      C       4.2424312874    -1.2149899715     0.0389700371
   12      C       5.0806725427     0.0998122500     0.2167473646
   13      C       4.4850152313     1.3530901938    -0.4812067166
   14      O       4.0757853106     2.3886327397     0.0804617944
   15      O      -4.7267540876     2.5139418481     0.5104664179
   16      O       4.5050814294     1.2183650318    -1.8735136951
   17      O       3.4157351355    -1.3093545967    -2.2996669114
   18      C       3.9539728371     2.3307334697    -2.5970662343
   19      C       3.6583316670    -1.3683653538     1.5019835550
   20      C       4.7623238940    -2.0098078397     2.4054725631
   21      C       5.7790513690    -0.8374804869     2.5017379171
   22      C       4.9785409148     0.2972532112     1.7717445043
   23      O       3.5775774373    -0.0125015601     2.0281090497
   24      H       4.8672069907    -2.1053291187    -0.1659147343
   25      H       6.1229014615    -0.0171011294    -0.1395087944
   26      H       2.7104648932    -1.9401883961     1.5483002270
   27      H       4.3116514463    -2.1769110662     3.4007321868
   28      H       5.1776576187    -2.9648658236     2.0403126094
   29      H       5.9453502553    -0.5823278076     3.5626074968
   30      H       6.7491032693    -1.0242365117     2.0093368092
   31      H       5.2953198801     1.3084156291     2.0964350952
   32      O      -2.3199690586     1.6620162332    -0.4252448363
   33      C      -4.4392971030     3.5883085440     1.4201881976
   34      C      -5.3238903546    -1.2537189178     0.7075953071
   35      C      -6.1781294259    -2.1144479241    -0.2799612074
   36      C      -5.1285667691    -2.4117418759    -1.3860253119
   37      C      -3.8413260022    -1.7843851032    -0.7422566241
   38      O      -4.0369213262    -1.9352192012     0.6926006317
   39      H      -5.9628422051     0.4612128006    -0.5051268645
   40      H      -4.0994057490     0.0731526002    -1.9692116447
   41      H      -3.4403181991     3.4662858518     1.8917405173
   42      H      -5.7985183888    -1.1869549505     1.7068302686
   43      H      -6.4328794938    -3.0564128054     0.2387827145
   44      H      -7.1096880760    -1.6380813307    -0.6304267278
   45      H      -5.0143270799    -3.5039165743    -1.4987946294
   46      H      -5.3510242041    -1.9619039809    -2.3690180789
   47      H      -2.9265981333    -2.2682710000    -1.1369371207
   48      H      -5.2041979419     3.6611353985     2.2236891570
   49      H      -4.4456899328     4.5256148951     0.8312581356
   50      H       4.0316598105     2.0892749203    -3.6747184310
   51      H       4.5132599641     3.2700717033    -2.3959389043
   52      H       2.8846702236     2.4948019256    -2.3410547292
   53      H       0.4661267923    -1.7638458397    -1.7838494276
   54      H       1.3262404480    -0.3952210669    -2.5490425235
   55      H       0.1259678183     0.8602103304    -0.2890524782
   56      H      -0.3704614579     0.9878566478    -2.0109055229
 ----------------------------------------------------------------
 Molecular Point Group                 C1    NOp =  1
 Largest Abelian Subgroup              C1    NOp =  1
 Nuclear Repulsion Energy =  3050.2742709104 hartrees
 There are      113 alpha and      113 beta electrons
 Applying Cartesian multipole field
    Component          Value
    ---------          -----
     (2,0,0)        1.00000E-12
     (0,2,0)        2.00000E-11
     (0,0,2)       -3.00000E-11
 Nucleus-field energy     =     0.0000000047 hartrees
 Requested basis set is STO-3G
 There are 86 shells and 176 basis functions
 A cutoff of  1.0D-12 yielded   1976 shell pairs
 There are      9206 function pairs
 Smallest overlap matrix eigenvalue = 2.07E-01
 Guess MOs from SCF MO coefficient file
 Reading MOs from coefficient file
 Reading MOs from coefficient file
 A restricted hybrid HF-DFT SCF calculation will be
 performed using Pulay DIIS extrapolation
 Exchange:     0.2000 Hartree-Fock + 0.0800 Slater + 0.7200 B88
 Correlation:  0.1900 VWN1RPA + 0.8100 LYP
 Using SG-1 standard quadrature grid
 Dispersion:   Grimme D3
 SCF converges when DIIS error is below 1.0E-08
 Geometry optimization detected.  Setting ReadMinima to 0
 Setting SaveMinima to 0
 using 48 threads for integral computing
 -------------------------------------------------------
 OpenMP Integral computing Module                
 Release: version 1.0, May 2013, Q-Chem Inc. Pittsburgh 
 -------------------------------------------------------
 -------------------------------------------------------
 OpenMP BLAS3 based DFT computing Module                
 Release: version 1.0, May 2013, Q-Chem Inc. Pittsburgh 
 -------------------------------------------------------
 ---------------------------------------
  Cycle       Energy         DIIS Error
 ---------------------------------------
    1   -1510.1045875562      2.74E-03
    2   -1510.2438744068      8.86E-04
    3   -1510.2374801403      1.51E-03
    4   -1510.2471694257      2.42E-04
    5   -1510.2474382897      5.01E-05
    6   -1510.2474486251      1.95E-05
    7   -1510.2474497085      1.22E-05
    8   -1510.2474503576      2.30E-06
    9   -1510.2474503851      5.19E-07
   10   -1510.2474503858      3.46E-07
   11   -1510.2474503863      1.20E-07
   12   -1510.2474503863      2.61E-08
   13   -1510.2474503864      1.33E-08
   14   -1510.2474503864      8.44E-09 Convergence criterion met
 ---------------------------------------
 SCF time:  CPU 98.10 s  wall 2.05 s
 SCF   energy in the final basis set = -1510.24745039
 Total energy in the final basis set = -1510.24745039
 
 --------------------------------------------------------------
 
                    Orbital Energies (a.u.)
 --------------------------------------------------------------
 
 Alpha MOs
 -- Occupied --
-18.943 -18.940 -18.937 -18.929 -18.891 -18.891 -18.873 -18.870
-18.866 -18.858 -10.103 -10.103 -10.101 -10.095 -10.081 -10.080
-10.071 -10.062 -10.060 -10.059 -10.058 -10.057 -10.041 -10.040
-10.037 -10.034 -10.016 -10.016 -10.014 -10.014  -1.028  -1.025
 -1.021  -1.014  -0.985  -0.985  -0.944  -0.939  -0.937  -0.930
 -0.770  -0.767  -0.735  -0.727  -0.721  -0.709  -0.699  -0.670
 -0.662  -0.619  -0.600  -0.582  -0.548  -0.546  -0.534  -0.534
 -0.521  -0.517  -0.491  -0.486  -0.473  -0.464  -0.454  -0.449
 -0.436  -0.434  -0.423  -0.420  -0.412  -0.410  -0.410  -0.405
 -0.404  -0.389  -0.381  -0.373  -0.369  -0.357  -0.354  -0.350
 -0.345  -0.341  -0.339  -0.337  -0.331  -0.331  -0.325  -0.310
 -0.307  -0.304  -0.303  -0.296  -0.291  -0.287  -0.281  -0.275
 -0.273  -0.252  -0.249  -0.243  -0.238  -0.233  -0.232  -0.185
 -0.180  -0.173  -0.170  -0.154  -0.151  -0.148  -0.146  -0.143
 -0.140
 -- Virtual --
  0.094   0.101   0.106   0.112   0.235   0.238   0.243   0.254
  0.282   0.285   0.306   0.307   0.313   0.320   0.339   0.341
  0.344   0.353   0.359   0.360   0.364   0.368   0.376   0.380
  0.386   0.393   0.398   0.403   0.406   0.410   0.412   0.415
  0.418   0.419   0.422   0.426   0.430   0.433   0.440   0.441
  0.445   0.447   0.450   0.457   0.459   0.467   0.469   0.470
  0.476   0.477   0.482   0.493   0.494   0.519   0.519   0.548
  0.549   0.554   0.555   0.640   0.647   0.654   0.661
 --------------------------------------------------------------
 
          Ground-State Mulliken Net Atomic Charges

     Atom                 Charge (a.u.)
  ----------------------------------------
      1 O                    -0.221349
      2 C                     0.216526
      3 C                    -0.080909
      4 C                    -0.075750
      5 C                     0.214297
      6 O                    -0.178440
      7 C                    -0.041915
      8 C                    -0.044839
      9 O                    -0.175934
     10 C                     0.214127
     11 C                    -0.081096
     12 C                    -0.077239
     13 C                     0.214581
     14 O                    -0.217176
     15 O                    -0.179684
     16 O                    -0.183287
     17 O                    -0.215191
     18 C                    -0.116044
     19 C                     0.030172
     20 C                    -0.144170
     21 C                    -0.145806
     22 C                     0.031198
     23 O                    -0.191785
     24 H                     0.086270
     25 H                     0.087269
     26 H                     0.086825
     27 H                     0.076497
     28 H                     0.072281
     29 H                     0.076895
     30 H                     0.072189
     31 H                     0.089371
     32 O                    -0.212630
     33 C                    -0.114430
     34 C                     0.030580
     35 C                    -0.144442
     36 C                    -0.145865
     37 C                     0.028328
     38 O                    -0.194637
     39 H                     0.083978
     40 H                     0.087067
     41 H                     0.091768
     42 H                     0.088296
     43 H                     0.075711
     44 H                     0.072407
     45 H                     0.075423
     46 H                     0.071148
     47 H                     0.089335
     48 H                     0.084500
     49 H                     0.091238
     50 H                     0.093844
     51 H                     0.088358
     52 H                     0.085692
     53 H                     0.093330
     54 H                     0.093857
     55 H                     0.104295
     56 H                     0.084967
  ----------------------------------------
  Sum of atomic charges =     0.000000

 -----------------------------------------------------------------
                    Cartesian Multipole Moments
 -----------------------------------------------------------------
    Charge (ESU x 10^10)
                 0.0000
    Dipole Moment (Debye)
         X       0.1018      Y      -0.7319      Z      -2.5299
       Tot       2.6356
    Quadrupole Moments (Debye-Ang)
        XX    -138.8811     XY      -2.4471     YY    -157.0002
        XZ      10.7599     YZ      -3.5812     ZZ    -162.3076
    Octopole Moments (Debye-Ang^2)
       XXX      -5.7717    XXY      -0.8527    XYY      -8.3623
       YYY      32.4733    XXZ       6.9101    XYZ     -42.8846
       YYZ       0.4112    XZZ       4.8697    YZZ      25.3094
       ZZZ     -16.2051
    Hexadecapole Moments (Debye-Ang^3)
      XXXX  -15936.1366   XXXY     -26.7115   XXYY   -3179.3700
      XYYY    -145.1049   YYYY   -2558.5307   XXXZ      82.9105
      XXYZ     -41.2202   XYYZ    -120.3157   YYYZ      29.7509
      XXZZ   -3259.7780   XYZZ      45.0157   YYZZ    -774.1926
      XZZZ     -53.3048   YZZZ     -62.1951   ZZZZ   -2173.7371
 -----------------------------------------------------------------
 Calculating analytic gradient of the SCF energy
 Gradient of SCF Energy
            1           2           3           4           5           6
    1  -0.0001153  -0.0117198   0.0155827   0.0058406   0.0055861  -0.0038418
    2   0.0042390   0.0041519  -0.0028448   0.0063853  -0.0194374   0.0235448
    3  -0.0107588  -0.0202998   0.0025329   0.0032093   0.0217841  -0.0033733
            7           8           9          10          11          12
    1  -0.0000284  -0.0056702   0.0146331  -0.0145827   0.0024488  -0.0160117
    2  -0.0110904  -0.0073090   0.0003774  -0.0034001   0.0134225   0.0027555
    3   0.0004996   0.0209396  -0.0234086   0.0127411  -0.0075265   0.0072638
           13          14          15          16          17          18
    1   0.0068460   0.0043768   0.0130791  -0.0177241   0.0022182   0.0113787
    2  -0.0186786  -0.0075231   0.0005589   0.0400374   0.0070247  -0.0231770
    3  -0.0101936  -0.0076627   0.0445305   0.0139467   0.0098907   0.0052318
           19          20          21          22          23          24
    1   0.0058360   0.0007884  -0.0081224  -0.0222290   0.0198665  -0.0043463
    2   0.0251167   0.0094735   0.0008244  -0.0127947  -0.0133287  -0.0060609
    3   0.0050339  -0.0099274  -0.0050667  -0.0016804  -0.0089610   0.0039972
           25          26          27          28          29          30
    1   0.0012076   0.0041283  -0.0021331   0.0006650  -0.0036852   0.0016601
    2   0.0026145  -0.0088224   0.0039367  -0.0027896  -0.0027720   0.0020496
    3  -0.0012717   0.0001109   0.0021449   0.0023097   0.0035478  -0.0018547
           31          32          33          34          35          36
    1   0.0096842  -0.0038064  -0.0062774   0.0239602   0.0105429   0.0026888
    2  -0.0019738  -0.0074919  -0.0131284  -0.0087717   0.0087705   0.0055138
    3  -0.0000407  -0.0126669  -0.0223085  -0.0085259  -0.0023163   0.0080551
           37          38          39          40          41          42
    1  -0.0085581  -0.0136580  -0.0052439  -0.0001735   0.0007537  -0.0095339
    2   0.0056287   0.0102881  -0.0012444   0.0007363  -0.0007775   0.0001001
    3   0.0239657  -0.0188931   0.0047345  -0.0009204  -0.0011998  -0.0035135
           43          44          45          46          47          48
    1   0.0036754  -0.0030410  -0.0026021   0.0016175  -0.0045136  -0.0013360
    2  -0.0026336  -0.0016430  -0.0029571   0.0011087  -0.0028909  -0.0005680
    3   0.0018220  -0.0003154   0.0041223  -0.0020636  -0.0091922  -0.0009880
           49          50          51          52          53          54
    1   0.0003213  -0.0007100   0.0016845  -0.0004211   0.0020088  -0.0022964
    2   0.0014834   0.0015244  -0.0008084  -0.0018353   0.0000887   0.0046338
    3   0.0011910  -0.0009987   0.0002588   0.0003117  -0.0049927  -0.0001808
           55          56
    1   0.0001743  -0.0008719
    2   0.0020036  -0.0016404
    3  -0.0008451  -0.0022287
 Max gradient component =       4.453E-02
 RMS gradient           =       1.005E-02
 Gradient time:  CPU 29.38 s  wall 0.63 s
 Geometry Optimization Parameters
   NAtoms,    NIC,     NZ,  NCons,   NDum,   NFix, NCnnct, MaxDiis
       56     458       0       9       0       0       0       0

 Cartesian Hessian Update
 Hessian Updated using BFGS Update


** CONSTRAINED OPTIMIZATION IN DELOCALIZED INTERNAL COORDINATES **
   Searching for a Minimum

   Optimization Cycle:   3

                       Coordinates (Angstroms)
     ATOM                X               Y               Z
      1  O        -4.5492097751    1.0612435438    2.3125796430
      2  C        -4.7570049673    1.2446945615    1.0960012941
      3  C        -5.0496345914    0.1502854823    0.0388946734
      4  C        -3.8696429893   -0.2200201676   -0.9255175390
      5  C        -2.4998464558    0.4376653185   -0.5875892562
      6  O        -1.4602983187   -0.4484082156   -0.9330645925
      7  C        -0.2080478811    0.2716841449   -1.1734217474
      8  C         0.8865995567   -0.7523678540   -1.5897329516
      9  O         1.9327758258   -0.7680859322   -0.5670451629
     10  C         3.1786919782   -1.1500991401   -1.0854824902
     11  C         4.2424312874   -1.2149899715    0.0389700371
     12  C         5.0806725427    0.0998122500    0.2167473646
     13  C         4.4850152313    1.3530901938   -0.4812067166
     14  O         4.0757853106    2.3886327397    0.0804617944
     15  O        -4.7267540876    2.5139418481    0.5104664179
     16  O         4.5050814294    1.2183650318   -1.8735136951
     17  O         3.4157351355   -1.3093545967   -2.2996669114
     18  C         3.9539728371    2.3307334697   -2.5970662343
     19  C         3.6583316670   -1.3683653538    1.5019835550
     20  C         4.7623238940   -2.0098078397    2.4054725631
     21  C         5.7790513690   -0.8374804869    2.5017379171
     22  C         4.9785409148    0.2972532112    1.7717445043
     23  O         3.5775774373   -0.0125015601    2.0281090497
     24  H         4.8672069907   -2.1053291187   -0.1659147343
     25  H         6.1229014615   -0.0171011294   -0.1395087944
     26  H         2.7104648932   -1.9401883961    1.5483002270
     27  H         4.3116514463   -2.1769110662    3.4007321868
     28  H         5.1776576187   -2.9648658236    2.0403126094
     29  H         5.9453502553   -0.5823278076    3.5626074968
     30  H         6.7491032693   -1.0242365117    2.0093368092
     31  H         5.2953198801    1.3084156291    2.0964350952
     32  O        -2.3199690586    1.6620162332   -0.4252448363
     33  C        -4.4392971030    3.5883085440    1.4201881976
     34  C        -5.3238903546   -1.2537189178    0.7075953071
     35  C        -6.1781294259   -2.1144479241   -0.2799612074
     36  C        -5.1285667691   -2.4117418759   -1.3860253119
     37  C        -3.8413260022   -1.7843851032   -0.7422566241
     38  O        -4.0369213262   -1.9352192012    0.6926006317
     39  H        -5.9628422051    0.4612128006   -0.5051268645
     40  H        -4.0994057490    0.0731526002   -1.9692116447
     41  H        -3.4403181991    3.4662858518    1.8917405173
     42  H        -5.7985183888   -1.1869549505    1.7068302686
     43  H        -6.4328794938   -3.0564128054    0.2387827145
     44  H        -7.1096880760   -1.6380813307   -0.6304267278
     45  H        -5.0143270799   -3.5039165743   -1.4987946294
     46  H        -5.3510242041   -1.9619039809   -2.3690180789
     47  H        -2.9265981333   -2.2682710000   -1.1369371207
     48  H        -5.2041979419    3.6611353985    2.2236891570
     49  H        -4.4456899328    4.5256148951    0.8312581356
     50  H         4.0316598105    2.0892749203   -3.6747184310
     51  H         4.5132599641    3.2700717033   -2.3959389043
     52  H         2.8846702236    2.4948019256   -2.3410547292
     53  H         0.4661267923   -1.7638458397   -1.7838494276
     54  H         1.3262404480   -0.3952210669   -2.5490425235
     55  H         0.1259678183    0.8602103304   -0.2890524782
     56  H        -0.3704614579    0.9878566478   -2.0109055229
   Point Group: c1    Number of degrees of freedom:   162


   Energy is  -1510.247450386

              Constraints and their Current Values
                                        Value     Constraint
   Dihedral:        1   2   3   4     -104.137     -104.134
   Dihedral:        3   4   5   6      146.710      146.698
   Dihedral:        4   5   6   7      156.203      156.215
   Dihedral:        5   6   7   8     -178.362     -178.363
   Dihedral:        6   7   8   9     -115.620     -115.607
   Dihedral:        7   8   9  10     -153.077     -153.077
   Dihedral:        8   9  10  11     -177.480     -177.482
   Dihedral:        9  10  11  12      -93.925      -93.921
   Dihedral:       11  12  13  14      116.161      116.155
 Hessian Updated using BFGS Update

   Using Lagrange Multiplier Algorithm


162 Hessian modes will be used to form the next step
  Hessian Eigenvalues:
    -0.977754   -0.977753   -0.977753   -0.977753   -0.977753   -0.977753
    -0.977753   -0.977750   -0.977157    0.044763    0.045000    0.045000
     0.045002    0.045047    0.045124    0.045594    0.045612    0.047272
     0.048883    0.048890    0.054152    0.059150    0.059975    0.062539
     0.062549    0.067000    0.067071    0.067220    0.067406    0.069668
     0.070867    0.071550    0.073697    0.073924    0.075462    0.075790
     0.076667    0.076928    0.082551    0.082582    0.083356    0.083736
     0.084333    0.084413    0.085855    0.085921    0.086241    0.086614
     0.086677    0.086883    0.088492    0.088699    0.088995    0.089161
     0.089759    0.089913    0.093953    0.094049    0.096650    0.096739
     0.111542    0.111622    0.114656    0.114679    0.115903    0.115939
     0.116556    0.116698    0.117531    0.119089    0.119388    0.122832
     0.123972    0.130333    0.130772    0.130954    0.140090    0.140535
     0.159944    0.160007    0.161647    0.171744    0.172360    0.172740
     0.173292    0.220242    0.220651    0.228281    0.237843    0.238084
     0.244687    0.248838    0.249869    0.249957    0.252793    0.254692
     0.258393    0.259997    0.266853    0.267240    0.277761    0.279955
     0.281001    0.287560    0.295805    0.297689    0.301678    0.308233
     0.310597    0.312426    0.318793    0.319628    0.320443    0.321335
     0.321803    0.322064    0.322368    0.322499    0.323067    0.323425
     0.323531    0.323602    0.323693    0.323888    0.323923    0.323982
     0.324266    0.324342    0.324644    0.324722    0.324796    0.324911
     0.324962    0.325658    0.326768    0.326814    0.331197    0.369692
     0.371316    0.386264    0.388794    0.404746    0.406690    0.461735
     0.492708    0.514159    0.524806    0.531513    0.537013    0.930023
     0.934352    0.942359    0.998055    1.022753    1.022753    1.022753
     1.022753    1.022753    1.022753    1.022753    1.022763    1.030434

 Minimum Search - Taking P-RFO Step
 Searching for Lamda that Maximizes Along the Constraint modes Only
 Value Taken    Lamda =   0.00000150
 Searching for Lamda that Minimizes Along All other modes
 Value Taken    Lamda =  -0.03136088
 Calculated Step too Large.  Step scaled by  0.713238
 Step Taken.  Stepsize is  0.300000

                             Maximum     Tolerance    Cnvgd?
         Gradient            0.030391       0.000300      NO
         Displacement        0.074119       0.001200      NO
         Energy change     -0.036808       0.000001      NO


 New Cartesian Coordinates Obtained by Inverse Iteration

 Displacement from previous Coordinates is:  0.439272
 Adding empirical dispersion correction 
 ----------------------------------------------------------------
 Doing -D3(op) with
 s6 =   1.00000
 s8 =   0.78311
 a1 =   0.30000
 a2 =   4.25000
 n  =  10.00000
 -D3 energy without 3body term =     -0.0641567206 hartrees
 ----------------------------------------------------------------
             Standard Nuclear Orientation (Angstroms)
    I     Atom           X                Y                Z
 ----------------------------------------------------------------
    1      O      -4.5259591873     1.0760685022     2.3216632434
    2      C      -4.7483252839     1.2495875038     1.1037455399
    3      C      -5.0686637545     0.1501486220     0.0418127586
    4      C      -3.8869993211    -0.2244422443    -0.9352755048
    5      C      -2.5053146222     0.4369736555    -0.5890479068
    6      O      -1.4562084362    -0.4611025128    -0.9430982636
    7      C      -0.1983432413     0.2767449474    -1.1779975883
    8      C       0.8997925172    -0.7537145776    -1.6020134361
    9      O       1.9471980062    -0.7681781840    -0.5635780219
   10      C       3.2044292632    -1.1547140266    -1.1014243984
   11      C       4.2666099604    -1.2184165511     0.0408780045
   12      C       5.1046897675     0.1093170510     0.2233644792
   13      C       4.4947449365     1.3604746870    -0.4951200144
   14      O       4.0662715407     2.4021932158     0.0457839639
   15      O      -4.7513242695     2.5232344105     0.4803697219
   16      O       4.5372518615     1.1770583244    -1.9015298567
   17      O       3.4197740455    -1.3385096643    -2.3191871481
   18      C       3.9518256115     2.3163954918    -2.6094000197
   19      C       3.6604440445    -1.3732756009     1.5025142452
   20      C       4.7692953300    -2.0072001561     2.4214287539
   21      C       5.7848753041    -0.8196605322     2.5234056771
   22      C       4.9820418689     0.3189181868     1.7830121240
   23      O       3.5639009979    -0.0010092817     2.0270389087
   24      H       4.9091915629    -2.0936273026    -0.1666146781
   25      H       6.1491290397    -0.0073788787    -0.1218409497
   26      H       2.7025384576    -1.9272255333     1.5349045483
   27      H       4.3209421132    -2.1894637410     3.4129967191
   28      H       5.1929163565    -2.9533569593     2.0473039311
   29      H       5.9544709237    -0.5556182522     3.5797595273
   30      H       6.7551180996    -1.0090623280     2.0359236773
   31      H       5.2638826888     1.3410517613     2.1027247390
   32      O      -2.3058836158     1.6499544790    -0.3584941844
[...]
     15  O        -4.9161785491    2.5063509081    0.4647022992
     16  O         4.7401323913    1.1526876685   -1.9137024658
     17  O         3.3946192720   -1.2919057954   -2.3805382467
     18  C         4.2101025486    2.2955198576   -2.6917350464
     19  C         3.6230557317   -1.4688164899    1.4271767141
     20  C         4.7527232654   -2.0549529477    2.3624143286
     21  C         5.6265074543   -0.7719986635    2.6241140543
     22  C         4.8146705059    0.3193327366    1.8223838490
     23  O         3.4029581885   -0.1081100232    1.9673916570
     24  H         4.9497644776   -2.0197022891   -0.2927100350
     25  H         6.1532521044   -0.0208161711    0.0398940240
     26  H         2.6743459977   -2.0383550160    1.4112272260
     27  H         4.3127873037   -2.4398528700    3.2961986971
     28  H         5.3192704555   -2.8664791361    1.8782533740
     29  H         5.6634808529   -0.5179288724    3.6952052419
     30  H         6.6574671648   -0.8770470745    2.2498066366
     31  H         4.9353806079    1.3640501775    2.1687422351
     32  O        -2.3472172409    1.5126505429    0.0008822485
     33  C        -4.5056191209    3.6172404919    1.3514753722
     34  C        -5.2753219020   -1.3058587349    0.7811884391
     35  C        -6.1955255115   -2.1510973485   -0.1832128175
     36  C        -5.1982782815   -2.4316993347   -1.3683413243
     37  C        -3.8597543522   -1.8062952403   -0.8058509685
     38  O        -3.9634509683   -1.9841508076    0.6620183384
     39  H        -5.9626497176    0.4396620084   -0.4289628283
     40  H        -4.1749933428    0.1057482894   -1.9690234383
     41  H        -3.4122978605    3.5943279074    1.5374975864
     42  H        -5.5930693833   -1.2611738863    1.8409349362
     43  H        -6.5078873842   -3.0863880848    0.3082366378
     44  H        -7.0942611972   -1.5987281978   -0.5002188078
     45  H        -5.0756858476   -3.5109473717   -1.5510029921
     46  H        -5.5111951029   -1.9487557056   -2.3078376866
     47  H        -2.9236855745   -2.2564843491   -1.1877334417
     48  H        -5.0326298310    3.5799724477    2.3267800568
     49  H        -4.7709478690    4.5496377157    0.8200682230
     50  H         4.3206661323    2.0160104798   -3.7555869259
     51  H         4.7791169398    3.2265358685   -2.4912539994
     52  H         3.1405639233    2.4819493250   -2.4648892199
     53  H         0.4375987703   -1.6733216751   -1.8041748346
     54  H         1.3469088210   -0.3444064112   -2.6098610807
     55  H         0.1137885303    0.7866798028   -0.1922750488
     56  H        -0.3729988826    1.1431269551   -1.8891262571
   Point Group: c1    Number of degrees of freedom:   162


   Energy is  -1510.273610427

              Constraints and their Current Values
                                        Value     Constraint
   Dihedral:        1   2   3   4     -104.134     -104.134
   Dihedral:        3   4   5   6      146.698      146.698
   Dihedral:        4   5   6   7      156.215      156.215
   Dihedral:        5   6   7   8     -178.363     -178.363
   Dihedral:        6   7   8   9     -115.607     -115.607
   Dihedral:        7   8   9  10     -153.077     -153.077
   Dihedral:        8   9  10  11     -177.482     -177.482
   Dihedral:        9  10  11  12      -93.921      -93.921
   Dihedral:       11  12  13  14      116.155      116.155
 Hessian Updated using BFGS Update

153 Hessian modes will be used to form the next step
  Hessian Eigenvalues:
     0.000708    0.003098    0.006084    0.010607    0.017330    0.024875
     0.045175    0.045318    0.045567    0.045679    0.046261    0.049107
     0.049704    0.054156    0.058903    0.060241    0.062525    0.065609
     0.066727    0.066871    0.067363    0.068277    0.069825    0.070814
     0.072533    0.074795    0.075697    0.075775    0.077558    0.078918
     0.082397    0.082510    0.083444    0.083847    0.084386    0.084792
     0.085660    0.086164    0.086406    0.086877    0.087457    0.087702
     0.088604    0.088942    0.089255    0.089569    0.090268    0.091429
     0.094112    0.094376    0.096702    0.097090    0.111615    0.111728
     0.114746    0.114897    0.115842    0.115934    0.116884    0.117608
     0.118328    0.121287    0.121929    0.122876    0.124223    0.130491
     0.130705    0.132020    0.155471    0.156792    0.160026    0.160084
     0.160158    0.160629    0.161098    0.162930    0.172426    0.172742
     0.182335    0.190397    0.221838    0.222853    0.237269    0.237821
     0.240858    0.246430    0.249166    0.249742    0.250191    0.250928
     0.253739    0.254882    0.257686    0.265189    0.266423    0.267562
     0.271463    0.276296    0.279883    0.280161    0.294089    0.295202
     0.296023    0.300078    0.304987    0.311110    0.311626    0.317822
     0.319234    0.320247    0.320558    0.321804    0.321925    0.322314
     0.322456    0.323003    0.323112    0.323300    0.323589    0.323668
     0.323800    0.323885    0.324053    0.324268    0.324557    0.324718
     0.324801    0.324841    0.324960    0.325144    0.325507    0.326197
     0.326875    0.327203    0.333199    0.336026    0.350270    0.369672
     0.372671    0.392498    0.414059    0.427479    0.431896    0.474106
     0.494726    0.520938    0.531515    0.535068    0.559532    0.930081
     0.935145    0.942612    1.018256

 Minimum Search - Taking Simple RFO Step
 Searching for Lamda that Minimizes Along All modes
 Value Taken    Lamda =   0.00000000
 Step Taken.  Stepsize is  0.008418

                             Maximum     Tolerance    Cnvgd?
         Gradient           0.000036      0.000300     YES
         Displacement       0.003252      0.001200      NO
         Energy change      0.000000      0.000001     YES

 Final energy is   -1510.27361042717     


 ******************************
 **  OPTIMIZATION CONVERGED  **
 ******************************

                       Coordinates (Angstroms)
     ATOM                X               Y               Z
      1  O        -4.3512459401    1.1292623325    2.3173126946
      2  C        -4.6771939136    1.2516924230    1.1174889569
      3  C        -5.0515887445    0.1119102655    0.1033747638
      4  C        -3.9134406777   -0.2285373358   -0.9477020560
      5  C        -2.5269502068    0.4080121422   -0.5580395226
      6  O        -1.4618456685   -0.4541759512   -0.9767634755
      7  C        -0.2114416119    0.3269432440   -1.1523835099
      8  C         0.8932720376   -0.6697607139   -1.6494936434
      9  O         1.9350566610   -0.7406349479   -0.5972064783
     10  C         3.2061970634   -1.0830027058   -1.1622371228
     11  C         4.2571748925   -1.2084222516   -0.0044106618
     12  C         5.0830128014    0.1263949458    0.2732599631
     13  C         4.5611619428    1.3830241211   -0.5126145051
     14  O         4.0779951655    2.4302814789   -0.0318578332
     15  O        -4.9161785491    2.5063509081    0.4647022992
     16  O         4.7401323913    1.1526876685   -1.9137024658
     17  O         3.3946192720   -1.2919057954   -2.3805382467
     18  C         4.2101025486    2.2955198576   -2.6917350464
     19  C         3.6230557317   -1.4688164899    1.4271767141
     20  C         4.7527232654   -2.0549529477    2.3624143286
     21  C         5.6265074543   -0.7719986635    2.6241140543
     22  C         4.8146705059    0.3193327366    1.8223838490
     23  O         3.4029581885   -0.1081100232    1.9673916570
     24  H         4.9497644776   -2.0197022891   -0.2927100350
     25  H         6.1532521044   -0.0208161711    0.0398940240
     26  H         2.6743459977   -2.0383550160    1.4112272260
     27  H         4.3127873037   -2.4398528700    3.2961986971
     28  H         5.3192704555   -2.8664791361    1.8782533740
     29  H         5.6634808529   -0.5179288724    3.6952052419
     30  H         6.6574671648   -0.8770470745    2.2498066366
     31  H         4.9353806079    1.3640501775    2.1687422351
     32  O        -2.3472172409    1.5126505429    0.0008822485
     33  C        -4.5056191209    3.6172404919    1.3514753722
     34  C        -5.2753219020   -1.3058587349    0.7811884391
     35  C        -6.1955255115   -2.1510973485   -0.1832128175
     36  C        -5.1982782815   -2.4316993347   -1.3683413243
     37  C        -3.8597543522   -1.8062952403   -0.8058509685
     38  O        -3.9634509683   -1.9841508076    0.6620183384
     39  H        -5.9626497176    0.4396620084   -0.4289628283
     40  H        -4.1749933428    0.1057482894   -1.9690234383
     41  H        -3.4122978605    3.5943279074    1.5374975864
     42  H        -5.5930693833   -1.2611738863    1.8409349362
     43  H        -6.5078873842   -3.0863880848    0.3082366378
     44  H        -7.0942611972   -1.5987281978   -0.5002188078
     45  H        -5.0756858476   -3.5109473717   -1.5510029921
     46  H        -5.5111951029   -1.9487557056   -2.3078376866
     47  H        -2.9236855745   -2.2564843491   -1.1877334417
     48  H        -5.0326298310    3.5799724477    2.3267800568
     49  H        -4.7709478690    4.5496377157    0.8200682230
     50  H         4.3206661323    2.0160104798   -3.7555869259
     51  H         4.7791169398    3.2265358685   -2.4912539994
     52  H         3.1405639233    2.4819493250   -2.4648892199
     53  H         0.4375987703   -1.6733216751   -1.8041748346
     54  H         1.3469088210   -0.3444064112   -2.6098610807
     55  H         0.1137885303    0.7866798028   -0.1922750488
     56  H        -0.3729988826    1.1431269551   -1.8891262571

Z-matrix Print:
$molecule
0 1
O 
C  1 1.432576
O  2 1.250360 1 123.913765
C  1 1.482446 2 110.794188 3 -0.060981 0
H  4 1.110832 1 109.919622 2 -30.884245 0
H  4 1.112969 1 110.075825 2 88.114565 0
C  2 1.568709 1 108.812035 3 -177.420976 0
H  7 1.104976 2 106.622006 1 144.922599 0
C  4 1.568735 1 107.476772 2 -153.076993 0
H  9 1.111326 4 111.033638 1 124.172389 0
H  9 1.113077 4 109.268571 1 5.004791 0
O  9 1.484756 4 107.234420 1 -115.606953 0
C  12 1.432880 9 110.121438 4 -178.363012 0
O  13 1.250969 12 123.717414 9 -22.094559 0
C  13 1.574607 12 109.813560 9 156.215030 0
H  15 1.106008 13 108.334476 12 -88.792272 0
C  15 1.585031 13 110.513804 12 35.565813 0
H  17 1.106675 15 113.746767 13 -42.102801 0
O  17 1.482237 15 101.870354 13 76.944759 0
C  19 1.481650 17 94.971640 15 59.397912 0
H  20 1.107259 19 110.459111 17 -177.874036 0
C  20 1.578377 19 102.820809 17 57.685849 0
H  22 1.101513 20 112.518653 19 -159.530645 0
H  22 1.101754 20 110.324977 19 78.723281 0
C  22 1.574093 20 100.727077 19 -39.011420 0
H  25 1.101440 22 111.718355 20 122.637657 0
H  25 1.101728 22 112.578526 20 -114.791802 0
C  15 1.586206 13 112.399348 12 146.697954 0
H  28 1.104915 15 109.636688 13 133.309179 0
C  28 1.570892 15 114.361501 13 13.158694 0
O  30 1.249323 28 127.666589 15 -104.134018 0
O  30 1.434368 28 107.526687 15 82.159464 0
C  32 1.479527 30 109.740637 28 -176.791197 0
H  33 1.105512 32 106.174167 30 -176.618635 0
H  33 1.109211 32 111.711642 30 -57.072070 0
H  33 1.109270 32 111.008509 30 64.397337 0
C  7 1.587248 2 114.277321 1 21.360245 0
H  37 1.106652 7 114.451441 2 30.631201 0
O  37 1.480472 7 103.752023 2 -89.902627 0
C  39 1.482115 37 95.034982 7 -56.293466 0
H  40 1.107235 39 110.203291 37 179.652303 0
C  40 1.578878 39 103.929986 37 -55.503859 0
H  42 1.101433 40 110.586121 39 -84.867128 0
H  42 1.101825 40 111.994204 39 153.703401 0
C  42 1.574153 40 101.157617 39 33.497803 0
H  45 1.101656 42 111.438581 40 -115.687204 0
H  45 1.101800 42 112.825388 40 121.709806 0
C  40 1.583988 39 102.821734 37 58.085948 0
H  48 1.105234 40 112.753533 39 -155.581816 0
C  48 1.571319 40 109.600212 39 83.046624 0
O  50 1.249530 48 127.319697 40 4.118684 0
O  50 1.431130 48 108.626142 40 -176.563004 0
C  52 1.480652 50 110.208861 48 177.788332 0
H  53 1.105500 52 105.945274 50 -176.274312 0
H  53 1.109111 52 111.559266 50 -57.041622 0
H  53 1.109397 52 111.664800 50 64.506887 0
$end

 
 --------------------------------------------------------------
 
                    Orbital Energies (a.u.)
 --------------------------------------------------------------
 
 Alpha MOs
 -- Occupied --
-18.936 -18.936 -18.935 -18.919 -18.884 -18.884 -18.883 -18.877
-18.876 -18.861 -10.104 -10.100 -10.099 -10.089 -10.077 -10.075
-10.066 -10.057 -10.056 -10.056 -10.055 -10.052 -10.039 -10.039
-10.037 -10.031 -10.019 -10.019 -10.018 -10.017  -1.018  -1.015
 -1.010  -0.997  -0.967  -0.967  -0.943  -0.938  -0.935  -0.923
 -0.763  -0.760  -0.728  -0.721  -0.714  -0.703  -0.694  -0.664
 -0.652  -0.613  -0.596  -0.579  -0.545  -0.543  -0.536  -0.535
 -0.516  -0.511  -0.484  -0.481  -0.466  -0.453  -0.451  -0.444
 -0.431  -0.429  -0.420  -0.415  -0.408  -0.406  -0.404  -0.399
 -0.397  -0.385  -0.374  -0.368  -0.361  -0.354  -0.351  -0.346
 -0.343  -0.341  -0.333  -0.331  -0.329  -0.327  -0.321  -0.310
 -0.306  -0.306  -0.304  -0.295  -0.294  -0.284  -0.278  -0.276
 -0.273  -0.255  -0.254  -0.250  -0.243  -0.231  -0.231  -0.183
 -0.180  -0.174  -0.165  -0.157  -0.156  -0.151  -0.142  -0.141
 -0.140
 -- Virtual --
  0.091   0.098   0.099   0.115   0.223   0.234   0.242   0.246
  0.267   0.272   0.288   0.288   0.298   0.308   0.330   0.332
  0.334   0.339   0.344   0.346   0.350   0.355   0.367   0.373
  0.380   0.383   0.387   0.390   0.404   0.408   0.414   0.415
  0.416   0.419   0.421   0.424   0.427   0.432   0.433   0.436
  0.436   0.438   0.442   0.442   0.445   0.451   0.453   0.461
  0.470   0.471   0.482   0.491   0.491   0.507   0.510   0.538
  0.539   0.555   0.556   0.632   0.638   0.646   0.659
 --------------------------------------------------------------
 
          Ground-State Mulliken Net Atomic Charges

     Atom                 Charge (a.u.)
  ----------------------------------------
      1 O                    -0.215574
      2 C                     0.212689
      3 C                    -0.081695
      4 C                    -0.076317
      5 C                     0.214626
      6 O                    -0.173933
      7 C                    -0.047704
      8 C                    -0.050305
      9 O                    -0.169781
     10 C                     0.207528
     11 C                    -0.078833
     12 C                    -0.077681
     13 C                     0.206827
     14 O                    -0.209947
     15 O                    -0.172509
     16 O                    -0.168516
     17 O                    -0.211265
     18 C                    -0.127970
     19 C                     0.025432
     20 C                    -0.143764
     21 C                    -0.144680
     22 C                     0.024251
     23 O                    -0.186653
     24 H                     0.085018
     25 H                     0.085745
     26 H                     0.088762
     27 H                     0.078539
     28 H                     0.072708
     29 H                     0.078474
     30 H                     0.072576
     31 H                     0.089474
     32 O                    -0.205083
     33 C                    -0.128023
     34 C                     0.023877
     35 C                    -0.142832
     36 C                    -0.145273
     37 C                     0.022678
     38 O                    -0.190199
     39 H                     0.083219
     40 H                     0.085412
     41 H                     0.093338
     42 H                     0.088531
     43 H                     0.077665
     44 H                     0.072922
     45 H                     0.077402
     46 H                     0.072151
     47 H                     0.089832
     48 H                     0.086786
     49 H                     0.086235
     50 H                     0.092704
     51 H                     0.088679
     52 H                     0.087477
     53 H                     0.091763
     54 H                     0.095657
     55 H                     0.104945
     56 H                     0.084615
  ----------------------------------------
  Sum of atomic charges =     0.000000

 -----------------------------------------------------------------
                    Cartesian Multipole Moments
 -----------------------------------------------------------------
    Charge (ESU x 10^10)
                 0.0000
    Dipole Moment (Debye)
         X       0.3810      Y      -0.5492      Z      -2.6562
       Tot       2.7390
    Quadrupole Moments (Debye-Ang)
        XX    -138.1438     XY      -0.9936     YY    -156.7938
        XZ      11.5173     YZ      -4.7558     ZZ    -161.5802
    Octopole Moments (Debye-Ang^2)
       XXX       4.9128    XXY      -7.5390    XYY      -6.6679
       YYY      35.8452    XXZ      10.6328    XYZ     -38.4213
       YYZ      -1.3946    XZZ       4.9331    YZZ      26.0040
       ZZZ     -12.2514
    Hexadecapole Moments (Debye-Ang^3)
      XXXX  -16043.7218   XXXY      -0.1125   XXYY   -3183.6869
      XYYY    -166.6211   YYYY   -2583.9973   XXXZ     155.6021
      XXYZ     -53.4203   XYYZ     -81.1406   YYYZ      28.7828
      XXZZ   -3234.3147   XYZZ      44.3982   YYZZ    -781.4241
      XZZZ       7.5214   YZZZ     -62.0384   ZZZZ   -2213.6314
 -----------------------------------------------------------------
Archival summary:
1\1\vega02.cac.cornell.edu\OPT\ProcedureUnspecified\STO-3G\102026\jj585\SunJan1415:48:002018SunJan1415:48:002018\0\\#,OPT,ProcedureUnspecified,STO-3G,\\0,1\O\C,1,1.43258\O,2,1.25036,1,123.914\C,1,1.48245,2,110.794,3,-0.0609812,0\H,4,1.11083,1,109.92,2,-30.8842,0\H,4,1.11297,1,110.076,2,88.1146,0\C,2,1.56871,1,108.812,3,-177.421,0\H,7,1.10498,2,106.622,1,144.923,0\C,4,1.56874,1,107.477,2,-153.077,0\H,9,1.11133,4,111.034,1,124.172,0\H,9,1.11308,4,109.269,1,5.00479,0\O,9,1.48476,4,107.234,1,-115.607,0\C,12,1.43288,9,110.121,4,-178.363,0\O,13,1.25097,12,123.717,9,-22.0946,0\C,13,1.57461,12,109.814,9,156.215,0\H,15,1.10601,13,108.334,12,-88.7923,0\C,15,1.58503,13,110.514,12,35.5658,0\H,17,1.10667,15,113.747,13,-42.1028,0\O,17,1.48224,15,101.87,13,76.9448,0\C,19,1.48165,17,94.9716,15,59.3979,0\H,20,1.10726,19,110.459,17,-177.874,0\C,20,1.57838,19,102.821,17,57.6858,0\H,22,1.10151,20,112.519,19,-159.531,0\H,22,1.10175,20,110.325,19,78.7233,0\C,22,1.57409,20,100.727,19,-39.0114,0\H,25,1.10144,22,111.718,20,122.638,0\H,25,1.10173,22,112.579,20,-114.792,0\C,15,1.58621,13,112.399,12,146.698,0\H,28,1.10491,15,109.637,13,133.309,0\C,28,1.57089,15,114.362,13,13.1587,0\O,30,1.24932,28,127.667,15,-104.134,0\O,30,1.43437,28,107.527,15,82.1595,0\C,32,1.47953,30,109.741,28,-176.791,0\H,33,1.10551,32,106.174,30,-176.619,0\H,33,1.10921,32,111.712,30,-57.0721,0\H,33,1.10927,32,111.009,30,64.3973,0\C,7,1.58725,2,114.277,1,21.3602,0\H,37,1.10665,7,114.451,2,30.6312,0\O,37,1.48047,7,103.752,2,-89.9026,0\C,39,1.48212,37,95.035,7,-56.2935,0\H,40,1.10724,39,110.203,37,179.652,0\C,40,1.57888,39,103.93,37,-55.5039,0\H,42,1.10143,40,110.586,39,-84.8671,0\H,42,1.10183,40,111.994,39,153.703,0\C,42,1.57415,40,101.158,39,33.4978,0\H,45,1.10166,42,111.439,40,-115.687,0\H,45,1.1018,42,112.825,40,121.71,0\C,40,1.58399,39,102.822,37,58.0859,0\H,48,1.10523,40,112.754,39,-155.582,0\C,48,1.57132,40,109.6,39,83.0466,0\O,50,1.24953,48,127.32,40,4.11868,0\O,50,1.43113,48,108.626,40,-176.563,0\C,52,1.48065,50,110.209,48,177.788,0\H,53,1.1055,52,105.945,50,-176.274,0\H,53,1.10911,52,111.559,50,-57.0416,0\H,53,1.1094,52,111.665,50,64.5069,0\\\@

 Total job time:  71.87s(wall), 3414.58s(cpu) 
 Sun Jan 14 15:48:00 2018

        *************************************************************
        *                                                           *
        *  Thank you very much for using Q-Chem.  Have a nice day.  *
        *                                                           *
        *************************************************************


0 sent ACK to 0 
now end server 0 ... 
