mFile = /opt/software/qchem/qchem-5.0.1//bin/mpi/machines
Process 0 of 1 is on vega02.cac.cornell.edu - thread support 0
initial socket setup ...start
initial socket setup ...done 
now start server 0 ... 
vega02.cac.cornell.edu 10.84.3
Q-Chem Developer Version! Running on 10.84.3.*
                  Welcome to Q-Chem
     A Quantum Leap Into The Future Of Chemistry


 Q-Chem 5.0, Q-Chem, Inc., Pleasanton, CA (2017)

 Yihan Shao,  Zhengting Gan,  E. Epifanovsky,  A. T. B. Gilbert,  M. Wormit,  
 J. Kussmann,  A. W. Lange,  A. Behn,  Jia Deng,  Xintian Feng,  D. Ghosh,  
 M. Goldey,  P. R. Horn,  L. D. Jacobson,  I. Kaliman,  T. Kus,  A. Landau,  
 Jie Liu,  E. I. Proynov,  R. M. Richard,  R. P. Steele,  E. J. Sundstrom,  
 H. L. Woodcock III,  P. M. Zimmerman,  D. Zuev,  B. Albrecht,  E. Alguire,  
 S. A. Baeppler,  Z. Benda,  Y. A. Bernard,  E. J. Berquist,  K. B. Bravaya,  
 D. Casanova,  Chun-Min Chang,  Yunqing Chen,  A. Chien,  K. D. Closser,  
 M. P. Coons,  S. Dasgupta,  M. Diedenhofen,  Hainam Do,  R. G. Edgar,  
 Po-Tung Fang,  S. Fatehi,  Qingguo Feng,  Qinghui Ge,  A. Ghysels,  
 J. Gomes,  J. Gonthier,  A. Gunina,  M. W. D. Hanson-Heine,  
 P. H. P. Harbach,  A. W. Hauser,  J. E. Herr,  E. G. Hohenstein,  
 Z. C. Holden,  Kerwin Hui,  T.-C. Jagau,  Hyunjun Ji,  B. Kaduk,  
 K. Khistyaev,  Jaehoon Kim,  P. Klunzinger,  K. Koh,  D. Kosenkov,  
 T. Kowalczyk,  C. M. Krauter,  A. Kunitsa,  Ka Un Lao,  A. Laurent,  
 K. V. Lawler,  Joonho Lee,  D. Lefrancois,  S. Lehtola,  D. S. Levine,  
 Yi-Pei Li,  You-Sheng Lin,  Fenglai Liu,  E. Livshits,  A. Luenser,  
 P. Manohar,  E. Mansoor,  S. F. Manzer,  Shan-Ping Mao,  Yuezhi Mao,  
 N. Mardirossian,  A. V. Marenich,  L. A. Martinez-Martinez,  S. A. Maurer,  
 N. J. Mayhall,  S. C. McKenzie,  J.-M. Mewes,  A. F. Morrison,  K. Nanda,  
 T. S. Nguyen-Beck,  R. Olivares-Amaya,  J. A. Parkhill,  T. M. Perrine,  
 F. Plasser,  S. Prager,  A. Prociuk,  D. R. Rehn,  F. Rob,  M. Schneider,  
 N. Sergueev,  S. M. Sharada,  S. Sharma,  D. W. Small,  T. Stauch,  
 T. Stein,  Yu-Chuan Su,  A. J. W. Thom,  T. Tsuchimochi,  L. Vogt,  
 O. Vydrov,  M. A. Watson,  J. Wenzel,  M. de Wergifosse,  T. A. Wesolowski,  
 A. White,  J. Witte,  A. Yamada,  Jun Yang,  K. Yao,  S. Yeganeh,  
 S. R. Yost,  Zhi-Qiang You,  A. Zech,  Igor Ying Zhang,  Xing Zhang,  
 Yan Zhao,  Ying Zhu,  B. R. Brooks,  G. K. L. Chan,  C. J. Cramer,  
 M. S. Gordon,  W. J. Hehre,  A. Klamt,  M. W. Schmidt,  C. D. Sherrill,  
 D. G. Truhlar,  A. Aspuru-Guzik,  R. Baer,  A. T. Bell,  N. A. Besley,  
 Jeng-Da Chai,  A. Dreuw,  B. D. Dunietz,  T. R. Furlani,  Chao-Ping Hsu,  
 Yousung Jung,  Jing Kong,  D. S. Lambrecht,  WanZhen Liang,  C. Ochsenfeld,  
 V. A. Rassolov,  L. V. Slipchenko,  J. E. Subotnik,  T. Van Voorhis,  
 J. M. Herbert,  A. I. Krylov,  P. M. W. Gill,  M. Head-Gordon

 Contributors to earlier versions of Q-Chem not listed above: 
 R. D. Adamson,  B. Austin,  J. Baker,  G. J. O. Beran,  K. Brandhorst,  
 S. T. Brown,  E. F. C. Byrd,  A. K. Chakraborty,  C.-L. Cheng,  
 Siu Hung Chien,  D. M. Chipman,  D. L. Crittenden,  H. Dachsel,  
 R. A. DiStasio Jr.,  R. J. Doerksen,  A. D. Dutoi,  L. Fusti-Molnar,  
 W. A. Goddard III,  A. Golubeva-Zadorozhnaya,  S. R. Gwaltney,  G. Hawkins,  
 A. Heyden,  S. Hirata,  G. Kedziora,  F. J. Keil,  C. Kelley,  Jihan Kim,  
 R. A. King,  R. Z. Khaliullin,  P. P. Korambath,  W. Kurlancheek,  
 A. M. Lee,  M. S. Lee,  S. V. Levchenko,  Ching Yeh Lin,  D. Liotard,  
 R. C. Lochan,  I. Lotan,  P. E. Maslen,  N. Nair,  D. P. O'Neill,  
 D. Neuhauser,  E. Neuscamman,  C. M. Oana,  R. Olson,  B. Peters,  
 R. Peverati,  P. A. Pieniazek,  Y. M. Rhee,  J. Ritchie,  M. A. Rohrdanz,  
 E. Rosta,  N. J. Russ,  H. F. Schaefer III,  N. E. Schultz,  N. Shenvi,  
 A. C. Simmonett,  A. Sodt,  D. Stuck,  K. S. Thanthiriwatte,  V. Vanovschi,  
 Tao Wang,  A. Warshel,  C. F. Williams,  Q. Wu,  X. Xu,  W. Zhang

 Please cite Q-Chem as follows:
 Y. Shao et al., Mol. Phys. 113, 184-215 (2015)
 DOI: 10.1080/00268976.2014.952696

 Q-Chem 5.0.1 for Intel X86 EM64T Linux

 Parts of Q-Chem use Armadillo 5.200.1 (Boston Tea Smuggler).
 http://arma.sourceforge.net/

 Q-Chem begins on Sun Jan 14 17:35:57 2018  

Host: vega02.cac.cornell.edu
0

     Scratch files written to /scratch/jj585/SOT1001/0515r.save//
 Parallel job on  1  processors

Checking the input file for inconsistencies... 	...done.

--------------------------------------------------------------
User input:
--------------------------------------------------------------
$molecule
0  1
O -3.052365518 1.5271089174 1.1504223993
C -3.9026955718 1.4144029034 0.2405127539
C -4.5647069957 0.0939402623 -0.2818433496
C -3.5175302115 -1.0752023446 -0.5285289134
C -2.0298448197 -0.6028620788 -0.3473839876
O -1.3526591343 -1.417436461 0.6141284313
C 0.0701548516 -1.0013072355 0.6763181407
C 0.8890953084 -1.5048321812 -0.5665097726
O 2.2935402377 -1.0984546195 -0.3386648553
C 2.8051307536 -0.4189001878 -1.5003392586
C 4.2892455836 -0.0291262691 -1.1997913905
C 4.3807580015 1.0206711176 -0.0084257337
C 2.9699197439 1.4730855954 0.5213613853
O 2.5445750935 1.4508033799 1.6956862668
O -4.4594292915 2.5183749418 -0.4809147131
O 2.2248817014 1.9391794276 -0.6113437318
O 2.1660930874 -0.2595951866 -2.5625727984
C 0.8601117774 2.3800400772 -0.2309943291
C 5.1169122757 -1.2355009556 -0.5801820736
C 6.6481427963 -0.840600215 -0.5795996778
C 6.7056528725 0.1658414592 0.6307079485
C 5.1906166614 0.1940716414 1.0716856668
O 4.7470956342 -1.2026810719 0.8528506373
H 4.7405939525 0.3629849914 -2.127586533
H 4.934999053 1.9230201238 -0.3258257639
H 4.8845004296 -2.2254414232 -1.0182566594
H 7.274093412 -1.7288616403 -0.3986320743
H 6.9566183095 -0.3792247613 -1.5313576211
H 7.3372104087 -0.2211695799 1.446139049
H 7.07492938 1.1622192288 0.3395440217
H 4.992729638 0.5028002258 2.1165511266
O -1.4855556732 0.3388080902 -0.9717045272
C -3.8542442104 3.7849234611 -0.0067902568
C -5.4702553872 -0.5664106786 0.8478131613
C -6.3627049435 -1.6887083827 0.1828879159
C -5.3073668137 -2.8385161564 -0.0177110609
C -3.99877023 -2.1490170429 0.53456823
O -4.4946219083 -1.3248471897 1.6617275828
H -5.1455160193 0.3272657255 -1.1910556621
H -3.6132528607 -1.4620168201 -1.560270246
H -2.7581375597 3.7986352017 -0.1762079647
H -6.0198488152 0.1599088212 1.4775400442
H -7.1696157562 -1.9950219128 0.8674829146
H -6.8122662161 -1.3527774508 -0.765218849
H -5.5572397493 -3.7245042209 0.5875351621
H -5.2062178357 -3.147338586 -1.0704901079
H -3.2013443342 -2.8352417263 0.8773307237
H -4.0450433802 3.9497101665 1.0733864419
H -4.3304593773 4.5905963085 -0.5950719138
H 0.1023607343 1.6717986817 -0.6383630506
H 0.6951184406 3.3843248187 -0.6661601706
H 0.7735447302 2.4267609396 0.8730514779
H 0.8324680719 -2.6115483347 -0.641323504
H 0.5249305422 -1.0477874979 -1.5116542664
H 0.4729923111 -1.4700050256 1.5965274809
H 0.1574143124 0.0973603743 0.7704221155
$end

$rem
JOBTYPE                   OPT
METHOD                    B3LYP
DFT_D                     d3_op
BASIS                     STO-3G
GEOM_OPT_MAX_CYCLES       100
GEOM_OPT_TOL_GRADIENT     300
GEOM_OPT_TOL_DISPLACEMENT 1200
GEOM_OPT_TOL_ENERGY       100
SYMMETRY                  False
THRESH                    12
SCF_CONVERGENCE           8
MAX_SUB_FILE_NUM          128
MEM_STATIC                400
MEM_TOTAL                 4000
$end
--------------------------------------------------------------
 Adding empirical dispersion correction 
 ----------------------------------------------------------------
 Doing -D3(op) with
 s6 =   1.00000
 s8 =   0.78311
 a1 =   0.30000
 a2 =   4.25000
 n  =  10.00000
 -D3 energy without 3body term =     -0.0702770588 hartrees
 ----------------------------------------------------------------
             Standard Nuclear Orientation (Angstroms)
    I     Atom           X                Y                Z
 ----------------------------------------------------------------
    1      O      -3.0429060480     1.6108670926     1.0202861202
    2      C      -3.8606251378     1.5053747442     0.0801232283
    3      C      -4.5319827854     0.1932872158    -0.4513293450
    4      C      -3.5027980203    -1.0016667303    -0.6441795612
    5      C      -2.0127609542    -0.5599387097    -0.4122473873
    6      O      -1.3908151955    -1.3769598124     0.5838841298
    7      C       0.0376365511    -0.9915057690     0.6951564024
    8      C       0.8913489305    -1.5286724110    -0.5096046680
    9      O       2.2949810322    -1.1504602335    -0.2333908734
   10      C       2.8651794975    -0.4971320406    -1.3827569958
   11      C       4.3452887237    -0.1363498503    -1.0306739843
   12      C       4.4153748028     0.9262118148     0.1507877601
   13      C       2.9960846738     1.4162694223     0.6211885586
   14      O       2.5263500495     1.4182625692     1.7786853864
   15      O      -4.3647849730     2.6120943894    -0.6749653584
   16      O       2.3049745700     1.8842441879    -0.5444496660
   17      O       2.2704111137    -0.3372868249    -2.4703172893
   18      C       0.9370858215     2.3598409212    -0.2214808673
   19      C       5.1216585887    -1.3526970075    -0.3658152257
   20      C       6.6602689901    -0.9916336909    -0.3117305207
   21      C       6.6946961503     0.0285753614     0.8878798590
   22      C       5.1651212241     0.0957531036     1.2706078409
   23      O       4.6988780472    -1.2935592651     1.0516415055
   24      H       4.8400174810     0.2339224624    -1.9452297718
   25      H       5.0013433121     1.8120373180    -0.1559918599
   26      H       4.8837382934    -2.3427592493    -0.8006455706
   27      H       7.2588169677    -1.8910949771    -0.0965991198
   28      H       7.0147240509    -0.5492776263    -1.2564793530
   29      H       7.2861819624    -0.3618695578     1.7312467096
   30      H       7.0970030360     1.0128050594     0.5991736028
   31      H       4.9349510051     0.4219987387     2.3034688663
   32      O      -1.4242726015     0.3615195685    -1.0265483059
   33      C      -3.7495916197     3.8709244501    -0.1932266839
   34      C      -5.4941194529    -0.4325751563     0.6508477784
   35      C      -6.3858591186    -1.5432967779    -0.0341644675
   36      C      -5.3498246836    -2.7185170072    -0.1808835740
   37      C      -4.0478213388    -2.0510470980     0.4125114647
   38      O      -4.5671837298    -1.2019212765     1.5101731095
   39      H      -5.0726868494     0.4277886478    -1.3846541097
   40      H      -3.5682050128    -1.3993412878    -1.6741578683
   41      H      -2.6478431666     3.8583458928    -0.3210245213
   42      H      -6.0506070971     0.3136028718     1.2505883483
   43      H      -7.2247038778    -1.8230559022     0.6228573380
   44      H      -6.7916678033    -1.2096066284    -1.0025815068
   45      H      -5.6422093409    -3.5910361809     0.4248852173
   46      H      -5.2160027649    -3.0428267365    -1.2253264992
   47      H      -3.2795242561    -2.7502595587     0.7934314433
   48      H      -3.9772493300     4.0535667276     0.8768922101
   49      H      -4.1850403642     4.6793578826    -0.8086815615
   50      H       0.1795086783     1.6633442387    -0.6489279827
   51      H       0.8112483069     3.3619121208    -0.6744689285
   52      H       0.8100046102     2.4224632291     0.8778474044
   53      H       0.8127146460    -2.6347335619    -0.5733993569
   54      H       0.5734657937    -1.0757504458    -1.4732518744
   55      H       0.3948336922    -1.4572450660     1.6354956904
   56      H       0.1459648499     0.1060797186     0.7794853155
 ----------------------------------------------------------------
 Molecular Point Group                 C1    NOp =  1
 Largest Abelian Subgroup              C1    NOp =  1
 Nuclear Repulsion Energy =  3163.0758949936 hartrees
 There are      113 alpha and      113 beta electrons
 Requested basis set is STO-3G
 There are 86 shells and 176 basis functions

 Total QAlloc Memory Limit   4000 MB
 Mega-Array Size       392 MB
 MEM_STATIC part       400 MB
 A cutoff of  1.0D-12 yielded   2168 shell pairs
 There are     10226 function pairs
 
 -------------------------------------------------------
 OpenMP Integral Computing Module                       
 Release: version 1.0, May 2013, Q-Chem Inc. Pittsburgh 
 -------------------------------------------------------
 Integral Job Info:
 Integral job number is                      11
 Integral operator is                         1
 short-range coefficients                     0
 long-range coefficients              100000000
 Omega coefficients                           0
 if combine SR and LR in K                    0
 Integral screening is                        0
 Integral computing path is                   2
 max size of driver memory is            800000
 size of driver memory is                 45569
 size of scratch memory is              1046100
 max col of scratch BK array                289
 max len of scratch array in speh3           22
 max len of scratch index in speh4            8
 max int batch size is                      520
 min int batch size is                       52
 fixed nKL is                                52
 max L of basis functions is                  1
 order of int derivative is                   0
 number of shells is                         86
 number of basis is                         176
 number of cartesian basis is               176
 number of contracted shell pairs          2168
 number of primitive shell pairs          11176
 maxK2 (contraction) of shell pair            9
 max number of K2 of shell pair               1
 max number of CS2 of shell pair            330
 max number of PS2 of shell pair           1288
 mem total for path MDJ                   50922
 -------------------------------------------------------
 Smallest overlap matrix eigenvalue = 2.13E-01

 Scale SEOQF with 1.000000e-02/1.000000e-01/1.000000e-01

 Standard Electronic Orientation quadrupole field applied
 Nucleus-field energy     =     0.0000000328 hartrees
 Guess from superposition of atomic densities
 Warning:  Energy on first SCF cycle will be non-variational
 A restricted hybrid HF-DFT SCF calculation will be
 performed using Pulay DIIS extrapolation
 Exchange:     0.2000 Hartree-Fock + 0.0800 Slater + 0.7200 B88
 Correlation:  0.1900 VWN1RPA + 0.8100 LYP
 Using SG-1 standard quadrature grid
 Dispersion:   Grimme D3
 SCF converges when DIIS error is below 1.0E-08
 using 48 threads for integral computing
 -------------------------------------------------------
 OpenMP Integral computing Module                
 Release: version 1.0, May 2013, Q-Chem Inc. Pittsburgh 
 -------------------------------------------------------
 -------------------------------------------------------
 OpenMP BLAS3 based DFT computing Module                
 Release: version 1.0, May 2013, Q-Chem Inc. Pittsburgh 
 -------------------------------------------------------
 ---------------------------------------
  Cycle       Energy         DIIS Error
 ---------------------------------------
    1   -1507.6388525766      7.46E-02
    2   -1509.7447005061      1.04E-02
    3   -1507.4236872016      2.69E-02
    4   -1510.1983406280      4.40E-03
    5   -1510.2786895934      1.40E-03
    6   -1510.2871475120      3.07E-04
    7   -1510.2875218155      1.17E-04
    8   -1510.2875740476      4.30E-05
    9   -1510.2875818199      1.13E-05
   10   -1510.2875823329      3.90E-06
   11   -1510.2875823836      1.97E-06
   12   -1510.2875824009      2.83E-07
   13   -1510.2875824013      9.46E-08
   14   -1510.2875824012      2.84E-08
   15   -1510.2875824013      1.49E-08
   16   -1510.2875824013      7.16E-09 Convergence criterion met
 ---------------------------------------
 SCF time:  CPU 117.99 s  wall 2.51 s
 SCF   energy in the final basis set = -1510.28758240
 Total energy in the final basis set = -1510.28758240
 
 --------------------------------------------------------------
 
                    Orbital Energies (a.u.)
 --------------------------------------------------------------
 
 Alpha MOs
 -- Occupied --
-18.941 -18.935 -18.928 -18.927 -18.888 -18.885 -18.876 -18.875
-18.873 -18.872 -10.104 -10.097 -10.097 -10.096 -10.067 -10.064
-10.062 -10.062 -10.059 -10.058 -10.056 -10.046 -10.040 -10.038
-10.036 -10.035 -10.021 -10.020 -10.019 -10.018  -1.017  -1.011
 -1.008  -1.002  -0.970  -0.967  -0.941  -0.934  -0.933  -0.931
 -0.764  -0.762  -0.727  -0.722  -0.712  -0.704  -0.691  -0.663
 -0.654  -0.613  -0.595  -0.581  -0.547  -0.544  -0.538  -0.535
 -0.513  -0.509  -0.482  -0.477  -0.465  -0.460  -0.451  -0.440
 -0.435  -0.430  -0.428  -0.412  -0.410  -0.407  -0.403  -0.397
 -0.389  -0.376  -0.373  -0.369  -0.361  -0.358  -0.355  -0.347
 -0.344  -0.341  -0.331  -0.331  -0.328  -0.325  -0.322  -0.310
 -0.308  -0.304  -0.303  -0.296  -0.291  -0.288  -0.286  -0.278
 -0.273  -0.258  -0.251  -0.244  -0.242  -0.234  -0.232  -0.185
 -0.175  -0.173  -0.164  -0.158  -0.158  -0.150  -0.149  -0.144
 -0.141
 -- Virtual --
  0.090   0.098   0.107   0.111   0.215   0.236   0.238   0.256
  0.263   0.276   0.286   0.291   0.305   0.323   0.326   0.334
  0.339   0.340   0.345   0.350   0.351   0.361   0.365   0.369
  0.375   0.382   0.385   0.396   0.402   0.403   0.410   0.411
  0.412   0.416   0.422   0.424   0.428   0.430   0.432   0.434
  0.436   0.439   0.441   0.447   0.451   0.453   0.454   0.466
  0.470   0.484   0.490   0.491   0.502   0.504   0.506   0.536
  0.538   0.551   0.554   0.635   0.646   0.650   0.654
 --------------------------------------------------------------
 
          Ground-State Mulliken Net Atomic Charges

     Atom                 Charge (a.u.)
  ----------------------------------------
      1 O                    -0.213149
      2 C                     0.209498
      3 C                    -0.079086
      4 C                    -0.078605
      5 C                     0.215526
      6 O                    -0.163947
      7 C                    -0.050523
      8 C                    -0.059182
      9 O                    -0.171950
     10 C                     0.213230
     11 C                    -0.077932
     12 C                    -0.077114
     13 C                     0.211969
     14 O                    -0.212482
     15 O                    -0.168641
     16 O                    -0.174075
     17 O                    -0.211699
     18 C                    -0.145751
     19 C                     0.026385
     20 C                    -0.144106
     21 C                    -0.143661
     22 C                     0.024154
     23 O                    -0.185088
     24 H                     0.085917
     25 H                     0.084577
     26 H                     0.082839
     27 H                     0.077687
     28 H                     0.073418
     29 H                     0.077958
     30 H                     0.072864
     31 H                     0.090066
     32 O                    -0.221313
     33 C                    -0.128509
     34 C                     0.025803
     35 C                    -0.144043
     36 C                    -0.144021
     37 C                     0.023906
     38 O                    -0.186290
     39 H                     0.086898
     40 H                     0.085252
     41 H                     0.090355
     42 H                     0.082927
     43 H                     0.078315
     44 H                     0.073997
     45 H                     0.078376
     46 H                     0.072987
     47 H                     0.092983
     48 H                     0.089100
     49 H                     0.090350
     50 H                     0.104597
     51 H                     0.083332
     52 H                     0.095566
     53 H                     0.082132
     54 H                     0.103401
     55 H                     0.096029
     56 H                     0.098774
  ----------------------------------------
  Sum of atomic charges =    -0.000000

 -----------------------------------------------------------------
                    Cartesian Multipole Moments
 -----------------------------------------------------------------
    Charge (ESU x 10^10)
                 0.0000
    Dipole Moment (Debye)
         X      -0.4468      Y       0.1189      Z      -1.7184
       Tot       1.7795
    Quadrupole Moments (Debye-Ang)
        XX    -132.8264     XY       2.5539     YY    -149.4355
        XZ       2.8637     YZ       4.1581     ZZ    -171.5422
    Octopole Moments (Debye-Ang^2)
       XXX      29.2701    XXY      11.1294    XYY     -26.8386
       YYY      42.0421    XXZ     -29.2314    XYZ      -4.1138
       YYZ      -5.9099    XZZ      -4.2086    YZZ      -0.5105
       ZZZ      10.2443
    Hexadecapole Moments (Debye-Ang^3)
      XXXX  -15007.4949   XXXY      42.6094   XXYY   -3016.4580
      XYYY    -148.3454   YYYY   -2434.4222   XXXZ     -50.4810
      XXYZ      84.9635   XYYZ     -30.6043   YYYZ     -16.3818
      XXZZ   -2894.8725   XYZZ     -23.9443   YYZZ    -603.4720
      XZZZ      36.4706   YZZZ      -8.8113   ZZZZ    -982.0809
 -----------------------------------------------------------------
 Calculating analytic gradient of the SCF energy
 Gradient of SCF Energy
            1           2           3           4           5           6
    1  -0.0003987   0.0006259  -0.0000730   0.0001435  -0.0002586   0.0003358
    2  -0.0000317   0.0000353  -0.0001350  -0.0007476  -0.0002324  -0.0025839
    3   0.0003870  -0.0007631   0.0003798  -0.0010399  -0.0002255   0.0056553
            7           8           9          10          11          12
    1  -0.0009360   0.0011486  -0.0002791  -0.0024041   0.0017876  -0.0001032
    2   0.0055213  -0.0018059  -0.0018309   0.0066373  -0.0044155  -0.0007095
    3  -0.0055846  -0.0034787   0.0038652   0.0031538  -0.0027446   0.0003078
           13          14          15          16          17          18
    1   0.0004447  -0.0003731   0.0000058  -0.0000293   0.0000191   0.0000777
    2   0.0008994  -0.0006442  -0.0000028  -0.0000797   0.0000570   0.0000068
    3   0.0002372  -0.0000854   0.0000387   0.0000832  -0.0000682  -0.0001110
           19          20          21          22          23          24
    1  -0.0000968  -0.0000586   0.0000193  -0.0000634   0.0001278  -0.0000971
    2   0.0000158  -0.0000165   0.0000310   0.0000165   0.0000306   0.0001199
    3  -0.0000305  -0.0000793   0.0000264   0.0000382  -0.0000316  -0.0000959
           25          26          27          28          29          30
    1   0.0000406   0.0000047   0.0000112   0.0000510   0.0000297  -0.0000002
    2  -0.0000242   0.0000158  -0.0000127  -0.0000301   0.0000218   0.0000187
    3   0.0000438  -0.0000214  -0.0000267   0.0000102  -0.0000173   0.0000120
           31          32          33          34          35          36
    1   0.0000025   0.0001899  -0.0000028  -0.0002198  -0.0000381   0.0000937
    2  -0.0000285   0.0000441  -0.0000696   0.0000855   0.0000547  -0.0000452
    3   0.0000068   0.0000307  -0.0000329   0.0000072  -0.0001734   0.0001358
           37          38          39          40          41          42
    1   0.0001141   0.0001876  -0.0000419   0.0000478   0.0000037   0.0000230
    2   0.0000853  -0.0001693  -0.0000484   0.0000021   0.0000270   0.0000054
    3   0.0000136   0.0001002  -0.0000316   0.0000007   0.0000124   0.0000435
           43          44          45          46          47          48
    1  -0.0000503   0.0000772  -0.0000583  -0.0000202   0.0000261  -0.0000199
    2  -0.0000281  -0.0000174  -0.0000436  -0.0000749   0.0000848   0.0000070
    3   0.0000179   0.0000368   0.0000332   0.0000194  -0.0001212   0.0000236
           49          50          51          52          53          54
    1  -0.0000108  -0.0000524  -0.0000161   0.0000130   0.0000027   0.0000069
    2   0.0000114  -0.0000347  -0.0000045   0.0000463   0.0000095  -0.0000203
    3   0.0000105   0.0000264   0.0000254  -0.0000090  -0.0000094  -0.0000237
           55          56
    1   0.0000398   0.0000006
    2  -0.0000053   0.0000020
    3   0.0000211   0.0000011
 Max gradient component =       6.637E-03
 RMS gradient           =       1.176E-03
 Gradient time:  CPU 30.99 s  wall 0.67 s
 Geometry Optimization Parameters
   NAtoms,    NIC,     NZ,  NCons,   NDum,   NFix, NCnnct, MaxDiis
       56     458       0       0       0       0       0       0


** GEOMETRY OPTIMIZATION IN DELOCALIZED INTERNAL COORDINATES **
   Searching for a Minimum

   Optimization Cycle:   1

                       Coordinates (Angstroms)
     ATOM                X               Y               Z
      1  O        -3.0429060480    1.6108670926    1.0202861202
      2  C        -3.8606251378    1.5053747442    0.0801232283
      3  C        -4.5319827854    0.1932872158   -0.4513293450
      4  C        -3.5027980203   -1.0016667303   -0.6441795612
      5  C        -2.0127609542   -0.5599387097   -0.4122473873
      6  O        -1.3908151955   -1.3769598124    0.5838841298
      7  C         0.0376365511   -0.9915057690    0.6951564024
      8  C         0.8913489305   -1.5286724110   -0.5096046680
      9  O         2.2949810322   -1.1504602335   -0.2333908734
     10  C         2.8651794975   -0.4971320406   -1.3827569958
     11  C         4.3452887237   -0.1363498503   -1.0306739843
     12  C         4.4153748028    0.9262118148    0.1507877601
     13  C         2.9960846738    1.4162694223    0.6211885586
     14  O         2.5263500495    1.4182625692    1.7786853864
     15  O        -4.3647849730    2.6120943894   -0.6749653584
     16  O         2.3049745700    1.8842441879   -0.5444496660
     17  O         2.2704111137   -0.3372868249   -2.4703172893
     18  C         0.9370858215    2.3598409212   -0.2214808673
     19  C         5.1216585887   -1.3526970075   -0.3658152257
     20  C         6.6602689901   -0.9916336909   -0.3117305207
     21  C         6.6946961503    0.0285753614    0.8878798590
     22  C         5.1651212241    0.0957531036    1.2706078409
     23  O         4.6988780472   -1.2935592651    1.0516415055
     24  H         4.8400174810    0.2339224624   -1.9452297718
     25  H         5.0013433121    1.8120373180   -0.1559918599
     26  H         4.8837382934   -2.3427592493   -0.8006455706
     27  H         7.2588169677   -1.8910949771   -0.0965991198
     28  H         7.0147240509   -0.5492776263   -1.2564793530
     29  H         7.2861819624   -0.3618695578    1.7312467096
     30  H         7.0970030360    1.0128050594    0.5991736028
     31  H         4.9349510051    0.4219987387    2.3034688663
     32  O        -1.4242726015    0.3615195685   -1.0265483059
     33  C        -3.7495916197    3.8709244501   -0.1932266839
     34  C        -5.4941194529   -0.4325751563    0.6508477784
     35  C        -6.3858591186   -1.5432967779   -0.0341644675
     36  C        -5.3498246836   -2.7185170072   -0.1808835740
     37  C        -4.0478213388   -2.0510470980    0.4125114647
     38  O        -4.5671837298   -1.2019212765    1.5101731095
     39  H        -5.0726868494    0.4277886478   -1.3846541097
     40  H        -3.5682050128   -1.3993412878   -1.6741578683
     41  H        -2.6478431666    3.8583458928   -0.3210245213
     42  H        -6.0506070971    0.3136028718    1.2505883483
     43  H        -7.2247038778   -1.8230559022    0.6228573380
     44  H        -6.7916678033   -1.2096066284   -1.0025815068
     45  H        -5.6422093409   -3.5910361809    0.4248852173
     46  H        -5.2160027649   -3.0428267365   -1.2253264992
     47  H        -3.2795242561   -2.7502595587    0.7934314433
     48  H        -3.9772493300    4.0535667276    0.8768922101
     49  H        -4.1850403642    4.6793578826   -0.8086815615
     50  H         0.1795086783    1.6633442387   -0.6489279827
     51  H         0.8112483069    3.3619121208   -0.6744689285
     52  H         0.8100046102    2.4224632291    0.8778474044
     53  H         0.8127146460   -2.6347335619   -0.5733993569
     54  H         0.5734657937   -1.0757504458   -1.4732518744
     55  H         0.3948336922   -1.4572450660    1.6354956904
     56  H         0.1459648499    0.1060797186    0.7794853155
   Point Group: c1    Number of degrees of freedom:   162


   Energy is  -1510.287582401


 Attempting to Generate Delocalized Internal Coordinates

162 Hessian modes will be used to form the next step
  Hessian Eigenvalues:
     0.002000    0.002000    0.002000    0.002000    0.002000    0.002684
     0.002684    0.004102    0.004159    0.004256    0.004353    0.004562
     0.004571    0.004849    0.005102    0.006822    0.006832    0.010381
     0.011194    0.011480    0.011598    0.021718    0.021729    0.026113
     0.026195    0.030903    0.030948    0.035528    0.035647    0.041086
     0.041251    0.041571    0.041776    0.045981    0.046157    0.047330
     0.047923    0.048418    0.050418    0.050817    0.052799    0.053109
     0.053432    0.054163    0.054460    0.055085    0.055329    0.055855
     0.056760    0.058647    0.058988    0.060544    0.060653    0.063801
     0.063928    0.064068    0.064194    0.069739    0.069811    0.072907
     0.072920    0.091447    0.091914    0.092800    0.092878    0.095741
     0.095971    0.096786    0.099372    0.101853    0.102565    0.108438
     0.109811    0.109838    0.113803    0.121779    0.122083    0.133881
     0.138309    0.157199    0.157426    0.160000    0.160000    0.160000
     0.160000    0.160000    0.160000    0.163512    0.163976    0.219500
     0.219955    0.220172    0.220735    0.225300    0.226285    0.237772
     0.238656    0.239431    0.239443    0.246233    0.248009    0.249598
     0.249941    0.249950    0.249998    0.250000    0.250000    0.250000
     0.250000    0.250000    0.250000    0.250000    0.250000    0.253030
     0.253125    0.257480    0.259132    0.259208    0.262740    0.265264
     0.292679    0.292780    0.306685    0.307182    0.321454    0.324715
     0.325275    0.326841    0.326841    0.327609    0.327679    0.328826
     0.328858    0.328976    0.329328    0.329765    0.330124    0.330251
     0.330797    0.330892    0.332618    0.332705    0.334847    0.334865
     0.334886    0.334889    0.334952    0.335018    0.335033    0.335034
     0.341397    0.341469    0.343851    0.346036    0.396137    0.404696
     0.407759    0.409031    0.817398    0.830599    0.832979    0.835401

 Minimum Search - Taking Simple RFO Step
 Searching for Lamda that Minimizes Along All modes
 Value Taken    Lamda =  -0.01351927
 Calculated Step too Large.  Step scaled by  0.372870
 Step Taken.  Stepsize is  0.300000

                             Maximum     Tolerance    Cnvgd?
         Gradient           0.008911      0.000300      NO
         Displacement       0.130265      0.001200      NO
         Energy change     *********      0.000001      NO


 New Cartesian Coordinates Obtained by Inverse Iteration

 Displacement from previous Coordinates is:  5.792411
 Adding empirical dispersion correction 
 ----------------------------------------------------------------
 Doing -D3(op) with
 s6 =   1.00000
 s8 =   0.78311
 a1 =   0.30000
 a2 =   4.25000
 n  =  10.00000
 -D3 energy without 3body term =     -0.0725900421 hartrees
 ----------------------------------------------------------------
             Standard Nuclear Orientation (Angstroms)
    I     Atom           X                Y                Z
 ----------------------------------------------------------------
    1      O      -2.7527234643     1.4897578558     1.2071548208
    2      C      -3.5962309019     1.5272603926     0.2847809977
    3      C      -4.3740524402     0.3193786174    -0.3403674281
    4      C      -3.4420453408    -0.9282806251    -0.6562388807
    5      C      -1.9192154458    -0.6196188924    -0.4221013242
    6      O      -1.3489942179    -1.5497918690     0.5031945434
    7      C       0.0957514931    -1.2480590714     0.6553599638
    8      C       0.9392667981    -1.7592520097    -0.5678341617
    9      O       2.3457908805    -1.3904147665    -0.2935648109
   10      C       2.9342344536    -0.7876622449    -1.4612392214
   11      C       4.3240984411    -0.2076525043    -1.0408112992
   12      C       4.1649599811     0.9484866119     0.0395622876
   13      C       2.6623849274     1.2843272422     0.3639343615
   14      O       2.1071604015     1.3280607884     1.4820716708
   15      O      -4.0277477186     2.7294095788    -0.3616049565
   16      O       2.0134047635     1.5590329818    -0.8845660656
   17      O       2.3920058074    -0.7541222364    -2.5868142068
   18      C       0.5762613670     1.8792198670    -0.7007440334
   19      C       5.1914031532    -1.2520202254    -0.2154812371
   20      C       6.6629937506    -0.6872299233    -0.0887197451
   21      C       6.4724207998     0.4236636206     1.0115112193
   22      C       4.9208050533     0.3193340536     1.2799876348
   23      O       4.6518904093    -1.1328022718     1.1579715586
   24      H       4.8402060724     0.1498812223    -1.9485465167
   25      H       4.6577099476     1.8754698218    -0.3069589031
   26      H       5.1155868933    -2.2971870774    -0.5729586362
   27      H       7.3507373294    -1.4787798986     0.2489294349
   28      H       7.0335749014    -0.2809488593    -1.0434395301
   29      H       7.0385675587     0.1855092232     1.9260214338
   30      H       6.7697536902     1.4253219374     0.6619741884
   31      H       4.5693192144     0.6962142673     2.2601071367
   32      O      -1.2752370969     0.3101590920    -0.9638667832
   33      C      -3.3074556868     3.8922714912     0.2077370513
   34      C      -5.3630051178    -0.3250415617     0.7267572334
   35      C      -6.3479515354    -1.3033441267    -0.0287331488
   36      C      -5.4069776916    -2.5354296163    -0.2977991932
   37      C      -4.0485316917    -2.0205440242     0.3205849187
   38      O      -4.4838498518    -1.2320327137     1.4971699527
   39      H      -4.9106598251     0.6728747504    -1.2378572218
   40      H      -3.5543203682    -1.2308315105    -1.7141328344
   41      H      -2.2127350047     3.8072649055     0.0505998968
   42      H      -5.8511953802     0.4064865868     1.3995596848
   43      H      -7.1946889964    -1.5751641900     0.6214105879
   44      H      -6.7431506082    -0.8584565645    -0.9560024584
   45      H      -5.7550878400    -3.4326082860     0.2384329743
   46      H      -5.3150390425    -2.7776401339    -1.3686984456
   47      H      -3.3300376247    -2.8053987543     0.6241513680
   48      H      -3.4992148116     3.9993630611     1.2949690370
   49      H      -3.6908049564     4.7810025643    -0.3262579224
   50      H      -0.0538377752     1.0575190621    -1.1124034270
   51      H       0.3647364589     2.8153472061    -1.2522147225
   52      H       0.3558067858     2.0162094845     0.3768641599
   53      H       0.8469858266    -2.8621244010    -0.6615955605
   54      H       0.6244129135    -1.2761592719    -1.5177192860
   55      H       0.4224477541    -1.7726187963     1.5755801772
   56      H       0.2488825388    -0.1612365501     0.7928542981
 ----------------------------------------------------------------
 Molecular Point Group                 C1    NOp =  1
 Largest Abelian Subgroup              C1    NOp =  1
 Nuclear Repulsion Energy =  3206.4926079375 hartrees
 There are      113 alpha and      113 beta electrons
 Applying Cartesian multipole field
    Component          Value
    ---------          -----
     (2,0,0)        1.00000E-12
     (0,2,0)        2.00000E-11
     (0,0,2)       -3.00000E-11
 Nucleus-field energy     =     0.0000000296 hartrees
 Requested basis set is STO-3G
 There are 86 shells and 176 basis functions
 A cutoff of  1.0D-12 yielded   2211 shell pairs
 There are     10461 function pairs
 Smallest overlap matrix eigenvalue = 2.13E-01
 Guess MOs from SCF MO coefficient file
 Reading MOs from coefficient file
 Reading MOs from coefficient file
 A restricted hybrid HF-DFT SCF calculation will be
 performed using Pulay DIIS extrapolation
 Exchange:     0.2000 Hartree-Fock + 0.0800 Slater + 0.7200 B88
 Correlation:  0.1900 VWN1RPA + 0.8100 LYP
 Using SG-1 standard quadrature grid
 Dispersion:   Grimme D3
 SCF converges when DIIS error is below 1.0E-08
 Geometry optimization detected.  Setting ReadMinima to 0
 Setting SaveMinima to 0
 using 48 threads for integral computing
 -------------------------------------------------------
 OpenMP Integral computing Module                
 Release: version 1.0, May 2013, Q-Chem Inc. Pittsburgh 
 -------------------------------------------------------
 -------------------------------------------------------
 OpenMP BLAS3 based DFT computing Module                
 Release: version 1.0, May 2013, Q-Chem Inc. Pittsburgh 
 -------------------------------------------------------
 ---------------------------------------
  Cycle       Energy         DIIS Error
 ---------------------------------------
    1   -1510.0948528068      7.84E-03
    2   -1510.2588731858      1.19E-03
    3   -1510.2505882376      1.91E-03
    4   -1510.2652976264      5.78E-04
    5   -1510.2667671497      9.52E-05
    6   -1510.2668018236      4.71E-05
    7   -1510.2668110178      1.94E-05
    8   -1510.2668124497      8.67E-06
    9   -1510.2668127925      1.26E-06
   10   -1510.2668128007      6.67E-07
   11   -1510.2668128026      3.53E-07
   12   -1510.2668128032      1.41E-07
   13   -1510.2668128032      3.21E-08
   14   -1510.2668128032      7.01E-09 Convergence criterion met
 ---------------------------------------
 SCF time:  CPU 104.99 s  wall 2.19 s
 SCF   energy in the final basis set = -1510.26681280
 Total energy in the final basis set = -1510.26681280
 
 --------------------------------------------------------------
 
                    Orbital Energies (a.u.)
 --------------------------------------------------------------
 
 Alpha MOs
 -- Occupied --
-18.957 -18.938 -18.926 -18.910 -18.902 -18.894 -18.882 -18.876
-18.871 -18.861 -10.125 -10.101 -10.095 -10.085 -10.071 -10.066
-10.066 -10.065 -10.064 -10.056 -10.052 -10.049 -10.043 -10.033
-10.029 -10.025 -10.024 -10.016 -10.015  -9.998  -1.033  -1.013
 -1.008  -0.991  -0.976  -0.964  -0.958  -0.938  -0.932  -0.919
 -0.770  -0.758  -0.731  -0.723  -0.715  -0.702  -0.693  -0.665
 -0.640  -0.615  -0.597  -0.581  -0.553  -0.543  -0.540  -0.532
 -0.520  -0.506  -0.489  -0.476  -0.471  -0.462  -0.455  -0.446
 -0.438  -0.433  -0.427  -0.419  -0.414  -0.412  -0.401  -0.397
 -0.391  -0.380  -0.371  -0.364  -0.363  -0.358  -0.353  -0.346
 -0.342  -0.337  -0.332  -0.328  -0.325  -0.320  -0.316  -0.313
 -0.308  -0.304  -0.302  -0.298  -0.297  -0.287  -0.283  -0.281
 -0.272  -0.257  -0.248  -0.244  -0.239  -0.229  -0.228  -0.197
 -0.180  -0.179  -0.168  -0.156  -0.153  -0.150  -0.143  -0.141
 -0.137
 -- Virtual --
  0.075   0.099   0.102   0.119   0.209   0.232   0.244   0.252
  0.266   0.277   0.283   0.292   0.308   0.317   0.324   0.333
  0.336   0.340   0.344   0.354   0.355   0.360   0.362   0.368
  0.371   0.379   0.390   0.393   0.397   0.404   0.406   0.407
  0.415   0.419   0.420   0.421   0.428   0.431   0.434   0.435
  0.438   0.441   0.444   0.447   0.455   0.462   0.469   0.473
  0.475   0.484   0.494   0.497   0.505   0.510   0.525   0.541
  0.546   0.550   0.557   0.648   0.651   0.657   0.677
 --------------------------------------------------------------
 
          Ground-State Mulliken Net Atomic Charges

     Atom                 Charge (a.u.)
  ----------------------------------------
      1 O                    -0.211646
      2 C                     0.208623
      3 C                    -0.078932
      4 C                    -0.077582
      5 C                     0.231823
      6 O                    -0.156475
      7 C                    -0.053324
      8 C                    -0.057328
      9 O                    -0.171398
     10 C                     0.215085
     11 C                    -0.077832
     12 C                    -0.077353
     13 C                     0.206812
     14 O                    -0.220811
     15 O                    -0.168176
     16 O                    -0.181315
     17 O                    -0.211910
     18 C                    -0.179960
     19 C                     0.025876
     20 C                    -0.144110
     21 C                    -0.143730
     22 C                     0.023850
     23 O                    -0.186196
     24 H                     0.085212
     25 H                     0.083386
     26 H                     0.081849
     27 H                     0.076911
     28 H                     0.072981
     29 H                     0.077071
     30 H                     0.072603
     31 H                     0.089692
     32 O                    -0.210279
     33 C                    -0.128824
     34 C                     0.025978
     35 C                    -0.143954
     36 C                    -0.143891
     37 C                     0.024370
     38 O                    -0.185279
     39 H                     0.088463
     40 H                     0.088081
     41 H                     0.092394
     42 H                     0.084442
     43 H                     0.079381
     44 H                     0.074668
     45 H                     0.079670
     46 H                     0.073630
     47 H                     0.093623
     48 H                     0.090003
     49 H                     0.090961
     50 H                     0.143062
     51 H                     0.063852
     52 H                     0.077447
     53 H                     0.082397
     54 H                     0.099270
     55 H                     0.098889
     56 H                     0.107950
  ----------------------------------------
  Sum of atomic charges =     0.000000

 -----------------------------------------------------------------
                    Cartesian Multipole Moments
 -----------------------------------------------------------------
    Charge (ESU x 10^10)
                 0.0000
    Dipole Moment (Debye)
         X      -1.6413      Y      -0.2015      Z      -1.6681
       Tot       2.3489
    Quadrupole Moments (Debye-Ang)
        XX    -133.1471     XY       2.5912     YY    -150.9784
        XZ       3.7999     YZ       4.0242     ZZ    -171.3527
    Octopole Moments (Debye-Ang^2)
       XXX       6.8319    XXY      15.8305    XYY     -23.9084
       YYY      44.7521    XXZ     -24.9559    XYZ      -7.9598
       YYZ      -0.3253    XZZ     -10.4774    YZZ       8.4127
       ZZZ      16.7234
    Hexadecapole Moments (Debye-Ang^3)
      XXXX  -14251.1835   XXXY      56.8644   XXYY   -2882.7380
      XYYY    -137.3588   YYYY   -2331.8418   XXXZ      19.0279
      XXYZ      70.8600   XYYZ     -13.0289   YYYZ     -53.5343
      XXZZ   -2754.2265   XYZZ     -17.7465   YYZZ    -591.0634
      XZZZ     123.5033   YZZZ     -66.8541   ZZZZ   -1016.1902
 -----------------------------------------------------------------
 Calculating analytic gradient of the SCF energy
 Gradient of SCF Energy
            1           2           3           4           5           6
    1  -0.0008899   0.0006313  -0.0002086   0.0002246   0.0025397   0.0030762
    2   0.0004712  -0.0011453  -0.0003243  -0.0017694   0.0096644  -0.0063413
    3   0.0002000  -0.0000021   0.0001730  -0.0001279  -0.0099685   0.0098072
            7           8           9          10          11          12
    1  -0.0039397   0.0000334   0.0006109  -0.0009718   0.0003463   0.0008455
    2   0.0034993  -0.0006416  -0.0015783   0.0001044  -0.0008139  -0.0003263
    3  -0.0047437  -0.0016566   0.0018830   0.0015205  -0.0010923  -0.0005035
           13          14          15          16          17          18
    1   0.0015642   0.0004567   0.0000280  -0.0078443  -0.0005700  -0.0214060
    2  -0.0025378   0.0006971   0.0008240  -0.0014379   0.0018900  -0.0176848
    3   0.0084423  -0.0030086  -0.0001046  -0.0068027  -0.0003028   0.0046342
           19          20          21          22          23          24
    1  -0.0001509   0.0000775  -0.0005204  -0.0001196  -0.0000655  -0.0001401
    2  -0.0005629  -0.0002683   0.0003955   0.0001459   0.0001085   0.0003930
    3  -0.0000776   0.0001162  -0.0001743   0.0005174  -0.0000291   0.0000344
           25          26          27          28          29          30
    1  -0.0000533  -0.0000554  -0.0000279   0.0000533  -0.0000602   0.0000401
    2   0.0001052   0.0001092  -0.0000662   0.0000263   0.0000303   0.0000635
    3   0.0000894  -0.0000447  -0.0000714  -0.0000821  -0.0000308  -0.0000056
           31          32          33          34          35          36
    1   0.0000450   0.0467988  -0.0002463   0.0006059   0.0000620  -0.0000634
    2  -0.0000248   0.0326227  -0.0003538   0.0002168  -0.0002007  -0.0001302
    3  -0.0000345   0.0103692  -0.0002221  -0.0001247   0.0000570   0.0002743
           37          38          39          40          41          42
    1  -0.0000223  -0.0003257  -0.0001017  -0.0002413  -0.0001026  -0.0001281
    2   0.0006184   0.0001629   0.0002339  -0.0001725   0.0002199  -0.0000803
    3  -0.0009607   0.0004244   0.0001144   0.0001414   0.0000503   0.0000417
           43          44          45          46          47          48
    1  -0.0000757  -0.0001190  -0.0001901  -0.0000732   0.0000952   0.0000071
    2  -0.0000134  -0.0000576  -0.0001033  -0.0000598   0.0000875   0.0000372
    3  -0.0000066  -0.0000254  -0.0000428   0.0000101   0.0000217   0.0000551
           49          50          51          52          53          54
    1   0.0000696  -0.0175191  -0.0022942  -0.0001448   0.0001363   0.0010002
    2   0.0000565  -0.0151236  -0.0019589  -0.0010237   0.0001529   0.0019908
    3   0.0000320  -0.0082443  -0.0021119   0.0018098   0.0008246   0.0002877
           55          56
    1   0.0012931  -0.0019698
    2   0.0003674  -0.0004936
    3   0.0002303  -0.0015598
 Max gradient component =       4.680E-02
 RMS gradient           =       5.678E-03
 Gradient time:  CPU 31.48 s  wall 0.67 s
 Geometry Optimization Parameters
   NAtoms,    NIC,     NZ,  NCons,   NDum,   NFix, NCnnct, MaxDiis
       56     458       0       0       0       0       0       0

 Cartesian Hessian Update
 Hessian Updated using BFGS Update


** GEOMETRY OPTIMIZATION IN DELOCALIZED INTERNAL COORDINATES **
   Searching for a Minimum

   Optimization Cycle:   2

                       Coordinates (Angstroms)
     ATOM                X               Y               Z
      1  O        -2.7527234643    1.4897578558    1.2071548208
      2  C        -3.5962309019    1.5272603926    0.2847809977
      3  C        -4.3740524402    0.3193786174   -0.3403674281
      4  C        -3.4420453408   -0.9282806251   -0.6562388807
      5  C        -1.9192154458   -0.6196188924   -0.4221013242
      6  O        -1.3489942179   -1.5497918690    0.5031945434
      7  C         0.0957514931   -1.2480590714    0.6553599638
      8  C         0.9392667981   -1.7592520097   -0.5678341617
      9  O         2.3457908805   -1.3904147665   -0.2935648109
     10  C         2.9342344536   -0.7876622449   -1.4612392214
     11  C         4.3240984411   -0.2076525043   -1.0408112992
     12  C         4.1649599811    0.9484866119    0.0395622876
     13  C         2.6623849274    1.2843272422    0.3639343615
     14  O         2.1071604015    1.3280607884    1.4820716708
     15  O        -4.0277477186    2.7294095788   -0.3616049565
     16  O         2.0134047635    1.5590329818   -0.8845660656
     17  O         2.3920058074   -0.7541222364   -2.5868142068
     18  C         0.5762613670    1.8792198670   -0.7007440334
     19  C         5.1914031532   -1.2520202254   -0.2154812371
     20  C         6.6629937506   -0.6872299233   -0.0887197451
     21  C         6.4724207998    0.4236636206    1.0115112193
     22  C         4.9208050533    0.3193340536    1.2799876348
     23  O         4.6518904093   -1.1328022718    1.1579715586
     24  H         4.8402060724    0.1498812223   -1.9485465167
     25  H         4.6577099476    1.8754698218   -0.3069589031
     26  H         5.1155868933   -2.2971870774   -0.5729586362
     27  H         7.3507373294   -1.4787798986    0.2489294349
     28  H         7.0335749014   -0.2809488593   -1.0434395301
     29  H         7.0385675587    0.1855092232    1.9260214338
     30  H         6.7697536902    1.4253219374    0.6619741884
     31  H         4.5693192144    0.6962142673    2.2601071367
     32  O        -1.2752370969    0.3101590920   -0.9638667832
     33  C        -3.3074556868    3.8922714912    0.2077370513
     34  C        -5.3630051178   -0.3250415617    0.7267572334
     35  C        -6.3479515354   -1.3033441267   -0.0287331488
     36  C        -5.4069776916   -2.5354296163   -0.2977991932
     37  C        -4.0485316917   -2.0205440242    0.3205849187
     38  O        -4.4838498518   -1.2320327137    1.4971699527
     39  H        -4.9106598251    0.6728747504   -1.2378572218
     40  H        -3.5543203682   -1.2308315105   -1.7141328344
     41  H        -2.2127350047    3.8072649055    0.0505998968
     42  H        -5.8511953802    0.4064865868    1.3995596848
     43  H        -7.1946889964   -1.5751641900    0.6214105879
     44  H        -6.7431506082   -0.8584565645   -0.9560024584
     45  H        -5.7550878400   -3.4326082860    0.2384329743
     46  H        -5.3150390425   -2.7776401339   -1.3686984456
     47  H        -3.3300376247   -2.8053987543    0.6241513680
     48  H        -3.4992148116    3.9993630611    1.2949690370
     49  H        -3.6908049564    4.7810025643   -0.3262579224
     50  H        -0.0538377752    1.0575190621   -1.1124034270
     51  H         0.3647364589    2.8153472061   -1.2522147225
     52  H         0.3558067858    2.0162094845    0.3768641599
     53  H         0.8469858266   -2.8621244010   -0.6615955605
     54  H         0.6244129135   -1.2761592719   -1.5177192860
     55  H         0.4224477541   -1.7726187963    1.5755801772
     56  H         0.2488825388   -0.1612365501    0.7928542981
   Point Group: c1    Number of degrees of freedom:   162


   Energy is  -1510.266812803

 Hessian Updated using BFGS Update

149 Hessian modes will be used to form the next step
  Hessian Eigenvalues:
     0.001745    0.002330    0.002630    0.002684    0.003409    0.004234
     0.004264    0.004393    0.004562    0.004651    0.004849    0.005692
     0.006798    0.006824    0.010487    0.011412    0.011480    0.021603
     0.021718    0.025370    0.026112    0.030656    0.030903    0.035245
     0.035527    0.038067    0.041086    0.041568    0.041593    0.041774
     0.045618    0.045988    0.047884    0.048418    0.050108    0.050650
     0.050817    0.053104    0.053431    0.054130    0.054460    0.055078
     0.055133    0.055800    0.056690    0.057852    0.058647    0.060225
     0.060652    0.063790    0.063928    0.064068    0.064192    0.069686
     0.069810    0.072716    0.072919    0.080526    0.091906    0.092796
     0.092878    0.094701    0.095740    0.096786    0.099372    0.101851
     0.102565    0.104938    0.108473    0.109838    0.113785    0.114626
     0.122080    0.130235    0.136558    0.146302    0.157412    0.159981
     0.160000    0.163427    0.163975    0.179740    0.219496    0.220166
     0.220694    0.223072    0.226273    0.227061    0.237993    0.238656
     0.239438    0.239443    0.246233    0.248009    0.249531    0.249923
     0.249945    0.249981    0.249999    0.253030    0.253125    0.257388
     0.259132    0.259198    0.262740    0.264830    0.292587    0.292775
     0.306558    0.307179    0.321153    0.324715    0.325274    0.326841
     0.326841    0.327608    0.327678    0.328826    0.328858    0.328976
     0.329328    0.329764    0.330123    0.330251    0.330797    0.330892
     0.332618    0.332704    0.334847    0.334865    0.334886    0.334889
     0.334952    0.335017    0.335033    0.335034    0.338568    0.341414
     0.343851    0.345009    0.395434    0.404293    0.407759    0.408999
     0.812801    0.830598    0.832977    0.835384    4.202145

 Minimum Search - Taking Simple RFO Step
 Searching for Lamda that Minimizes Along All modes
 Value Taken    Lamda =  -0.07826706
 Step Taken.  Stepsize is  0.189811

                             Maximum     Tolerance    Cnvgd?
         Gradient           0.431340      0.000300      NO
         Displacement       0.102975      0.001200      NO
         Energy change      0.020770      0.000001      NO


 New Cartesian Coordinates Obtained by Inverse Iteration

 Displacement from previous Coordinates is:  3.653406
 Adding empirical dispersion correction 
 ----------------------------------------------------------------
 Doing -D3(op) with
 s6 =   1.00000
 s8 =   0.78311
 a1 =   0.30000
 a2 =   4.25000
 n  =  10.00000
 -D3 energy without 3body term =     -0.0692584222 hartrees
 ----------------------------------------------------------------
             Standard Nuclear Orientation (Angstroms)
    I     Atom           X                Y                Z
 ----------------------------------------------------------------
    1      O      -2.8408499322     1.4372881948     1.1943010067
    2      C      -3.7237313602     1.4611963049     0.3090676613
    3      C      -4.4935188835     0.2390414903    -0.2981567539
    4      C      -3.5416122166    -0.9802338235    -0.6634529874
    5      C      -2.0199897593    -0.6310118084    -0.4862879391
    6      O      -1.3941781610    -1.5503706192     0.4127456468
    7      C       0.0477435025    -1.2299077923     0.5925560460
    8      C       0.9212421396    -1.6953385835    -0.6291604812
    9      O       2.3298624272    -1.3291172090    -0.3405284527
   10      C       2.9795481754    -0.7537104585    -1.4919312862
   11      C       4.3849478922    -0.2337531415    -1.0274782184
   12      C       4.3026783486     0.9706090634     0.0136072891
   13      C       2.8429521184     1.4865109475     0.2751887714
   14      O       2.2627965697     1.6427613231     1.3704419042
   15      O      -4.2124114003     2.6575963931    -0.3064826287
   16      O       2.2982449780     1.8354902523    -1.0025301483
   17      O       2.4872009871    -0.7316743814    -2.6404271747
   18      C       0.9353043327     2.4036363132    -0.8818336548
   19      C       5.1292461085    -1.3231895647    -0.1422747923
   20      C       6.6407105149    -0.8915062576     0.0247896176
   21      C       6.5149319394     0.2626041421     1.0859398864
   22      C       4.9520764582     0.3100414281     1.2976578784
   23      O       4.5522376908    -1.1144179573     1.2057712968
   24      H       4.9617637130     0.0543596837    -1.9231670475
   25      H       4.8962085040     1.8335641705    -0.3402848582
   26      H       4.9742981274    -2.3676726050    -0.4754163427
   27      H       7.2399975128    -1.7321143282     0.4091511903
   28      H       7.0806643751    -0.5493498601    -0.9256178084
   29      H       7.0237658796     0.0012690679     2.0274104148
   30      H       6.9160737284     1.2217075165     0.7211376292
   31      H       4.6066851236     0.7500016143     2.2533572399
   32      O      -1.4317229065     0.3236725703    -1.0442606936
   33      C      -3.4987412371     3.8332864715     0.2446541902
   34      C      -5.4218723575    -0.4420293846     0.8000247639
   35      C      -6.4095624682    -1.4389778057     0.0732375606
   36      C      -5.4476062350    -2.6425028298    -0.2459030997
   37      C      -4.0801246006    -2.0976340689     0.3249868066
   38      O      -4.4897025623    -1.3322767490     1.5257922018
   39      H      -5.0748171967     0.5867068115    -1.1696497200
   40      H      -3.6873439678    -1.2763015630    -1.7191077528
   41      H      -2.4097555056     3.7777240388     0.0412893866
   42      H      -5.9023802195     0.2695611860     1.4991847871
   43      H      -7.2224602385    -1.7398070972     0.7530070306
   44      H      -6.8527422008    -0.9957202975    -0.8329639961
   45      H      -5.7504082488    -3.5538642980     0.2937246434
   46      H      -5.3912378638    -2.8715491064    -1.3221460942
   47      H      -3.3299627744    -2.8659878322     0.5923727528
   48      H      -3.6475439662     3.9251758717     1.3399438847
   49      H      -3.9263931085     4.7167835779    -0.2637405426
   50      H       0.1894948102     1.6934447291    -1.3023629248
   51      H       0.9104226064     3.3480330898    -1.4586845408
   52      H       0.7033229294     2.6041289360     0.1832206701
   53      H       0.8379053340    -2.7975964277    -0.7376860825
   54      H       0.6170508395    -1.2036954478    -1.5780905643
   55      H       0.3687623344    -1.7736396258     1.5035143709
   56      H       0.1812993007    -0.1448709548     0.7615106896
 ----------------------------------------------------------------
 Molecular Point Group                 C1    NOp =  1
 Largest Abelian Subgroup              C1    NOp =  1
 Nuclear Repulsion Energy =  3158.2899493984 hartrees
 There are      113 alpha and      113 beta electrons
 Applying Cartesian multipole field
    Component          Value
    ---------          -----
     (2,0,0)        1.00000E-12
     (0,2,0)        2.00000E-11
     (0,0,2)       -3.00000E-11
 Nucleus-field energy     =     0.0000000321 hartrees
 Requested basis set is STO-3G
 There are 86 shells and 176 basis functions
 A cutoff of  1.0D-12 yielded   2168 shell pairs
 There are     10265 function pairs
 Smallest overlap matrix eigenvalue = 2.13E-01
 Guess MOs from SCF MO coefficient file
 Reading MOs from coefficient file
 Reading MOs from coefficient file
 A restricted hybrid HF-DFT SCF calculation will be
 performed using Pulay DIIS extrapolation
 Exchange:     0.2000 Hartree-Fock + 0.0800 Slater + 0.7200 B88
 Correlation:  0.1900 VWN1RPA + 0.8100 LYP
 Using SG-1 standard quadrature grid
 Dispersion:   Grimme D3
 SCF converges when DIIS error is below 1.0E-08
 Geometry optimization detected.  Setting ReadMinima to 0
 Setting SaveMinima to 0
 using 48 threads for integral computing
 -------------------------------------------------------
 OpenMP Integral computing Module                
 Release: version 1.0, May 2013, Q-Chem Inc. Pittsburgh 
 -------------------------------------------------------
 -------------------------------------------------------
 OpenMP BLAS3 based DFT computing Module                
 Release: version 1.0, May 2013, Q-Chem Inc. Pittsburgh 
 -------------------------------------------------------
 ---------------------------------------
  Cycle       Energy         DIIS Error
 ---------------------------------------
    1   -1510.1990146122      5.61E-03
    2   -1510.2846575493      6.29E-04
    3   -1510.2835499097      8.84E-04
    4   -1510.2864920014      3.45E-04
    5   -1510.2870185729      4.43E-05
    6   -1510.2870267875      2.14E-05
    7   -1510.2870288367      6.25E-06
    8   -1510.2870289458      4.17E-06
    9   -1510.2870290241      7.96E-07
   10   -1510.2870290275      2.73E-07
   11   -1510.2870290278      1.52E-07
   12   -1510.2870290279      6.68E-08
   13   -1510.2870290280      1.70E-08
   14   -1510.2870290280      3.21E-09 Convergence criterion met
 ---------------------------------------
 SCF time:  CPU 99.64 s  wall 2.08 s
 SCF   energy in the final basis set = -1510.28702903
 Total energy in the final basis set = -1510.28702903
 
 --------------------------------------------------------------
 
                    Orbital Energies (a.u.)
 --------------------------------------------------------------
 
 Alpha MOs
 -- Occupied --
-18.939 -18.934 -18.927 -18.925 -18.888 -18.885 -18.874 -18.874
-18.874 -18.872 -10.104 -10.097 -10.097 -10.096 -10.069 -10.065
-10.063 -10.061 -10.058 -10.058 -10.055 -10.046 -10.040 -10.037
-10.037 -10.035 -10.021 -10.020 -10.019 -10.017  -1.015  -1.009
 -1.007  -1.002  -0.970  -0.966  -0.940  -0.934  -0.933  -0.931
 -0.763  -0.761  -0.726  -0.722  -0.712  -0.704  -0.691  -0.662
 -0.653  -0.613  -0.596  -0.580  -0.546  -0.543  -0.538  -0.535
 -0.513  -0.508  -0.481  -0.475  -0.464  -0.460  -0.450  -0.439
 -0.434  -0.430  -0.429  -0.412  -0.409  -0.406  -0.402  -0.397
 -0.387  -0.376  -0.373  -0.368  -0.361  -0.358  -0.355  -0.346
 -0.343  -0.341  -0.331  -0.331  -0.328  -0.326  -0.322  -0.310
 -0.308  -0.304  -0.303  -0.294  -0.291  -0.287  -0.285  -0.277
 -0.272  -0.256  -0.250  -0.243  -0.241  -0.234  -0.232  -0.184
 -0.175  -0.172  -0.165  -0.158  -0.157  -0.149  -0.149  -0.143
 -0.140
 -- Virtual --
  0.091   0.098   0.108   0.109   0.208   0.237   0.238   0.256
  0.264   0.275   0.286   0.290   0.305   0.323   0.326   0.335
  0.340   0.341   0.346   0.350   0.351   0.361   0.364   0.368
  0.376   0.379   0.385   0.398   0.402   0.403   0.410   0.412
  0.413   0.417   0.423   0.424   0.431   0.432   0.434   0.435
  0.437   0.440   0.443   0.446   0.450   0.453   0.455   0.467
  0.470   0.474   0.488   0.490   0.491   0.504   0.506   0.537
  0.538   0.552   0.555   0.639   0.648   0.649   0.655
 --------------------------------------------------------------
 
          Ground-State Mulliken Net Atomic Charges

     Atom                 Charge (a.u.)
  ----------------------------------------
      1 O                    -0.212207
      2 C                     0.209350
      3 C                    -0.079069
      4 C                    -0.078518
      5 C                     0.216106
      6 O                    -0.165504
      7 C                    -0.049518
      8 C                    -0.055828
      9 O                    -0.172197
     10 C                     0.211358
     11 C                    -0.076876
     12 C                    -0.077034
     13 C                     0.211422
     14 O                    -0.213171
     15 O                    -0.169067
     16 O                    -0.174529
     17 O                    -0.210037
     18 C                    -0.143847
     19 C                     0.026336
     20 C                    -0.144419
     21 C                    -0.143696
     22 C                     0.023792
     23 O                    -0.184636
     24 H                     0.085766
     25 H                     0.084940
     26 H                     0.082847
     27 H                     0.077525
     28 H                     0.073264
     29 H                     0.077810
     30 H                     0.072656
     31 H                     0.089812
     32 O                    -0.222264
     33 C                    -0.128568
     34 C                     0.025784
     35 C                    -0.144039
     36 C                    -0.144110
     37 C                     0.024188
     38 O                    -0.186336
     39 H                     0.086800
     40 H                     0.084746
     41 H                     0.090335
     42 H                     0.082890
     43 H                     0.078243
     44 H                     0.073868
     45 H                     0.078215
     46 H                     0.072928
     47 H                     0.092803
     48 H                     0.089362
     49 H                     0.090031
     50 H                     0.104550
     51 H                     0.082230
     52 H                     0.095767
     53 H                     0.082374
     54 H                     0.099545
     55 H                     0.097243
     56 H                     0.100584
  ----------------------------------------
  Sum of atomic charges =     0.000000

 -----------------------------------------------------------------
                    Cartesian Multipole Moments
 -----------------------------------------------------------------
    Charge (ESU x 10^10)
                 0.0000
    Dipole Moment (Debye)
         X      -0.4998      Y       0.3484      Z      -1.5124
       Tot       1.6305
    Quadrupole Moments (Debye-Ang)
        XX    -132.7034     XY       2.3627     YY    -149.5670
        XZ       3.8301     YZ       3.3828     ZZ    -171.2750
    Octopole Moments (Debye-Ang^2)
       XXX      25.5164    XXY      11.4559    XYY     -19.7071
       YYY      46.8938    XXZ     -17.7931    XYZ     -10.0865
       YYZ      -2.1820    XZZ     -10.6016    YZZ       8.7130
       ZZZ      22.2360
    Hexadecapole Moments (Debye-Ang^3)
      XXXX  -14653.2224   XXXY     -24.7503   XXYY   -2981.7261
      XYYY    -211.4496   YYYY   -2502.5307   XXXZ      53.7703
      XXYZ      76.8418   XYYZ      -3.5112   YYYZ     -37.5142
      XXZZ   -2837.0840   XYZZ     -45.3206   YYZZ    -626.3058
      XZZZ     154.3976   YZZZ     -39.4244   ZZZZ   -1054.0575
 -----------------------------------------------------------------
 Calculating analytic gradient of the SCF energy
 Gradient of SCF Energy
            1           2           3           4           5           6
    1  -0.0000069  -0.0000157  -0.0004752  -0.0000736  -0.0036587  -0.0012095
    2  -0.0002697   0.0002877   0.0002999   0.0007893  -0.0030251   0.0020999
    3  -0.0000770  -0.0001635   0.0000595  -0.0004548  -0.0024234   0.0018691
            7           8           9          10          11          12
    1   0.0019983  -0.0033880  -0.0006660   0.0030951   0.0006283   0.0018549
    2  -0.0015196  -0.0005366  -0.0044663   0.0023582  -0.0009024   0.0031147
    3   0.0008085   0.0027672  -0.0014123  -0.0023554  -0.0015185   0.0004598
           13          14          15          16          17          18
    1  -0.0007718   0.0010420   0.0001422   0.0000005   0.0002372   0.0009335
    2  -0.0020476   0.0012661  -0.0001597   0.0013735  -0.0006892   0.0001685
    3   0.0019572  -0.0000375   0.0000290  -0.0000354  -0.0009125   0.0002714
           19          20          21          22          23          24
    1  -0.0010317   0.0001169  -0.0004820   0.0000315  -0.0009298   0.0000425
    2  -0.0001895   0.0004675  -0.0005747   0.0000662  -0.0006092   0.0007724
    3  -0.0000887   0.0005427  -0.0003944  -0.0005869   0.0002497   0.0005289
           25          26          27          28          29          30
    1  -0.0008206   0.0003141  -0.0000411  -0.0000498   0.0000959  -0.0000878
    2   0.0007172  -0.0000561  -0.0000611   0.0001404  -0.0000153  -0.0000616
    3   0.0006613  -0.0002221   0.0000492   0.0000007  -0.0000581  -0.0001939
           31          32          33          34          35          36
    1   0.0003392  -0.0016515  -0.0000236   0.0004697  -0.0000358   0.0001856
    2   0.0001621   0.0016197   0.0000274  -0.0002756  -0.0002444   0.0000856
    3  -0.0000383   0.0016962   0.0000255  -0.0001240   0.0001904  -0.0001434
           37          38          39          40          41          42
    1   0.0000285  -0.0000581  -0.0001703   0.0003486  -0.0000235  -0.0000313
    2   0.0003251   0.0003460   0.0000237  -0.0001778   0.0000638  -0.0000521
    3   0.0000224   0.0001496   0.0001088  -0.0000837  -0.0000404   0.0000124
           43          44          45          46          47          48
    1   0.0000332   0.0000007  -0.0000073  -0.0000637   0.0001222  -0.0000246
    2   0.0000354   0.0000112  -0.0000183  -0.0000612  -0.0001356  -0.0000430
    3  -0.0000758  -0.0000368   0.0000001  -0.0000423   0.0001402  -0.0000154
           49          50          51          52          53          54
    1   0.0000387   0.0003210   0.0000217   0.0005652  -0.0002158   0.0030670
    2  -0.0000411   0.0010516  -0.0001276   0.0007615   0.0003977   0.0009877
    3   0.0000097  -0.0032376   0.0000949  -0.0000570   0.0020541  -0.0003422
           55          56
    1   0.0013299  -0.0013904
    2   0.0004648  -0.0039244
    3   0.0000721   0.0003406
 Max gradient component =       4.466E-03
 RMS gradient           =       1.102E-03
 Gradient time:  CPU 29.97 s  wall 0.63 s
 Geometry Optimization Parameters
   NAtoms,    NIC,     NZ,  NCons,   NDum,   NFix, NCnnct, MaxDiis
       56     458       0       0       0       0       0       0

 Cartesian Hessian Update
 Hessian Updated using BFGS Update


** GEOMETRY OPTIMIZATION IN DELOCALIZED INTERNAL COORDINATES **
   Searching for a Minimum

   Optimization Cycle:   3

                       Coordinates (Angstroms)
     ATOM                X               Y               Z
      1  O        -2.8408499322    1.4372881948    1.1943010067
      2  C        -3.7237313602    1.4611963049    0.3090676613
      3  C        -4.4935188835    0.2390414903   -0.2981567539
      4  C        -3.5416122166   -0.9802338235   -0.6634529874
      5  C        -2.0199897593   -0.6310118084   -0.4862879391
      6  O        -1.3941781610   -1.5503706192    0.4127456468
      7  C         0.0477435025   -1.2299077923    0.5925560460
      8  C         0.9212421396   -1.6953385835   -0.6291604812
      9  O         2.3298624272   -1.3291172090   -0.3405284527
     10  C         2.9795481754   -0.7537104585   -1.4919312862
     11  C         4.3849478922   -0.2337531415   -1.0274782184
     12  C         4.3026783486    0.9706090634    0.0136072891
     13  C         2.8429521184    1.4865109475    0.2751887714
     14  O         2.2627965697    1.6427613231    1.3704419042
     15  O        -4.2124114003    2.6575963931   -0.3064826287
     16  O         2.2982449780    1.8354902523   -1.0025301483
     17  O         2.4872009871   -0.7316743814   -2.6404271747
     18  C         0.9353043327    2.4036363132   -0.8818336548
     19  C         5.1292461085   -1.3231895647   -0.1422747923
     20  C         6.6407105149   -0.8915062576    0.0247896176
     21  C         6.5149319394    0.2626041421    1.0859398864
     22  C         4.9520764582    0.3100414281    1.2976578784
     23  O         4.5522376908   -1.1144179573    1.2057712968
     24  H         4.9617637130    0.0543596837   -1.9231670475
     25  H         4.8962085040    1.8335641705   -0.3402848582
     26  H         4.9742981274   -2.3676726050   -0.4754163427
     27  H         7.2399975128   -1.7321143282    0.4091511903
     28  H         7.0806643751   -0.5493498601   -0.9256178084
     29  H         7.0237658796    0.0012690679    2.0274104148
     30  H         6.9160737284    1.2217075165    0.7211376292
     31  H         4.6066851236    0.7500016143    2.2533572399
     32  O        -1.4317229065    0.3236725703   -1.0442606936
     33  C        -3.4987412371    3.8332864715    0.2446541902
     34  C        -5.4218723575   -0.4420293846    0.8000247639
     35  C        -6.4095624682   -1.4389778057    0.0732375606
     36  C        -5.4476062350   -2.6425028298   -0.2459030997
     37  C        -4.0801246006   -2.0976340689    0.3249868066
     38  O        -4.4897025623   -1.3322767490    1.5257922018
     39  H        -5.0748171967    0.5867068115   -1.1696497200
     40  H        -3.6873439678   -1.2763015630   -1.7191077528
     41  H        -2.4097555056    3.7777240388    0.0412893866
     42  H        -5.9023802195    0.2695611860    1.4991847871
     43  H        -7.2224602385   -1.7398070972    0.7530070306
     44  H        -6.8527422008   -0.9957202975   -0.8329639961
     45  H        -5.7504082488   -3.5538642980    0.2937246434
     46  H        -5.3912378638   -2.8715491064   -1.3221460942
     47  H        -3.3299627744   -2.8659878322    0.5923727528
     48  H        -3.6475439662    3.9251758717    1.3399438847
     49  H        -3.9263931085    4.7167835779   -0.2637405426
     50  H         0.1894948102    1.6934447291   -1.3023629248
     51  H         0.9104226064    3.3480330898   -1.4586845408
     52  H         0.7033229294    2.6041289360    0.1832206701
     53  H         0.8379053340   -2.7975964277   -0.7376860825
     54  H         0.6170508395   -1.2036954478   -1.5780905643
     55  H         0.3687623344   -1.7736396258    1.5035143709
     56  H         0.1812993007   -0.1448709548    0.7615106896
   Point Group: c1    Number of degrees of freedom:   162


   Energy is  -1510.287029028

 Hessian Updated using BFGS Update

152 Hessian modes will be used to form the next step
  Hessian Eigenvalues:
     0.001798    0.002000    0.002330    0.002642    0.002684    0.003496
     0.004237    0.004265    0.004395    0.004562    0.004651    0.004849
     0.005691    0.006805    0.006824    0.010484    0.011401    0.011480
     0.021607    0.021718    0.025386    0.026112    0.030666    0.030903
     0.035252    0.035527    0.038058    0.041086    0.041569    0.041601
     0.041774    0.045637    0.045987    0.047884    0.048418    0.050104
     0.050653    0.050817    0.053104    0.053431    0.054132    0.054460
     0.055079    0.055134    0.055792    0.056697    0.057871    0.058647
     0.060227    0.060652    0.063790    0.063928    0.064068    0.064192
     0.069686    0.069810    0.072716    0.072919    0.080463    0.091905
     0.092796    0.092878    0.094713    0.095740    0.096786    0.099367
     0.101852    0.102565    0.104889    0.108473    0.109838    0.113787
     0.114736    0.122079    0.130869    0.136637    0.146219    0.157411
     0.159981    0.159999    0.160000    0.163440    0.163975    0.179136
     0.219496    0.220166    0.220689    0.223057    0.226273    0.227037
     0.237982    0.238656    0.239438    0.239443    0.246233    0.248008
     0.249479    0.249767    0.249941    0.249955    0.249992    0.249999
     0.253030    0.253125    0.257389    0.259132    0.259197    0.262740
     0.264838    0.292580    0.292775    0.306553    0.307179    0.321181
     0.324715    0.325274    0.326841    0.326841    0.327608    0.327678
     0.328826    0.328858    0.328976    0.329327    0.329764    0.330111
     0.330251    0.330797    0.330892    0.332618    0.332704    0.334847
     0.334865    0.334886    0.334889    0.334952    0.335017    0.335033
     0.335034    0.338530    0.341412    0.343851    0.345016    0.395187
     0.404385    0.407759    0.409005    0.813325    0.830598    0.832977
     0.835389    4.388231

 Minimum Search - Taking Simple RFO Step
 Searching for Lamda that Minimizes Along All modes
 Value Taken    Lamda =  -0.01465566
 Calculated Step too Large.  Step scaled by  0.381216
 Step Taken.  Stepsize is  0.300000

                             Maximum     Tolerance    Cnvgd?
         Gradient           0.023011      0.000300      NO
         Displacement       0.171507      0.001200      NO
         Energy change     -0.020216      0.000001      NO


 New Cartesian Coordinates Obtained by Inverse Iteration

 Displacement from previous Coordinates is:  5.279520
 Adding empirical dispersion correction 
 ----------------------------------------------------------------
 Doing -D3(op) with
 s6 =   1.00000
 s8 =   0.78311
 a1 =   0.30000
 a2 =   4.25000
 n  =  10.00000
 -D3 energy without 3body term =     -0.0702564704 hartrees
 ----------------------------------------------------------------
             Standard Nuclear Orientation (Angstroms)
    I     Atom           X                Y                Z
 ----------------------------------------------------------------
    1      O      -2.8871275879     1.5697883797     0.8980266754
    2      C      -3.7655496654     1.4865196045     0.0119229470
    3      C      -4.5232949398     0.1977859644    -0.4573109814
    4      C      -3.5614758933    -1.0472913473    -0.6806181295
    5      C      -2.0431820249    -0.6673383907    -0.5390803191
    6      O      -1.4132992153    -1.4852684544     0.4485706873
    7      C       0.0144681670    -1.1102826381     0.6242080483
    8      C       0.9055842443    -1.6007105456    -0.5727041324
    9      O       2.3044710688    -1.2010828567    -0.2840719389
   10      C       2.9038069036    -0.5673146092    -1.4277606224
   11      C       4.3457273294    -0.1029486159    -1.0204813390
   12      C       4.3603514995     0.9510570291     0.1738393258
   13      C       2.9339783015     1.3827468334     0.6673619655
   14      O       2.4844506214     1.3619747082     1.8328506893
   15      O      -4.2607347234     2.6022455197    -0.7358647706
   16      O       2.2044150499     1.8240902881    -0.4810536723
   17      O       2.3309592896    -0.4242349376    -2.5290745592
   18      C       0.8463892088     2.2786644483    -0.1022878749
   19      C       5.1755514801    -1.2873437337    -0.3606094739
   20      C       6.6960466197    -0.8589415489    -0.2976523841
   21      C       6.6809963243     0.1513565407     0.9081810959
   22      C       5.1490203558     0.1458892971     1.2861357951
   23      O       4.7447775379    -1.2609621410     1.0556357173
   24      H       4.8371988277     0.3015605698    -1.9222010864
   25      H       4.9039205543     1.8662381662    -0.1249839143
   26      H       4.9878413690    -2.2828365167    -0.8073747795
   27      H       7.3333906609    -1.7324220584    -0.0872360896
   28      H       7.0335716942    -0.3939224185    -1.2377086827
   29      H       7.2865239106    -0.2185454284     1.7508445808
   30      H       7.0394016240     1.1549891711     0.6285746891
   31      H       4.9045041220     0.4539832945     2.3213196755
   32      O      -1.4567483651     0.2121201789    -1.2101647398
   33      C      -3.5583190649     3.8380511028    -0.3178823861
   34      C      -5.4520952577    -0.3627355359     0.7068120749
   35      C      -6.4297465967    -1.4416383322     0.0923422986
   36      C      -5.4582387657    -2.6664434144    -0.0865775488
   37      C      -4.0967546015    -2.0514603051     0.4244515757
   38      O      -4.5170070614    -1.1599845290     1.5307666244
   39      H      -5.1026297048     0.4410753779    -1.3647582582
   40      H      -3.7013190156    -1.4602327424    -1.6970448185
   41      H      -2.4680019287     3.7683040518    -0.5094767332
   42      H      -5.9403425045     0.4191887658     1.3202481196
   43      H      -7.2435737483    -1.6704880992     0.7986194090
   44      H      -6.8718868038    -1.1056795491    -0.8593113054
   45      H      -5.7572395477    -3.5139330232     0.5504794877
   46      H      -5.3955252580    -3.0139030974    -1.1302291922
   47      H      -3.3425666996    -2.7796505066     0.7783626847
   48      H      -3.7128513924     4.0515914314     0.7595160993
   49      H      -3.9900879311     4.6553452699    -0.9241779583
   50      H       0.0890061702     1.5483270695    -0.4607523321
   51      H       0.6710587874     3.2629054352    -0.5776734764
   52      H       0.7756065094     2.3711773263     0.9998530432
   53      H       0.8495926582    -2.7073042500    -0.6548134715
   54      H       0.5865092415    -1.1441532182    -1.5342539494
   55      H       0.3373172681    -1.6077517233     1.5604571785
   56      H       0.1219308289    -0.0137979480     0.7457710639
 ----------------------------------------------------------------
 Molecular Point Group                 C1    NOp =  1
 Largest Abelian Subgroup              C1    NOp =  1
 Nuclear Repulsion Energy =  3162.7754580573 hartrees
 There are      113 alpha and      113 beta electrons
 Applying Cartesian multipole field
    Component          Value
    ---------          -----
     (2,0,0)        1.00000E-12
     (0,2,0)        2.00000E-11
     (0,0,2)       -3.00000E-11
 Nucleus-field energy     =     0.0000000311 hartrees
 Requested basis set is STO-3G
 There are 86 shells and 176 basis functions
 A cutoff of  1.0D-12 yielded   2164 shell pairs
 There are     10204 function pairs
 Smallest overlap matrix eigenvalue = 2.13E-01
 Guess MOs from SCF MO coefficient file
 Reading MOs from coefficient file
 Reading MOs from coefficient file
 A restricted hybrid HF-DFT SCF calculation will be
 performed using Pulay DIIS extrapolation
 Exchange:     0.2000 Hartree-Fock + 0.0800 Slater + 0.7200 B88
[...]
      7  C        -0.0577643558   -1.0689094013    0.5788407995
      8  C         0.8996529164   -1.8201804242   -0.4181650506
      9  O         2.2533173961   -1.2897790072   -0.1342746431
     10  C         3.0420811042   -1.1876016171   -1.3260939188
     11  C         4.3679378574   -0.4512187285   -0.9341807671
     12  C         4.0996933248    0.9604766481   -0.2565030521
     13  C         2.5770596141    1.3493667186   -0.2018326646
     14  O         1.8818929066    1.5951160981    0.8087671168
     15  O        -4.0297960050    2.4823420378    0.8685094467
     16  O         2.1122068057    1.4211833140   -1.5506926036
     17  O         2.6969013841   -1.6156008652   -2.4475810416
     18  C         0.6883498374    1.8379945804   -1.6102634191
     19  C         5.1269938883   -1.1960930797    0.2476425541
     20  C         6.5810282711   -0.5877078736    0.3718415659
     21  C         6.2791933266    0.7865872159    1.0785985511
     22  C         4.7053508311    0.7297641958    1.1883530880
     23  O         4.4353741822   -0.7020851855    1.4586781132
     24  H         4.9915223725   -0.3606981990   -1.8406173603
     25  H         4.6364737106    1.7584436296   -0.8017440116
     26  H         5.0812498796   -2.3013495576    0.1981371708
     27  H         7.2170499999   -1.2339544021    0.9975318784
     28  H         7.0624327919   -0.4635097090   -0.6113283323
     29  H         6.7336174315    0.8328215879    2.0811674582
     30  H         6.6269852371    1.6524917295    0.4931175049
     31  H         4.2488657793    1.3624839069    1.9740996754
     32  O        -1.2224649919   -0.3942149409   -1.8296543108
     33  C        -3.1146678583    3.4902844665    1.4559023789
     34  C        -5.1289654527   -0.3440118646    0.8271881601
     35  C        -6.3342930562   -1.0935072612    0.1335639791
     36  C        -5.5967378130   -2.3322718433   -0.4973242831
     37  C        -4.1053189675   -2.0620785941   -0.0502835357
     38  O        -4.2517282795   -1.4428252690    1.2878488412
     39  H        -4.9171782827    0.8673747703   -1.0421798982
     40  H        -3.8035136505   -1.0009311669   -2.0059265878
     41  H        -2.4209293166    3.9023098712    0.6951394006
     42  H        -5.4026847579    0.3218688727    1.6686395605
     43  H        -7.0775735054   -1.4032892314    0.8855148294
     44  H        -6.8343007517   -0.4642085872   -0.6199255157
     45  H        -5.9611644281   -3.2799603484   -0.0700617796
     46  H        -5.6994417434   -2.3762493345   -1.5933581778
     47  H        -3.4582419491   -2.9579631230    0.0069018197
     48  H        -2.5151957815    3.0587761771    2.2833059013
     49  H        -3.7618811885    4.2967077128    1.8466596591
     50  H         0.0247019067    0.9498674567   -1.7460827279
     51  H         0.5882878069    2.5157465123   -2.4785640792
     52  H         0.4000575791    2.3637423615   -0.6788920722
     53  H         0.8699123085   -2.9179736251   -0.2481445236
     54  H         0.6084645723   -1.6062737398   -1.4679783505
     55  H         0.1355311682   -1.4133676264    1.6143213578
     56  H         0.1515689875    0.0224172075    0.5297080119
   Point Group: c1    Number of degrees of freedom:   162


   Energy is  -1510.293737916

 Hessian Updated using BFGS Update

162 Hessian modes will be used to form the next step
  Hessian Eigenvalues:
     0.000688    0.001666    0.002378    0.002519    0.003591    0.003800
     0.004245    0.005933    0.005997    0.008950    0.009935    0.011621
     0.014367    0.016657    0.020561    0.021956    0.022007    0.025143
     0.025762    0.027631    0.030845    0.031687    0.031780    0.034009
     0.034970    0.037688    0.039304    0.040678    0.042134    0.042834
     0.043824    0.046078    0.046978    0.048604    0.050312    0.051025
     0.051712    0.052229    0.053146    0.053319    0.054268    0.054989
     0.055913    0.056384    0.056577    0.057158    0.058654    0.060078
     0.063494    0.063822    0.064011    0.064101    0.064178    0.066436
     0.067965    0.070046    0.070994    0.072702    0.073134    0.076171
     0.086766    0.092892    0.092926    0.094827    0.096832    0.098642
     0.099109    0.101537    0.101855    0.105368    0.106338    0.111638
     0.113701    0.119383    0.129506    0.139227    0.142350    0.150457
     0.156921    0.158787    0.159974    0.160011    0.160426    0.162287
     0.165039    0.167681    0.172608    0.187844    0.216302    0.219547
     0.221189    0.222918    0.227837    0.236521    0.237206    0.239333
     0.239520    0.242197    0.245403    0.247772    0.248807    0.249305
     0.250024    0.250745    0.251469    0.252902    0.253257    0.253608
     0.256334    0.258397    0.261262    0.262786    0.264000    0.274498
     0.288710    0.292530    0.292966    0.298724    0.302318    0.306767
     0.322740    0.324791    0.326239    0.326742    0.326945    0.327671
     0.327872    0.328830    0.328867    0.328983    0.328991    0.329717
     0.330087    0.330300    0.330894    0.330971    0.332501    0.332786
     0.334786    0.334840    0.334887    0.334893    0.334951    0.335007
     0.335036    0.335040    0.336088    0.344094    0.348447    0.359503
     0.375183    0.399770    0.404027    0.431279    0.457732    0.492484
     0.684214    0.815699    0.830097    0.834584    0.837868    2.813572

 Minimum Search - Taking Simple RFO Step
 Searching for Lamda that Minimizes Along All modes
 Value Taken    Lamda =   0.00000000
 Step Taken.  Stepsize is  0.003321

                             Maximum     Tolerance    Cnvgd?
         Gradient           0.000047      0.000300     YES
         Displacement       0.001164      0.001200     YES
         Energy change      0.000000      0.000001     YES

 Final energy is   -1510.29373791551     


 ******************************
 **  OPTIMIZATION CONVERGED  **
 ******************************

                       Coordinates (Angstroms)
     ATOM                X               Y               Z
      1  O        -2.0243182320    1.3823396361    0.2632318884
      2  C        -3.2764169256    1.4224061748    0.2835443655
      3  C        -4.2650982077    0.3617480786   -0.3069292301
      4  C        -3.5234724577   -0.8857615249   -0.9439434446
      5  C        -1.9530376565   -0.7801545866   -0.8847725379
      6  O        -1.4987996321   -1.3345569339    0.3505034748
      7  C        -0.0577643558   -1.0689094013    0.5788407995
      8  C         0.8996529164   -1.8201804242   -0.4181650506
      9  O         2.2533173961   -1.2897790072   -0.1342746431
     10  C         3.0420811042   -1.1876016171   -1.3260939188
     11  C         4.3679378574   -0.4512187285   -0.9341807671
     12  C         4.0996933248    0.9604766481   -0.2565030521
     13  C         2.5770596141    1.3493667186   -0.2018326646
     14  O         1.8818929066    1.5951160981    0.8087671168
     15  O        -4.0297960050    2.4823420378    0.8685094467
     16  O         2.1122068057    1.4211833140   -1.5506926036
     17  O         2.6969013841   -1.6156008652   -2.4475810416
     18  C         0.6883498374    1.8379945804   -1.6102634191
     19  C         5.1269938883   -1.1960930797    0.2476425541
     20  C         6.5810282711   -0.5877078736    0.3718415659
     21  C         6.2791933266    0.7865872159    1.0785985511
     22  C         4.7053508311    0.7297641958    1.1883530880
     23  O         4.4353741822   -0.7020851855    1.4586781132
     24  H         4.9915223725   -0.3606981990   -1.8406173603
     25  H         4.6364737106    1.7584436296   -0.8017440116
     26  H         5.0812498796   -2.3013495576    0.1981371708
     27  H         7.2170499999   -1.2339544021    0.9975318784
     28  H         7.0624327919   -0.4635097090   -0.6113283323
     29  H         6.7336174315    0.8328215879    2.0811674582
     30  H         6.6269852371    1.6524917295    0.4931175049
     31  H         4.2488657793    1.3624839069    1.9740996754
     32  O        -1.2224649919   -0.3942149409   -1.8296543108
     33  C        -3.1146678583    3.4902844665    1.4559023789
     34  C        -5.1289654527   -0.3440118646    0.8271881601
     35  C        -6.3342930562   -1.0935072612    0.1335639791
     36  C        -5.5967378130   -2.3322718433   -0.4973242831
     37  C        -4.1053189675   -2.0620785941   -0.0502835357
     38  O        -4.2517282795   -1.4428252690    1.2878488412
     39  H        -4.9171782827    0.8673747703   -1.0421798982
     40  H        -3.8035136505   -1.0009311669   -2.0059265878
     41  H        -2.4209293166    3.9023098712    0.6951394006
     42  H        -5.4026847579    0.3218688727    1.6686395605
     43  H        -7.0775735054   -1.4032892314    0.8855148294
     44  H        -6.8343007517   -0.4642085872   -0.6199255157
     45  H        -5.9611644281   -3.2799603484   -0.0700617796
     46  H        -5.6994417434   -2.3762493345   -1.5933581778
     47  H        -3.4582419491   -2.9579631230    0.0069018197
     48  H        -2.5151957815    3.0587761771    2.2833059013
     49  H        -3.7618811885    4.2967077128    1.8466596591
     50  H         0.0247019067    0.9498674567   -1.7460827279
     51  H         0.5882878069    2.5157465123   -2.4785640792
     52  H         0.4000575791    2.3637423615   -0.6788920722
     53  H         0.8699123085   -2.9179736251   -0.2481445236
     54  H         0.6084645723   -1.6062737398   -1.4679783505
     55  H         0.1355311682   -1.4133676264    1.6143213578
     56  H         0.1515689875    0.0224172075    0.5297080119

Z-matrix Print:
$molecule
0 1
O 
C  1 1.432837
O  2 1.249026 1 124.770183
C  1 1.481326 2 111.664658 3 -6.926054 0
H  4 1.110250 1 110.603471 2 -25.406650 0
H  4 1.111279 1 110.416895 2 95.511450 0
C  2 1.566446 1 106.939223 3 179.802153 0
H  7 1.103938 2 108.133368 1 -179.937418 0
C  4 1.573238 1 105.288679 2 -144.600336 0
H  9 1.108257 4 109.727611 1 -69.622907 0
H  9 1.112308 4 109.026231 1 48.790707 0
O  9 1.483000 4 114.093668 1 172.976345 0
C  12 1.428146 9 111.882246 4 -67.706319 0
O  13 1.255184 12 125.828168 9 16.084802 0
C  13 1.575093 12 108.879930 9 -170.514749 0
H  15 1.104308 13 107.215059 12 -149.183558 0
C  15 1.584953 13 113.494487 12 88.529933 0
H  17 1.105197 15 111.641167 13 120.727165 0
C  17 1.565613 15 112.912743 13 -1.544285 0
O  19 1.252904 17 127.107500 15 1.871602 0
O  19 1.425913 17 108.945083 15 -178.218103 0
C  21 1.482713 19 109.983115 17 179.052638 0
H  22 1.105394 21 105.938500 19 177.518011 0
H  22 1.108963 21 111.524813 19 58.164135 0
H  22 1.109127 21 111.385898 19 -63.288863 0
C  15 1.587733 13 113.198002 12 -25.442336 0
H  26 1.106611 15 114.493978 13 -33.932441 0
O  26 1.481725 15 103.584801 13 86.409414 0
C  28 1.479576 26 95.036229 15 56.898001 0
H  29 1.107411 28 110.887163 26 -179.384326 0
C  29 1.579770 28 103.693569 26 56.072333 0
H  31 1.101713 29 112.059313 28 -155.186183 0
H  31 1.101754 29 110.393319 28 83.454475 0
C  31 1.573704 29 101.063011 28 -34.790157 0
H  34 1.101578 31 111.509672 29 117.379967 0
H  34 1.101713 31 112.740487 29 -120.009379 0
C  7 1.588737 2 112.428060 1 -55.916167 0
H  37 1.105519 7 110.426995 2 -124.749025 0
C  37 1.572462 7 113.457860 2 -3.361965 0
O  39 1.250984 37 127.934246 7 120.594334 0
O  39 1.428520 37 107.139653 7 -61.337658 0
C  41 1.484806 39 111.348934 37 -177.713794 0
H  42 1.106032 41 106.874132 39 141.328145 0
H  42 1.107689 41 110.431380 39 21.426826 0
H  42 1.116980 41 110.574909 39 -99.255372 0
C  37 1.583559 7 101.253879 2 116.820979 0
H  46 1.107299 37 113.987098 7 -153.322978 0
O  46 1.481943 37 103.740571 7 -33.295698 0
C  48 1.479523 46 95.056545 37 56.052692 0
H  49 1.107310 48 110.521631 46 179.654274 0
C  46 1.578688 37 108.216892 7 75.896918 0
H  51 1.101607 46 112.332852 37 47.154798 0
H  51 1.101718 46 110.453503 37 168.684879 0
C  51 1.574578 46 101.004979 37 -73.248579 0
H  54 1.101656 51 111.576234 46 -119.158940 0
H  54 1.101725 51 112.701090 46 118.208367 0
$end

 
 --------------------------------------------------------------
 
                    Orbital Energies (a.u.)
 --------------------------------------------------------------
 
 Alpha MOs
 -- Occupied --
-18.948 -18.930 -18.923 -18.918 -18.891 -18.890 -18.881 -18.870
-18.868 -18.863 -10.111 -10.103 -10.091 -10.089 -10.072 -10.064
-10.061 -10.060 -10.057 -10.055 -10.052 -10.044 -10.037 -10.031
-10.030 -10.029 -10.023 -10.021 -10.016 -10.015  -1.024  -1.008
 -1.003  -0.995  -0.972  -0.963  -0.947  -0.934  -0.928  -0.923
 -0.766  -0.757  -0.727  -0.721  -0.712  -0.701  -0.688  -0.669
 -0.644  -0.610  -0.594  -0.578  -0.548  -0.540  -0.539  -0.531
 -0.515  -0.504  -0.486  -0.470  -0.466  -0.456  -0.449  -0.439
 -0.436  -0.429  -0.425  -0.418  -0.413  -0.399  -0.397  -0.395
 -0.383  -0.380  -0.373  -0.363  -0.360  -0.356  -0.351  -0.341
 -0.338  -0.336  -0.334  -0.328  -0.326  -0.321  -0.319  -0.316
 -0.308  -0.304  -0.302  -0.299  -0.290  -0.284  -0.283  -0.274
 -0.268  -0.263  -0.248  -0.238  -0.236  -0.235  -0.228  -0.189
 -0.177  -0.168  -0.164  -0.157  -0.150  -0.148  -0.144  -0.141
 -0.137
 -- Virtual --
  0.089   0.099   0.104   0.119   0.218   0.238   0.243   0.246
  0.271   0.280   0.287   0.295   0.310   0.322   0.326   0.337
  0.339   0.344   0.345   0.351   0.355   0.360   0.368   0.370
  0.372   0.389   0.391   0.401   0.403   0.405   0.408   0.410
  0.416   0.417   0.420   0.424   0.427   0.433   0.434   0.434
  0.441   0.445   0.449   0.454   0.458   0.462   0.464   0.465
  0.473   0.487   0.493   0.494   0.501   0.508   0.511   0.534
  0.542   0.550   0.557   0.632   0.648   0.655   0.657
 --------------------------------------------------------------
 
          Ground-State Mulliken Net Atomic Charges

     Atom                 Charge (a.u.)
  ----------------------------------------
      1 O                    -0.206658
      2 C                     0.215702
      3 C                    -0.078392
      4 C                    -0.081339
      5 C                     0.223411
      6 O                    -0.168229
      7 C                    -0.050849
      8 C                    -0.057105
      9 O                    -0.172355
     10 C                     0.212474
     11 C                    -0.077825
     12 C                    -0.077531
     13 C                     0.212388
     14 O                    -0.219530
     15 O                    -0.167440
     16 O                    -0.176834
     17 O                    -0.210613
     18 C                    -0.151795
     19 C                     0.025959
     20 C                    -0.144138
     21 C                    -0.143870
     22 C                     0.024382
     23 O                    -0.185749
     24 H                     0.084702
     25 H                     0.083118
     26 H                     0.081831
     27 H                     0.076947
     28 H                     0.073183
     29 H                     0.076921
     30 H                     0.072417
     31 H                     0.088777
     32 O                    -0.224483
     33 C                    -0.128077
     34 C                     0.025240
     35 C                    -0.143550
     36 C                    -0.144275
     37 C                     0.026679
     38 O                    -0.186544
     39 H                     0.087575
     40 H                     0.084360
     41 H                     0.092218
     42 H                     0.086995
     43 H                     0.078781
     44 H                     0.073850
     45 H                     0.078539
     46 H                     0.073920
     47 H                     0.087982
     48 H                     0.093762
     49 H                     0.093140
     50 H                     0.109992
     51 H                     0.078421
     52 H                     0.089748
     53 H                     0.080184
     54 H                     0.105654
     55 H                     0.092773
     56 H                     0.105154
  ----------------------------------------
  Sum of atomic charges =    -0.000000

 -----------------------------------------------------------------
                    Cartesian Multipole Moments
 -----------------------------------------------------------------
    Charge (ESU x 10^10)
                 0.0000
    Dipole Moment (Debye)
         X      -1.8197      Y       1.3975      Z      -0.0956
       Tot       2.2965
    Quadrupole Moments (Debye-Ang)
        XX    -132.5275     XY       0.9302     YY    -150.7325
        XZ       3.6401     YZ       2.0500     ZZ    -169.1611
    Octopole Moments (Debye-Ang^2)
       XXX       5.8460    XXY      19.0389    XYY     -19.1875
       YYY      50.6857    XXZ     -12.7954    XYZ     -17.9986
       YYZ      16.9434    XZZ     -27.6211    YZZ      32.9022
       ZZZ      53.5251
    Hexadecapole Moments (Debye-Ang^3)
      XXXX  -13833.1535   XXXY     -85.9350   XXYY   -2785.2890
      XYYY    -243.1894   YYYY   -2225.6918   XXXZ      98.8525
      XXYZ     -12.4229   XYYZ      10.9269   YYYZ    -160.6158
      XXZZ   -2694.3645   XYZZ     -58.6218   YYZZ    -593.0526
      XZZZ     106.0093   YZZZ    -195.4070   ZZZZ   -1229.4653
 -----------------------------------------------------------------
Archival summary:
1\1\vega02.cac.cornell.edu\OPT\ProcedureUnspecified\STO-3G\102026\jj585\SunJan1417:37:242018SunJan1417:37:242018\0\\#,OPT,ProcedureUnspecified,STO-3G,\\0,1\O\C,1,1.43284\O,2,1.24903,1,124.77\C,1,1.48133,2,111.665,3,-6.92605,0\H,4,1.11025,1,110.603,2,-25.4067,0\H,4,1.11128,1,110.417,2,95.5115,0\C,2,1.56645,1,106.939,3,179.802,0\H,7,1.10394,2,108.133,1,-179.937,0\C,4,1.57324,1,105.289,2,-144.6,0\H,9,1.10826,4,109.728,1,-69.6229,0\H,9,1.11231,4,109.026,1,48.7907,0\O,9,1.483,4,114.094,1,172.976,0\C,12,1.42815,9,111.882,4,-67.7063,0\O,13,1.25518,12,125.828,9,16.0848,0\C,13,1.57509,12,108.88,9,-170.515,0\H,15,1.10431,13,107.215,12,-149.184,0\C,15,1.58495,13,113.494,12,88.5299,0\H,17,1.1052,15,111.641,13,120.727,0\C,17,1.56561,15,112.913,13,-1.54428,0\O,19,1.2529,17,127.107,15,1.8716,0\O,19,1.42591,17,108.945,15,-178.218,0\C,21,1.48271,19,109.983,17,179.053,0\H,22,1.10539,21,105.939,19,177.518,0\H,22,1.10896,21,111.525,19,58.1641,0\H,22,1.10913,21,111.386,19,-63.2889,0\C,15,1.58773,13,113.198,12,-25.4423,0\H,26,1.10661,15,114.494,13,-33.9324,0\O,26,1.48172,15,103.585,13,86.4094,0\C,28,1.47958,26,95.0362,15,56.898,0\H,29,1.10741,28,110.887,26,-179.384,0\C,29,1.57977,28,103.694,26,56.0723,0\H,31,1.10171,29,112.059,28,-155.186,0\H,31,1.10175,29,110.393,28,83.4545,0\C,31,1.5737,29,101.063,28,-34.7902,0\H,34,1.10158,31,111.51,29,117.38,0\H,34,1.10171,31,112.74,29,-120.009,0\C,7,1.58874,2,112.428,1,-55.9162,0\H,37,1.10552,7,110.427,2,-124.749,0\C,37,1.57246,7,113.458,2,-3.36197,0\O,39,1.25098,37,127.934,7,120.594,0\O,39,1.42852,37,107.14,7,-61.3377,0\C,41,1.48481,39,111.349,37,-177.714,0\H,42,1.10603,41,106.874,39,141.328,0\H,42,1.10769,41,110.431,39,21.4268,0\H,42,1.11698,41,110.575,39,-99.2554,0\C,37,1.58356,7,101.254,2,116.821,0\H,46,1.1073,37,113.987,7,-153.323,0\O,46,1.48194,37,103.741,7,-33.2957,0\C,48,1.47952,46,95.0565,37,56.0527,0\H,49,1.10731,48,110.522,46,179.654,0\C,46,1.57869,37,108.217,7,75.8969,0\H,51,1.10161,46,112.333,37,47.1548,0\H,51,1.10172,46,110.454,37,168.685,0\C,51,1.57458,46,101.005,37,-73.2486,0\H,54,1.10166,51,111.576,46,-119.159,0\H,54,1.10173,51,112.701,46,118.208,0\\\@

 Total job time:  86.71s(wall), 4132.42s(cpu) 
 Sun Jan 14 17:37:24 2018

        *************************************************************
        *                                                           *
        *  Thank you very much for using Q-Chem.  Have a nice day.  *
        *                                                           *
        *************************************************************


0 sent ACK to 0 
now end server 0 ... 
