mFile = /opt/software/qchem/qchem-5.0.1//bin/mpi/machines
Process 0 of 1 is on vega02.cac.cornell.edu - thread support 0
initial socket setup ...start
initial socket setup ...done 
now start server 0 ... 
vega02.cac.cornell.edu 10.84.3
Q-Chem Developer Version! Running on 10.84.3.*
                  Welcome to Q-Chem
     A Quantum Leap Into The Future Of Chemistry


 Q-Chem 5.0, Q-Chem, Inc., Pleasanton, CA (2017)

 Yihan Shao,  Zhengting Gan,  E. Epifanovsky,  A. T. B. Gilbert,  M. Wormit,  
 J. Kussmann,  A. W. Lange,  A. Behn,  Jia Deng,  Xintian Feng,  D. Ghosh,  
 M. Goldey,  P. R. Horn,  L. D. Jacobson,  I. Kaliman,  T. Kus,  A. Landau,  
 Jie Liu,  E. I. Proynov,  R. M. Richard,  R. P. Steele,  E. J. Sundstrom,  
 H. L. Woodcock III,  P. M. Zimmerman,  D. Zuev,  B. Albrecht,  E. Alguire,  
 S. A. Baeppler,  Z. Benda,  Y. A. Bernard,  E. J. Berquist,  K. B. Bravaya,  
 D. Casanova,  Chun-Min Chang,  Yunqing Chen,  A. Chien,  K. D. Closser,  
 M. P. Coons,  S. Dasgupta,  M. Diedenhofen,  Hainam Do,  R. G. Edgar,  
 Po-Tung Fang,  S. Fatehi,  Qingguo Feng,  Qinghui Ge,  A. Ghysels,  
 J. Gomes,  J. Gonthier,  A. Gunina,  M. W. D. Hanson-Heine,  
 P. H. P. Harbach,  A. W. Hauser,  J. E. Herr,  E. G. Hohenstein,  
 Z. C. Holden,  Kerwin Hui,  T.-C. Jagau,  Hyunjun Ji,  B. Kaduk,  
 K. Khistyaev,  Jaehoon Kim,  P. Klunzinger,  K. Koh,  D. Kosenkov,  
 T. Kowalczyk,  C. M. Krauter,  A. Kunitsa,  Ka Un Lao,  A. Laurent,  
 K. V. Lawler,  Joonho Lee,  D. Lefrancois,  S. Lehtola,  D. S. Levine,  
 Yi-Pei Li,  You-Sheng Lin,  Fenglai Liu,  E. Livshits,  A. Luenser,  
 P. Manohar,  E. Mansoor,  S. F. Manzer,  Shan-Ping Mao,  Yuezhi Mao,  
 N. Mardirossian,  A. V. Marenich,  L. A. Martinez-Martinez,  S. A. Maurer,  
 N. J. Mayhall,  S. C. McKenzie,  J.-M. Mewes,  A. F. Morrison,  K. Nanda,  
 T. S. Nguyen-Beck,  R. Olivares-Amaya,  J. A. Parkhill,  T. M. Perrine,  
 F. Plasser,  S. Prager,  A. Prociuk,  D. R. Rehn,  F. Rob,  M. Schneider,  
 N. Sergueev,  S. M. Sharada,  S. Sharma,  D. W. Small,  T. Stauch,  
 T. Stein,  Yu-Chuan Su,  A. J. W. Thom,  T. Tsuchimochi,  L. Vogt,  
 O. Vydrov,  M. A. Watson,  J. Wenzel,  M. de Wergifosse,  T. A. Wesolowski,  
 A. White,  J. Witte,  A. Yamada,  Jun Yang,  K. Yao,  S. Yeganeh,  
 S. R. Yost,  Zhi-Qiang You,  A. Zech,  Igor Ying Zhang,  Xing Zhang,  
 Yan Zhao,  Ying Zhu,  B. R. Brooks,  G. K. L. Chan,  C. J. Cramer,  
 M. S. Gordon,  W. J. Hehre,  A. Klamt,  M. W. Schmidt,  C. D. Sherrill,  
 D. G. Truhlar,  A. Aspuru-Guzik,  R. Baer,  A. T. Bell,  N. A. Besley,  
 Jeng-Da Chai,  A. Dreuw,  B. D. Dunietz,  T. R. Furlani,  Chao-Ping Hsu,  
 Yousung Jung,  Jing Kong,  D. S. Lambrecht,  WanZhen Liang,  C. Ochsenfeld,  
 V. A. Rassolov,  L. V. Slipchenko,  J. E. Subotnik,  T. Van Voorhis,  
 J. M. Herbert,  A. I. Krylov,  P. M. W. Gill,  M. Head-Gordon

 Contributors to earlier versions of Q-Chem not listed above: 
 R. D. Adamson,  B. Austin,  J. Baker,  G. J. O. Beran,  K. Brandhorst,  
 S. T. Brown,  E. F. C. Byrd,  A. K. Chakraborty,  C.-L. Cheng,  
 Siu Hung Chien,  D. M. Chipman,  D. L. Crittenden,  H. Dachsel,  
 R. A. DiStasio Jr.,  R. J. Doerksen,  A. D. Dutoi,  L. Fusti-Molnar,  
 W. A. Goddard III,  A. Golubeva-Zadorozhnaya,  S. R. Gwaltney,  G. Hawkins,  
 A. Heyden,  S. Hirata,  G. Kedziora,  F. J. Keil,  C. Kelley,  Jihan Kim,  
 R. A. King,  R. Z. Khaliullin,  P. P. Korambath,  W. Kurlancheek,  
 A. M. Lee,  M. S. Lee,  S. V. Levchenko,  Ching Yeh Lin,  D. Liotard,  
 R. C. Lochan,  I. Lotan,  P. E. Maslen,  N. Nair,  D. P. O'Neill,  
 D. Neuhauser,  E. Neuscamman,  C. M. Oana,  R. Olson,  B. Peters,  
 R. Peverati,  P. A. Pieniazek,  Y. M. Rhee,  J. Ritchie,  M. A. Rohrdanz,  
 E. Rosta,  N. J. Russ,  H. F. Schaefer III,  N. E. Schultz,  N. Shenvi,  
 A. C. Simmonett,  A. Sodt,  D. Stuck,  K. S. Thanthiriwatte,  V. Vanovschi,  
 Tao Wang,  A. Warshel,  C. F. Williams,  Q. Wu,  X. Xu,  W. Zhang

 Please cite Q-Chem as follows:
 Y. Shao et al., Mol. Phys. 113, 184-215 (2015)
 DOI: 10.1080/00268976.2014.952696

 Q-Chem 5.0.1 for Intel X86 EM64T Linux

 Parts of Q-Chem use Armadillo 5.200.1 (Boston Tea Smuggler).
 http://arma.sourceforge.net/

 Q-Chem begins on Sun Jan 14 18:35:26 2018  

Host: vega02.cac.cornell.edu
0

     Scratch files written to /scratch/jj585/SOT1001/0528r.save//
 Parallel job on  1  processors

Checking the input file for inconsistencies... 	...done.

--------------------------------------------------------------
User input:
--------------------------------------------------------------
$molecule
0  1
O -2.8112433798 -1.3210622232 1.3937480202
C -2.2396857643 -1.3042748332 0.3129861076
C -1.8167786273 -0.058831953 -0.4344189887
C -1.4958112859 1.1890450633 0.4044199662
C -1.4613736786 1.0023408176 1.9050964915
O -0.7746346272 2.0307094357 2.4849889426
C 0.2231124249 2.5956236142 1.6278862239
C 1.5197302214 1.799710639 1.7347993725
O 2.3524253354 2.0653304694 0.5950784999
C 1.8706725919 1.6260975881 -0.5940914583
C 0.9765816041 0.4168607279 -0.4562119866
C 1.7114750283 -0.9311281706 -0.4228521903
C 3.2047585966 -0.8636299127 -0.1733479866
O 3.7979830156 -1.4283781082 0.734238816
O -2.7480374196 -2.2429088108 -0.5623240177
O 3.9444048132 -0.153384396 -1.0700024719
O 2.1697071851 2.1482603652 -1.6567882935
C 5.3126140364 0.0053299534 -1.0024003346
C 0.3580759996 -1.0358754377 0.5172041202
C -0.2089903129 -2.4527750062 -0.3296317882
C 0.8796012905 -3.2997367757 -0.4513757663
C 1.6608748381 -2.3321281667 0.2896577451
O 1.1643863202 -1.7629336535 1.3818947358
H 0.5049244988 0.3579398498 -1.4342859334
H 1.8237804289 -1.202896427 -1.5154127757
H -0.2721877095 -0.755086015 1.3136861853
H -0.8118438488 -3.0915230803 0.3715675932
H -0.6260853854 -2.2770663929 -1.3500178753
H 0.7891854728 -4.2933352241 0.0652005752
H 1.2985544875 -3.417173375 -1.4776281965
H 2.5026861975 -3.0477929914 0.5036884559
O -2.3172828314 0.50971621 2.6275730327
C -3.5647043903 -3.3051482002 -0.2218480193
C -1.9337206654 0.4748234572 -1.9133760211
C -3.3002901322 1.0809395149 -2.277981539
C -3.2781121829 2.2984907083 -1.3504333844
C -1.8086853356 2.2426263224 -0.7941240192
O -1.1677541422 1.660545266 -1.8908952654
H -2.9176378969 0.0271510391 -0.3284864034
H -2.4361288512 1.6671254666 0.7567258965
H -4.5170450923 -2.9324536165 0.2115354301
H -1.5832777691 -0.2762338186 -2.6524547105
H -3.2332445176 1.4204560496 -3.3366968603
H -4.1789213827 0.4099786668 -2.1616851124
H -3.431726341 3.199932915 -1.9846747421
H -4.046947671 2.2932090883 -0.5478045541
H -1.5188641137 3.2970923505 -0.610705953
H -3.0543735496 -3.9663424167 0.5098576237
H -3.7956817109 -3.8917205635 -1.1343568052
H 5.6486334853 0.6287602894 -1.8561001821
H 5.8161085944 -0.9832579626 -1.0604743173
H 5.591337645 0.5151241519 -0.0554396027
H 2.0462380988 2.1182152051 2.6603070233
H 1.38267153 0.7271825112 1.9161392134
H 0.4753956407 3.5934732886 2.0468070828
H 0.0087500665 2.9419248725 0.6308736914
$end

$rem
JOBTYPE                   OPT
METHOD                    B3LYP
DFT_D                     d3_op
BASIS                     STO-3G
GEOM_OPT_MAX_CYCLES       100
GEOM_OPT_TOL_GRADIENT     300
GEOM_OPT_TOL_DISPLACEMENT 1200
GEOM_OPT_TOL_ENERGY       100
SYMMETRY                  False
THRESH                    12
SCF_CONVERGENCE           8
MAX_SUB_FILE_NUM          128
MEM_STATIC                400
MEM_TOTAL                 4000
$end
--------------------------------------------------------------
 Adding empirical dispersion correction 
 ----------------------------------------------------------------
 Doing -D3(op) with
 s6 =   1.00000
 s8 =   0.78311
 a1 =   0.30000
 a2 =   4.25000
 n  =  10.00000
 -D3 energy without 3body term =     -0.0874821267 hartrees
 ----------------------------------------------------------------
             Standard Nuclear Orientation (Angstroms)
    I     Atom           X                Y                Z
 ----------------------------------------------------------------
    1      O      -2.8112433798    -1.3210622232     1.3937480202
    2      C      -2.2396857643    -1.3042748332     0.3129861076
    3      C      -1.8167786273    -0.0588319530    -0.4344189887
    4      C      -1.4958112859     1.1890450633     0.4044199662
    5      C      -1.4613736786     1.0023408176     1.9050964915
    6      O      -0.7746346272     2.0307094357     2.4849889426
    7      C       0.2231124249     2.5956236142     1.6278862239
    8      C       1.5197302214     1.7997106390     1.7347993725
    9      O       2.3524253354     2.0653304694     0.5950784999
   10      C       1.8706725919     1.6260975881    -0.5940914583
   11      C       0.9765816041     0.4168607279    -0.4562119866
   12      C       1.7114750283    -0.9311281706    -0.4228521903
   13      C       3.2047585966    -0.8636299127    -0.1733479866
   14      O       3.7979830156    -1.4283781082     0.7342388160
   15      O      -2.7480374196    -2.2429088108    -0.5623240177
   16      O       3.9444048132    -0.1533843960    -1.0700024719
   17      O       2.1697071851     2.1482603652    -1.6567882935
   18      C       5.3126140364     0.0053299534    -1.0024003346
   19      C       0.3580759996    -1.0358754377     0.5172041202
   20      C      -0.2089903129    -2.4527750062    -0.3296317882
   21      C       0.8796012905    -3.2997367757    -0.4513757663
   22      C       1.6608748381    -2.3321281667     0.2896577451
   23      O       1.1643863202    -1.7629336535     1.3818947358
   24      H       0.5049244988     0.3579398498    -1.4342859334
   25      H       1.8237804289    -1.2028964270    -1.5154127757
   26      H      -0.2721877095    -0.7550860150     1.3136861853
   27      H      -0.8118438488    -3.0915230803     0.3715675932
   28      H      -0.6260853854    -2.2770663929    -1.3500178753
   29      H       0.7891854728    -4.2933352241     0.0652005752
   30      H       1.2985544875    -3.4171733750    -1.4776281965
   31      H       2.5026861975    -3.0477929914     0.5036884559
   32      O      -2.3172828314     0.5097162100     2.6275730327
   33      C      -3.5647043903    -3.3051482002    -0.2218480193
   34      C      -1.9337206654     0.4748234572    -1.9133760211
   35      C      -3.3002901322     1.0809395149    -2.2779815390
   36      C      -3.2781121829     2.2984907083    -1.3504333844
   37      C      -1.8086853356     2.2426263224    -0.7941240192
   38      O      -1.1677541422     1.6605452660    -1.8908952654
   39      H      -2.9176378969     0.0271510391    -0.3284864034
   40      H      -2.4361288512     1.6671254666     0.7567258965
   41      H      -4.5170450923    -2.9324536165     0.2115354301
   42      H      -1.5832777691    -0.2762338186    -2.6524547105
   43      H      -3.2332445176     1.4204560496    -3.3366968603
   44      H      -4.1789213827     0.4099786668    -2.1616851124
   45      H      -3.4317263410     3.1999329150    -1.9846747421
   46      H      -4.0469476710     2.2932090883    -0.5478045541
   47      H      -1.5188641137     3.2970923505    -0.6107059530
   48      H      -3.0543735496    -3.9663424167     0.5098576237
   49      H      -3.7956817109    -3.8917205635    -1.1343568052
   50      H       5.6486334853     0.6287602894    -1.8561001821
   51      H       5.8161085944    -0.9832579626    -1.0604743173
   52      H       5.5913376450     0.5151241519    -0.0554396027
   53      H       2.0462380988     2.1182152051     2.6603070233
   54      H       1.3826715300     0.7271825112     1.9161392134
   55      H       0.4753956407     3.5934732886     2.0468070828
   56      H       0.0087500665     2.9419248725     0.6308736914
 ----------------------------------------------------------------
 Molecular Point Group                 C1    NOp =  1
 Largest Abelian Subgroup              C1    NOp =  1
 Nuclear Repulsion Energy =  3577.1549086589 hartrees
 There are      113 alpha and      113 beta electrons
 Requested basis set is STO-3G
 There are 86 shells and 176 basis functions

 Total QAlloc Memory Limit   4000 MB
 Mega-Array Size       392 MB
 MEM_STATIC part       400 MB
 A cutoff of  1.0D-12 yielded   2855 shell pairs
 There are     13550 function pairs
 
 -------------------------------------------------------
 OpenMP Integral Computing Module                       
 Release: version 1.0, May 2013, Q-Chem Inc. Pittsburgh 
 -------------------------------------------------------
 Integral Job Info:
 Integral job number is                      11
 Integral operator is                         1
 short-range coefficients                     0
 long-range coefficients              100000000
 Omega coefficients                           0
 if combine SR and LR in K                    0
 Integral screening is                        0
 Integral computing path is                   2
 max size of driver memory is            800000
 size of driver memory is                 45569
 size of scratch memory is              1046100
 max col of scratch BK array                289
 max len of scratch array in speh3           22
 max len of scratch index in speh4            8
 max int batch size is                      520
 min int batch size is                       52
 fixed nKL is                                52
 max L of basis functions is                  1
 order of int derivative is                   0
 number of shells is                         86
 number of basis is                         176
 number of cartesian basis is               176
 number of contracted shell pairs          2855
 number of primitive shell pairs          14321
 maxK2 (contraction) of shell pair            9
 max number of K2 of shell pair               1
 max number of CS2 of shell pair            454
 max number of PS2 of shell pair           1596
 mem total for path MDJ                   58218
 -------------------------------------------------------
 Smallest overlap matrix eigenvalue = 1.72E-01

 Scale SEOQF with 1.000000e-02/1.000000e-01/1.000000e-01

 Standard Electronic Orientation quadrupole field applied
 Nucleus-field energy     =     0.0000000162 hartrees
 Guess from superposition of atomic densities
 Warning:  Energy on first SCF cycle will be non-variational
 A restricted hybrid HF-DFT SCF calculation will be
 performed using Pulay DIIS extrapolation
 Exchange:     0.2000 Hartree-Fock + 0.0800 Slater + 0.7200 B88
 Correlation:  0.1900 VWN1RPA + 0.8100 LYP
 Using SG-1 standard quadrature grid
 Dispersion:   Grimme D3
 SCF converges when DIIS error is below 1.0E-08
 using 48 threads for integral computing
 -------------------------------------------------------
 OpenMP Integral computing Module                
 Release: version 1.0, May 2013, Q-Chem Inc. Pittsburgh 
 -------------------------------------------------------
 -------------------------------------------------------
 OpenMP BLAS3 based DFT computing Module                
 Release: version 1.0, May 2013, Q-Chem Inc. Pittsburgh 
 -------------------------------------------------------
 ---------------------------------------
  Cycle       Energy         DIIS Error
 ---------------------------------------
    1   -1509.8430326625      8.49E-02
    2   -1508.6508075331      1.19E-02
    3   -1502.2374454566      3.87E-02
    4   -1509.0346373402      7.46E-03
    5   -1509.3173867672      2.19E-03
    6   -1509.3263825152      1.68E-03
    7   -1509.3380274335      4.65E-04
    8   -1509.3389516920      1.69E-04
    9   -1509.3390603738      7.24E-05
   10   -1509.3390775848      3.50E-05
   11   -1509.3390829040      9.37E-06
   12   -1509.3390833159      2.10E-06
   13   -1509.3390833356      6.53E-07
   14   -1509.3390833375      2.07E-07
   15   -1509.3390833375      1.03E-07
   16   -1509.3390833378      3.24E-08
   17   -1509.3390833378      9.11E-09 Convergence criterion met
 ---------------------------------------
 SCF time:  CPU 147.49 s  wall 3.13 s
 SCF   energy in the final basis set = -1509.33908334
 Total energy in the final basis set = -1509.33908334
 
 --------------------------------------------------------------
 
                    Orbital Energies (a.u.)
 --------------------------------------------------------------
 
 Alpha MOs
 -- Occupied --
-18.940 -18.939 -18.923 -18.921 -18.916 -18.899 -18.891 -18.874
-18.847 -18.845 -10.127 -10.124 -10.119 -10.099 -10.092 -10.092
-10.087 -10.081 -10.077 -10.076 -10.075 -10.074 -10.052 -10.035
-10.033 -10.021 -10.020 -10.016 -10.010  -9.997  -1.102  -1.050
 -1.043  -1.039  -1.036  -1.035  -0.967  -0.957  -0.942  -0.934
 -0.823  -0.800  -0.788  -0.752  -0.737  -0.728  -0.701  -0.682
 -0.673  -0.639  -0.634  -0.619  -0.581  -0.572  -0.558  -0.557
 -0.535  -0.519  -0.510  -0.501  -0.495  -0.485  -0.480  -0.472
 -0.463  -0.456  -0.445  -0.440  -0.429  -0.427  -0.422  -0.418
 -0.406  -0.405  -0.397  -0.389  -0.378  -0.367  -0.364  -0.359
 -0.344  -0.343  -0.338  -0.333  -0.332  -0.329  -0.324  -0.321
 -0.318  -0.313  -0.309  -0.300  -0.291  -0.286  -0.269  -0.255
 -0.243  -0.230  -0.227  -0.222  -0.217  -0.200  -0.188  -0.179
 -0.171  -0.169  -0.164  -0.159  -0.157  -0.154  -0.145  -0.124
 -0.107
 -- Virtual --
  0.055   0.079   0.097   0.117   0.127   0.165   0.185   0.223
  0.240   0.255   0.270   0.281   0.284   0.303   0.321   0.331
  0.333   0.345   0.352   0.356   0.364   0.378   0.384   0.387
  0.396   0.401   0.403   0.408   0.411   0.414   0.423   0.426
  0.431   0.432   0.434   0.440   0.445   0.446   0.455   0.462
  0.465   0.468   0.468   0.475   0.484   0.495   0.506   0.511
  0.517   0.527   0.534   0.544   0.551   0.558   0.567   0.576
  0.583   0.608   0.664   0.670   0.678   0.700   0.701
 --------------------------------------------------------------
 
          Ground-State Mulliken Net Atomic Charges

     Atom                 Charge (a.u.)
  ----------------------------------------
      1 O                    -0.233791
      2 C                     0.242678
      3 C                    -0.116910
      4 C                    -0.134775
      5 C                     0.235676
      6 O                    -0.182333
      7 C                    -0.055294
      8 C                    -0.038075
      9 O                    -0.194465
     10 C                     0.257793
     11 C                    -0.139147
     12 C                    -0.112966
     13 C                     0.239924
     14 O                    -0.241496
     15 O                    -0.230704
     16 O                    -0.214805
     17 O                    -0.194902
     18 C                    -0.097313
     19 C                     0.024266
     20 C                    -0.130632
     21 C                    -0.161932
     22 C                     0.080686
     23 O                    -0.210449
     24 H                     0.098688
     25 H                     0.081702
     26 H                     0.098175
     27 H                     0.090032
     28 H                     0.084566
     29 H                     0.080405
     30 H                     0.079938
     31 H                     0.077675
     32 O                    -0.195650
     33 C                    -0.101061
     34 C                     0.049035
     35 C                    -0.141769
     36 C                    -0.145148
     37 C                     0.048546
     38 O                    -0.199922
     39 H                     0.115079
     40 H                     0.104997
     41 H                     0.082076
     42 H                     0.085591
     43 H                     0.082028
     44 H                     0.078335
     45 H                     0.084265
     46 H                     0.074450
     47 H                     0.083478
     48 H                     0.079238
     49 H                     0.088893
     50 H                     0.095468
     51 H                     0.083580
     52 H                     0.087420
     53 H                     0.096567
     54 H                     0.092990
     55 H                     0.086830
     56 H                     0.102470
  ----------------------------------------
  Sum of atomic charges =    -0.000000

 -----------------------------------------------------------------
                    Cartesian Multipole Moments
 -----------------------------------------------------------------
    Charge (ESU x 10^10)
                 0.0000
    Dipole Moment (Debye)
         X      -1.7959      Y      -0.5634      Z      -3.1485
       Tot       3.6682
    Quadrupole Moments (Debye-Ang)
        XX    -157.3077     XY      -3.6436     YY    -150.8275
        XZ       9.0075     YZ       7.6512     ZZ    -173.3539
    Octopole Moments (Debye-Ang^2)
       XXX      19.7332    XXY       7.9933    XYY     -28.6617
       YYY     -16.4360    XXZ     -45.4379    XYZ      21.7450
       YYZ       9.7702    XZZ      20.2287    YZZ      -2.1990
       ZZZ     -11.7557
    Hexadecapole Moments (Debye-Ang^3)
      XXXX   -5576.5870   XXXY      87.2779   XXYY   -1519.5927
      XYYY      34.1740   YYYY   -3197.9394   XXXZ     -94.5756
      XXYZ      44.5734   XYYZ      11.6691   YYYZ      -2.2816
      XXZZ   -1331.4550   XYZZ      11.5817   YYZZ    -879.6633
      XZZZ      51.4101   YZZZ      -2.1379   ZZZZ   -1817.0285
 -----------------------------------------------------------------
 Calculating analytic gradient of the SCF energy
 Gradient of SCF Energy
            1           2           3           4           5           6
    1  -0.0036664   0.0417234   0.1001234   0.0780917  -0.0370295  -0.0278367
    2   0.0076553   0.0435653  -0.0305381  -0.0080555  -0.0239563  -0.0440695
    3  -0.0801233  -0.0016543  -0.0099753   0.0365035  -0.0181670  -0.0400307
            7           8           9          10          11          12
    1  -0.0255917  -0.0197848  -0.0597310   0.0257346   0.0460167  -0.1931611
    2  -0.0551567   0.0167060  -0.0441822   0.0251865   0.0761493   0.0418899
    3  -0.0315764  -0.0211217  -0.0367262  -0.0415018   0.0024469   0.2110506
           13          14          15          16          17          18
    1  -0.0608240  -0.0382618  -0.0422663   0.0812688  -0.0101229  -0.0529569
    2  -0.0281442   0.0207272  -0.0150948  -0.0465538  -0.0184779   0.0065299
    3  -0.0229876  -0.0563776   0.1246934   0.0817605   0.0483780  -0.0232702
           19          20          21          22          23          24
    1   0.1556358   0.1625797  -0.0477354  -0.2043365   0.0116037   0.0206528
    2  -0.0206174  -0.0506019   0.0805434   0.1267820  -0.0101250   0.0019457
    3  -0.0366895   0.0254043   0.0484506   0.0187072  -0.1477490  -0.0038264
           25          26          27          28          29          30
    1   0.0112426   0.0634491   0.0176426   0.0165767  -0.0055552   0.0019497
    2  -0.0001128  -0.0392353  -0.0361945  -0.0072056  -0.0164991   0.0027971
    3  -0.0073456  -0.0179829   0.0102929  -0.0223971   0.0107430  -0.0132763
           31          32          33          34          35          36
    1  -0.0247920   0.0272707   0.0235473  -0.0265101   0.0275993   0.0335219
    2  -0.0389157   0.0353050   0.0233147   0.0717986   0.0203246  -0.0141706
    3  -0.0085813  -0.0338721  -0.0370260   0.0356538   0.0160438  -0.0201146
           37          38          39          40          41          42
    1  -0.0399030  -0.0743555   0.0173006   0.0437973   0.0050625  -0.0051993
    2  -0.0636404  -0.0215028  -0.0252267   0.0192612   0.0067499  -0.0067424
    3  -0.0088912   0.0545194   0.0101782   0.0068289  -0.0056712   0.0040826
           43          44          45          46          47          48
    1   0.0038443  -0.0065247  -0.0062582  -0.0020501  -0.0136946   0.0060648
    2   0.0068287  -0.0039299   0.0001951   0.0011775   0.0022873   0.0067596
    3  -0.0073096  -0.0005306  -0.0144366   0.0058596  -0.0008483  -0.0043302
           49          50          51          52          53          54
    1  -0.0024941   0.0036420  -0.0084469  -0.0087572  -0.0073780   0.0104587
    2  -0.0022286   0.0001383  -0.0004996   0.0012689  -0.0061227   0.0125249
    3   0.0015383   0.0005045  -0.0029691  -0.0015003   0.0077442   0.0053687
           55          56
    1   0.0039584   0.0148648
    2   0.0012479   0.0181403
    3  -0.0151330   0.0272399
 Max gradient component =       2.111E-01
 RMS gradient           =       4.804E-02
 Gradient time:  CPU 34.34 s  wall 0.73 s
 Geometry Optimization Parameters
   NAtoms,    NIC,     NZ,  NCons,   NDum,   NFix, NCnnct, MaxDiis
       56     583       0       0       0       0       0       0


** GEOMETRY OPTIMIZATION IN DELOCALIZED INTERNAL COORDINATES **
   Searching for a Minimum

   Optimization Cycle:   1

                       Coordinates (Angstroms)
     ATOM                X               Y               Z
      1  O        -2.8112433798   -1.3210622232    1.3937480202
      2  C        -2.2396857643   -1.3042748332    0.3129861076
      3  C        -1.8167786273   -0.0588319530   -0.4344189887
      4  C        -1.4958112859    1.1890450633    0.4044199662
      5  C        -1.4613736786    1.0023408176    1.9050964915
      6  O        -0.7746346272    2.0307094357    2.4849889426
      7  C         0.2231124249    2.5956236142    1.6278862239
      8  C         1.5197302214    1.7997106390    1.7347993725
      9  O         2.3524253354    2.0653304694    0.5950784999
     10  C         1.8706725919    1.6260975881   -0.5940914583
     11  C         0.9765816041    0.4168607279   -0.4562119866
     12  C         1.7114750283   -0.9311281706   -0.4228521903
     13  C         3.2047585966   -0.8636299127   -0.1733479866
     14  O         3.7979830156   -1.4283781082    0.7342388160
     15  O        -2.7480374196   -2.2429088108   -0.5623240177
     16  O         3.9444048132   -0.1533843960   -1.0700024719
     17  O         2.1697071851    2.1482603652   -1.6567882935
     18  C         5.3126140364    0.0053299534   -1.0024003346
     19  C         0.3580759996   -1.0358754377    0.5172041202
     20  C        -0.2089903129   -2.4527750062   -0.3296317882
     21  C         0.8796012905   -3.2997367757   -0.4513757663
     22  C         1.6608748381   -2.3321281667    0.2896577451
     23  O         1.1643863202   -1.7629336535    1.3818947358
     24  H         0.5049244988    0.3579398498   -1.4342859334
     25  H         1.8237804289   -1.2028964270   -1.5154127757
     26  H        -0.2721877095   -0.7550860150    1.3136861853
     27  H        -0.8118438488   -3.0915230803    0.3715675932
     28  H        -0.6260853854   -2.2770663929   -1.3500178753
     29  H         0.7891854728   -4.2933352241    0.0652005752
     30  H         1.2985544875   -3.4171733750   -1.4776281965
     31  H         2.5026861975   -3.0477929914    0.5036884559
     32  O        -2.3172828314    0.5097162100    2.6275730327
     33  C        -3.5647043903   -3.3051482002   -0.2218480193
     34  C        -1.9337206654    0.4748234572   -1.9133760211
     35  C        -3.3002901322    1.0809395149   -2.2779815390
     36  C        -3.2781121829    2.2984907083   -1.3504333844
     37  C        -1.8086853356    2.2426263224   -0.7941240192
     38  O        -1.1677541422    1.6605452660   -1.8908952654
     39  H        -2.9176378969    0.0271510391   -0.3284864034
     40  H        -2.4361288512    1.6671254666    0.7567258965
     41  H        -4.5170450923   -2.9324536165    0.2115354301
     42  H        -1.5832777691   -0.2762338186   -2.6524547105
     43  H        -3.2332445176    1.4204560496   -3.3366968603
     44  H        -4.1789213827    0.4099786668   -2.1616851124
     45  H        -3.4317263410    3.1999329150   -1.9846747421
     46  H        -4.0469476710    2.2932090883   -0.5478045541
     47  H        -1.5188641137    3.2970923505   -0.6107059530
     48  H        -3.0543735496   -3.9663424167    0.5098576237
     49  H        -3.7956817109   -3.8917205635   -1.1343568052
     50  H         5.6486334853    0.6287602894   -1.8561001821
     51  H         5.8161085944   -0.9832579626   -1.0604743173
     52  H         5.5913376450    0.5151241519   -0.0554396027
     53  H         2.0462380988    2.1182152051    2.6603070233
     54  H         1.3826715300    0.7271825112    1.9161392134
     55  H         0.4753956407    3.5934732886    2.0468070828
     56  H         0.0087500665    2.9419248725    0.6308736914
   Point Group: c1    Number of degrees of freedom:   162


   Energy is  -1509.339083338


 Attempting to Generate Delocalized Internal Coordinates

162 Hessian modes will be used to form the next step
  Hessian Eigenvalues:
     0.004317    0.005850    0.007012    0.007129    0.007130    0.007484
     0.007507    0.007831    0.008445    0.009518    0.009542    0.010177
     0.010846    0.011150    0.011476    0.012614    0.013668    0.014469
     0.014665    0.017964    0.018232    0.018418    0.020048    0.020169
     0.020649    0.021446    0.023290    0.023512    0.023786    0.025098
     0.026072    0.027540    0.029252    0.029808    0.031402    0.032785
     0.033641    0.034984    0.038966    0.039924    0.040215    0.040699
     0.041259    0.043844    0.046985    0.047644    0.048573    0.051859
     0.054516    0.055463    0.057590    0.059886    0.061382    0.061599
     0.063387    0.063859    0.064735    0.065720    0.065865    0.067999
     0.072317    0.076129    0.078611    0.079704    0.088098    0.088913
     0.091581    0.094283    0.096994    0.103767    0.104196    0.105380
     0.105517    0.105747    0.113456    0.114143    0.136651    0.139054
     0.142598    0.142757    0.155030    0.157322    0.160000    0.160000
     0.160000    0.160000    0.160000    0.160000    0.169451    0.184979
     0.196635    0.216824    0.217672    0.218998    0.222985    0.224742
     0.228775    0.229886    0.244801    0.249868    0.249926    0.249962
     0.250000    0.250000    0.250000    0.250000    0.250000    0.250000
     0.250000    0.250000    0.262675    0.264194    0.268301    0.278620
     0.298746    0.304314    0.308053    0.310177    0.310698    0.310868
     0.311733    0.312110    0.313317    0.319464    0.321097    0.321966
     0.322991    0.323735    0.324288    0.324457    0.324518    0.324695
     0.324948    0.325008    0.325250    0.325507    0.325567    0.326470
     0.326762    0.326823    0.326961    0.327226    0.332387    0.340889
     0.351083    0.360383    0.363603    0.369070    0.385970    0.393573
     0.401002    0.407716    0.486536    0.490214    0.492778    0.517909
     0.525108    0.537339    0.937997    0.941950    0.942728    0.948408

 Minimum Search - Taking Simple RFO Step
 Searching for Lamda that Minimizes Along All modes
 Value Taken    Lamda =  -0.95899084
 Calculated Step too Large.  Step scaled by  0.316760
 Step Taken.  Stepsize is  0.300000

                             Maximum     Tolerance    Cnvgd?
         Gradient           0.767524      0.000300      NO
         Displacement       0.239585      0.001200      NO
         Energy change     *********      0.000001      NO


 New Cartesian Coordinates Obtained by Inverse Iteration

 Displacement from previous Coordinates is: 10.113573
 Adding empirical dispersion correction 
 ----------------------------------------------------------------
 Doing -D3(op) with
 s6 =   1.00000
 s8 =   0.78311
 a1 =   0.30000
 a2 =   4.25000
 n  =  10.00000
 -D3 energy without 3body term =     -0.0726950307 hartrees
 ----------------------------------------------------------------
             Standard Nuclear Orientation (Angstroms)
    I     Atom           X                Y                Z
 ----------------------------------------------------------------
    1      O      -3.5401012090    -1.0702648987     1.4342954564
    2      C      -3.0475951991    -1.1403964218     0.3106927449
    3      C      -2.4626885722     0.0212600433    -0.4792078361
    4      C      -1.8650203468     1.2118615487     0.3084302255
    5      C      -1.7431335807     1.0541384160     1.8219508135
    6      O      -0.8754191910     1.9932713183     2.3394346987
    7      C       0.2157403256     2.4480589556     1.5169014260
    8      C       1.5004566514     1.6130696219     1.6849357004
    9      O       2.3920932972     1.8718435321     0.5789629336
   10      C       2.0461308857     1.3668387971    -0.6380359245
   11      C       1.3443262161     0.0312990236    -0.5338084020
   12      C       2.3028408675    -1.1668926949    -0.4268677626
   13      C       3.7559736789    -0.8350053861    -0.0938361279
   14      O       4.3927186352    -1.2653319460     0.8648446170
   15      O      -3.7646174329    -1.9705698227    -0.5387197936
   16      O       4.4027473597    -0.0216220295    -0.9829215974
   17      O       2.3505596209     1.9106065119    -1.6936495263
   18      C       5.7238875906     0.3755793095    -0.8421621884
   19      C       0.9127095768    -1.4826801276     0.4441906125
   20      C       0.6398683625    -2.9888048285    -0.3953899464
   21      C       1.8702487975    -3.6506215401    -0.4303782111
   22      C       2.4374309555    -2.5489106222     0.3298498750
   23      O       1.7786943892    -2.0481870832     1.3829140784
   24      H       0.9499016453    -0.1234247228    -1.5361118759
   25      H       2.5275384641    -1.4361831333    -1.5014284968
   26      H       0.1892880737    -1.2947792935     1.1978903329
   27      H       0.1061245217    -3.7019057743     0.2861664087
   28      H       0.2624509497    -2.9024982549    -1.4405211303
   29      H       1.9130580453    -4.6334928052     0.1067227878
   30      H       2.3651753410    -3.7155735907    -1.4251903433
   31      H       3.3726238880    -3.1056036930     0.6140679772
   32      O      -2.6241453821     0.7243938909     2.6118043620
   33      C      -4.7305702647    -2.8804627165    -0.1282484475
   34      C      -2.5970167630     0.5464467137    -1.9621594041
   35      C      -3.8713467601     1.3695876065    -2.2339595574
   36      C      -3.5723717073     2.5800556943    -1.3398611862
   37      C      -2.0896291404     2.2877581475    -0.8969138220
   38      O      -1.6384948728     1.5894522448    -2.0294078154
   39      H      -3.5238714824     0.2993273098    -0.2994004101
   40      H      -2.6911265847     1.8433824271     0.7125936108
   41      H      -5.5728461191    -2.3525019155     0.3684823755
   42      H      -2.4354013022    -0.2616758606    -2.7063984997
   43      H      -3.8352261998     1.6799384154    -3.3018206515
   44      H      -4.8357430849     0.8567179230    -2.0328759830
   45      H      -3.6243297333     3.4862063288    -1.9817018554
   46      H      -4.2637213986     2.7130916829    -0.4807633011
   47      H      -1.6131868433     3.2802351873    -0.7628297357
   48      H      -4.2940271743    -3.6240942901     0.5721988425
   49      H      -5.1223999863    -3.4145225017    -1.0177580502
   50      H       5.9965121152     1.0297034098    -1.6953571435
   51      H       6.3954550885    -0.5099235550    -0.8410355382
   52      H       5.8558062823     0.9463973539     0.1022552772
   53      H       1.9756914489     1.9632660147     2.6264188744
   54      H       1.3678116995     0.5416312595     1.8849468867
   55      H       0.5237146628     3.4265137432     1.9454932701
   56      H       0.0500497272     2.8009354432     0.5099096651
 ----------------------------------------------------------------
 Molecular Point Group                 C1    NOp =  1
 Largest Abelian Subgroup              C1    NOp =  1
 Nuclear Repulsion Energy =  3361.5183134560 hartrees
 There are      113 alpha and      113 beta electrons
 Applying Cartesian multipole field
    Component          Value
    ---------          -----
     (2,0,0)        1.00000E-12
     (0,2,0)        2.00000E-11
     (0,0,2)       -3.00000E-11
 Nucleus-field energy     =     0.0000000203 hartrees
 Requested basis set is STO-3G
 There are 86 shells and 176 basis functions
 A cutoff of  1.0D-12 yielded   2574 shell pairs
 There are     12318 function pairs
 Smallest overlap matrix eigenvalue = 1.76E-01
 Guess MOs from SCF MO coefficient file
 Reading MOs from coefficient file
 Reading MOs from coefficient file
 A restricted hybrid HF-DFT SCF calculation will be
 performed using Pulay DIIS extrapolation
 Exchange:     0.2000 Hartree-Fock + 0.0800 Slater + 0.7200 B88
 Correlation:  0.1900 VWN1RPA + 0.8100 LYP
 Using SG-1 standard quadrature grid
 Dispersion:   Grimme D3
 SCF converges when DIIS error is below 1.0E-08
 Geometry optimization detected.  Setting ReadMinima to 0
 Setting SaveMinima to 0
 using 48 threads for integral computing
 -------------------------------------------------------
 OpenMP Integral computing Module                
 Release: version 1.0, May 2013, Q-Chem Inc. Pittsburgh 
 -------------------------------------------------------
 -------------------------------------------------------
 OpenMP BLAS3 based DFT computing Module                
 Release: version 1.0, May 2013, Q-Chem Inc. Pittsburgh 
 -------------------------------------------------------
 ---------------------------------------
  Cycle       Energy         DIIS Error
 ---------------------------------------
    1   -1509.1212867711      1.02E-02
    2   -1509.4187597659      1.25E-03
    3   -1509.4101118003      1.98E-03
    4   -1509.4263926222      5.96E-04
    5   -1509.4278877612      1.53E-04
    6   -1509.4279510765      1.01E-04
    7   -1509.4279938603      2.86E-05
    8   -1509.4279974485      9.80E-06
    9   -1509.4279978826      3.38E-06
   10   -1509.4279979310      1.66E-06
   11   -1509.4279979432      7.17E-07
   12   -1509.4279979460      1.40E-07
   13   -1509.4279979461      7.47E-08
   14   -1509.4279979461      2.85E-08
   15   -1509.4279979462      8.12E-09 Convergence criterion met
 ---------------------------------------
 SCF time:  CPU 110.38 s  wall 2.31 s
 SCF   energy in the final basis set = -1509.42799795
 Total energy in the final basis set = -1509.42799795
 
 --------------------------------------------------------------
 
                    Orbital Energies (a.u.)
 --------------------------------------------------------------
 
 Alpha MOs
 -- Occupied --
-18.938 -18.936 -18.922 -18.921 -18.912 -18.907 -18.893 -18.881
-18.851 -18.844 -10.128 -10.127 -10.117 -10.096 -10.094 -10.091
-10.084 -10.082 -10.076 -10.075 -10.074 -10.073 -10.050 -10.035
-10.032 -10.025 -10.025 -10.018 -10.012 -10.000  -1.091  -1.043
 -1.038  -1.033  -1.030  -1.030  -0.964  -0.954  -0.938  -0.933
 -0.818  -0.796  -0.784  -0.749  -0.734  -0.728  -0.696  -0.678
 -0.670  -0.637  -0.630  -0.617  -0.572  -0.571  -0.556  -0.553
 -0.530  -0.515  -0.502  -0.494  -0.487  -0.481  -0.475  -0.468
 -0.459  -0.454  -0.451  -0.439  -0.428  -0.424  -0.423  -0.414
 -0.405  -0.404  -0.394  -0.386  -0.370  -0.367  -0.361  -0.355
 -0.353  -0.340  -0.338  -0.334  -0.331  -0.329  -0.323  -0.321
 -0.317  -0.316  -0.310  -0.305  -0.290  -0.288  -0.267  -0.250
 -0.241  -0.232  -0.227  -0.225  -0.219  -0.202  -0.188  -0.176
 -0.172  -0.169  -0.165  -0.161  -0.159  -0.154  -0.152  -0.125
 -0.115
 -- Virtual --
  0.061   0.074   0.095   0.110   0.126   0.161   0.185   0.222
  0.236   0.246   0.266   0.277   0.280   0.297   0.320   0.329
  0.334   0.338   0.349   0.357   0.361   0.374   0.380   0.380
  0.390   0.396   0.397   0.405   0.409   0.411   0.419   0.424
  0.429   0.432   0.432   0.434   0.444   0.446   0.450   0.455
  0.459   0.462   0.468   0.472   0.479   0.491   0.500   0.507
  0.509   0.512   0.524   0.532   0.542   0.549   0.558   0.563
  0.575   0.590   0.644   0.660   0.663   0.687   0.692
 --------------------------------------------------------------
 
          Ground-State Mulliken Net Atomic Charges

     Atom                 Charge (a.u.)
  ----------------------------------------
      1 O                    -0.227051
      2 C                     0.227030
      3 C                    -0.117946
      4 C                    -0.138704
      5 C                     0.240325
      6 O                    -0.181692
      7 C                    -0.056101
      8 C                    -0.037337
      9 O                    -0.195786
     10 C                     0.256877
     11 C                    -0.138924
     12 C                    -0.108423
     13 C                     0.235032
     14 O                    -0.239526
     15 O                    -0.222366
     16 O                    -0.211964
     17 O                    -0.192492
     18 C                    -0.099366
     19 C                     0.024270
     20 C                    -0.130939
     21 C                    -0.161164
     22 C                     0.076533
     23 O                    -0.206460
     24 H                     0.089795
     25 H                     0.081269
     26 H                     0.091696
     27 H                     0.087628
     28 H                     0.077638
     29 H                     0.081396
     30 H                     0.081132
     31 H                     0.077202
     32 O                    -0.190578
     33 C                    -0.102149
     34 C                     0.048328
     35 C                    -0.142509
     36 C                    -0.145701
     37 C                     0.047780
     38 O                    -0.198428
     39 H                     0.120634
     40 H                     0.108105
     41 H                     0.082088
     42 H                     0.090216
     43 H                     0.082259
     44 H                     0.078125
     45 H                     0.084590
     46 H                     0.073825
     47 H                     0.083925
     48 H                     0.084415
     49 H                     0.089997
     50 H                     0.095152
     51 H                     0.083541
     52 H                     0.087446
     53 H                     0.095949
     54 H                     0.093703
     55 H                     0.088832
     56 H                     0.098875
  ----------------------------------------
  Sum of atomic charges =     0.000000

 -----------------------------------------------------------------
                    Cartesian Multipole Moments
 -----------------------------------------------------------------
    Charge (ESU x 10^10)
                 0.0000
    Dipole Moment (Debye)
         X      -1.7516      Y      -0.4881      Z      -2.8927
       Tot       3.4168
    Quadrupole Moments (Debye-Ang)
        XX    -153.9546     XY      -4.4620     YY    -147.8486
        XZ       8.5935     YZ       6.0253     ZZ    -173.9167
    Octopole Moments (Debye-Ang^2)
       XXX      -0.9556    XXY      10.6498    XYY     -19.0185
       YYY      -7.2751    XXZ     -59.1931    XYZ      25.5910
       YYZ       9.3998    XZZ      21.1850    YZZ       0.2750
       ZZZ      -4.0243
    Hexadecapole Moments (Debye-Ang^3)
      XXXX   -7838.5353   XXXY     424.1762   XXYY   -1873.2299
      XYYY     254.2580   YYYY   -3287.7014   XXXZ    -142.5635
      XXYZ      58.0876   XYYZ     -14.2863   YYYZ      28.9942
      XXZZ   -1771.7896   XYZZ     103.2594   YYZZ    -885.0700
      XZZZ       0.7799   YZZZ      50.9041   ZZZZ   -1776.5749
 -----------------------------------------------------------------
 Calculating analytic gradient of the SCF energy
 Gradient of SCF Energy
            1           2           3           4           5           6
    1  -0.0137432   0.0286160   0.0739980   0.0696766  -0.0495572  -0.0346743
    2   0.0054382   0.0513033  -0.0387647  -0.0168930  -0.0261388  -0.0282729
    3  -0.0714447  -0.0055925  -0.0207487   0.0248416  -0.0096837  -0.0351568
            7           8           9          10          11          12
    1  -0.0179048  -0.0122380  -0.0479345   0.0260990   0.0371950  -0.2122384
    2  -0.0398920   0.0168547  -0.0495700   0.0238759   0.0849112   0.0148880
    3  -0.0256054  -0.0166375  -0.0382308  -0.0403791  -0.0010073   0.1874493
           13          14          15          16          17          18
    1  -0.0511178  -0.0294376  -0.0517127   0.0764883  -0.0083860  -0.0474548
    2  -0.0343485   0.0099709  -0.0034976  -0.0272302  -0.0163507  -0.0024599
    3  -0.0286196  -0.0474478   0.1165618   0.0809333   0.0389188  -0.0252027
           19          20          21          22          23          24
    1   0.1757506   0.1744159  -0.0510099  -0.2110329   0.0213904   0.0236732
    2   0.0008038  -0.0277727   0.0598087   0.0811231  -0.0117373   0.0068330
    3  -0.0292857   0.0322666   0.0395465   0.0001939  -0.1262269  -0.0002651
           25          26          27          28          29          30
    1   0.0110952   0.0739748   0.0317371   0.0227360  -0.0027148   0.0022980
    2   0.0017359  -0.0264648  -0.0330978  -0.0062892  -0.0153735   0.0026794
    3  -0.0064530  -0.0066126   0.0115056  -0.0177283   0.0098444  -0.0118073
           31          32          33          34          35          36
    1  -0.0174807   0.0235599   0.0231500  -0.0167264   0.0289133   0.0270719
    2  -0.0427738   0.0331101   0.0205487   0.0720524   0.0133279  -0.0171336
    3  -0.0087974  -0.0275696  -0.0379704   0.0349057   0.0116430  -0.0217151
           37          38          39          40          41          42
    1  -0.0538111  -0.0679906   0.0096075   0.0419407   0.0046784  -0.0058455
    2  -0.0541442  -0.0060422  -0.0256185   0.0143439   0.0048402  -0.0055584
    3  -0.0019679   0.0504156   0.0074921   0.0039911  -0.0051488   0.0041296
           43          44          45          46          47          48
    1   0.0043803  -0.0063953  -0.0071368  -0.0009892  -0.0132239   0.0068430
    2   0.0054922  -0.0022804   0.0004733   0.0017414   0.0045602   0.0042340
    3  -0.0069225   0.0000475  -0.0132336   0.0056739  -0.0000234  -0.0038912
           49          50          51          52          53          54
    1  -0.0027190   0.0036896  -0.0069424  -0.0078750  -0.0095068   0.0125108
    2  -0.0020723   0.0008861  -0.0020369   0.0000035  -0.0038969   0.0113545
    3   0.0017070   0.0006387  -0.0032139  -0.0015823   0.0074968   0.0075151
           55          56
    1   0.0076277   0.0146823
    2  -0.0007957   0.0193121
    3  -0.0118157   0.0302696
 Max gradient component =       2.122E-01
 RMS gradient           =       4.611E-02
 Gradient time:  CPU 33.48 s  wall 0.70 s
 Geometry Optimization Parameters
   NAtoms,    NIC,     NZ,  NCons,   NDum,   NFix, NCnnct, MaxDiis
       56     583       0       0       0       0       0       0

 Cartesian Hessian Update
 Hessian Updated using BFGS Update


** GEOMETRY OPTIMIZATION IN DELOCALIZED INTERNAL COORDINATES **
   Searching for a Minimum

   Optimization Cycle:   2

                       Coordinates (Angstroms)
     ATOM                X               Y               Z
      1  O        -3.5401012090   -1.0702648987    1.4342954564
      2  C        -3.0475951991   -1.1403964218    0.3106927449
      3  C        -2.4626885722    0.0212600433   -0.4792078361
      4  C        -1.8650203468    1.2118615487    0.3084302255
      5  C        -1.7431335807    1.0541384160    1.8219508135
      6  O        -0.8754191910    1.9932713183    2.3394346987
      7  C         0.2157403256    2.4480589556    1.5169014260
      8  C         1.5004566514    1.6130696219    1.6849357004
      9  O         2.3920932972    1.8718435321    0.5789629336
     10  C         2.0461308857    1.3668387971   -0.6380359245
     11  C         1.3443262161    0.0312990236   -0.5338084020
     12  C         2.3028408675   -1.1668926949   -0.4268677626
     13  C         3.7559736789   -0.8350053861   -0.0938361279
     14  O         4.3927186352   -1.2653319460    0.8648446170
     15  O        -3.7646174329   -1.9705698227   -0.5387197936
     16  O         4.4027473597   -0.0216220295   -0.9829215974
     17  O         2.3505596209    1.9106065119   -1.6936495263
     18  C         5.7238875906    0.3755793095   -0.8421621884
     19  C         0.9127095768   -1.4826801276    0.4441906125
     20  C         0.6398683625   -2.9888048285   -0.3953899464
     21  C         1.8702487975   -3.6506215401   -0.4303782111
     22  C         2.4374309555   -2.5489106222    0.3298498750
     23  O         1.7786943892   -2.0481870832    1.3829140784
     24  H         0.9499016453   -0.1234247228   -1.5361118759
     25  H         2.5275384641   -1.4361831333   -1.5014284968
     26  H         0.1892880737   -1.2947792935    1.1978903329
     27  H         0.1061245217   -3.7019057743    0.2861664087
     28  H         0.2624509497   -2.9024982549   -1.4405211303
     29  H         1.9130580453   -4.6334928052    0.1067227878
     30  H         2.3651753410   -3.7155735907   -1.4251903433
     31  H         3.3726238880   -3.1056036930    0.6140679772
     32  O        -2.6241453821    0.7243938909    2.6118043620
     33  C        -4.7305702647   -2.8804627165   -0.1282484475
     34  C        -2.5970167630    0.5464467137   -1.9621594041
     35  C        -3.8713467601    1.3695876065   -2.2339595574
     36  C        -3.5723717073    2.5800556943   -1.3398611862
     37  C        -2.0896291404    2.2877581475   -0.8969138220
     38  O        -1.6384948728    1.5894522448   -2.0294078154
     39  H        -3.5238714824    0.2993273098   -0.2994004101
     40  H        -2.6911265847    1.8433824271    0.7125936108
     41  H        -5.5728461191   -2.3525019155    0.3684823755
     42  H        -2.4354013022   -0.2616758606   -2.7063984997
     43  H        -3.8352261998    1.6799384154   -3.3018206515
     44  H        -4.8357430849    0.8567179230   -2.0328759830
     45  H        -3.6243297333    3.4862063288   -1.9817018554
     46  H        -4.2637213986    2.7130916829   -0.4807633011
     47  H        -1.6131868433    3.2802351873   -0.7628297357
     48  H        -4.2940271743   -3.6240942901    0.5721988425
     49  H        -5.1223999863   -3.4145225017   -1.0177580502
     50  H         5.9965121152    1.0297034098   -1.6953571435
     51  H         6.3954550885   -0.5099235550   -0.8410355382
     52  H         5.8558062823    0.9463973539    0.1022552772
     53  H         1.9756914489    1.9632660147    2.6264188744
     54  H         1.3678116995    0.5416312595    1.8849468867
     55  H         0.5237146628    3.4265137432    1.9454932701
     56  H         0.0500497272    2.8009354432    0.5099096651
   Point Group: c1    Number of degrees of freedom:   162


   Energy is  -1509.427997946

 Hessian Updated using BFGS Update

152 Hessian modes will be used to form the next step
  Hessian Eigenvalues:
     0.004317    0.005852    0.007012    0.007130    0.007131    0.007485
     0.007583    0.007831    0.008445    0.009455    0.009542    0.010176
     0.011033    0.011262    0.012609    0.013663    0.013932    0.014469
     0.014663    0.017964    0.018232    0.018418    0.020060    0.020326
     0.020649    0.023288    0.023472    0.023741    0.024947    0.026052
     0.027539    0.028319    0.029255    0.030427    0.031561    0.032832
     0.033747    0.034992    0.038993    0.039907    0.040651    0.041207
     0.042956    0.043846    0.047642    0.048567    0.051851    0.052701
     0.055345    0.056262    0.057618    0.061381    0.061578    0.061949
     0.063402    0.063986    0.064702    0.065724    0.067103    0.068014
     0.072539    0.076423    0.078670    0.079875    0.088143    0.089041
     0.091500    0.094277    0.096999    0.103768    0.104197    0.105516
     0.105590    0.105747    0.113611    0.114303    0.135621    0.140302
     0.142240    0.145374    0.156241    0.159433    0.159999    0.160894
     0.169493    0.184994    0.195748    0.217498    0.218103    0.222948
     0.223291    0.227952    0.229043    0.230128    0.244722    0.244820
     0.249870    0.249927    0.249964    0.262310    0.263848    0.268021
     0.278538    0.290911    0.301651    0.304348    0.309133    0.310179
     0.310726    0.311718    0.312079    0.313133    0.319418    0.321026
     0.321923    0.322920    0.323397    0.324263    0.324442    0.324517
     0.324688    0.324941    0.325000    0.325223    0.325437    0.325508
     0.325590    0.326738    0.326823    0.326961    0.327226    0.332379
     0.340718    0.348049    0.351192    0.360624    0.363698    0.383212
     0.392579    0.399590    0.406310    0.479514    0.488295    0.491631
     0.509879    0.524284    0.535492    0.914523    0.939032    0.942337
     0.947409    3.449607

 Minimum Search - Taking Simple RFO Step
 Searching for Lamda that Minimizes Along All modes
 Value Taken    Lamda =  -0.37349362
 Calculated Step too Large.  Step scaled by  0.343118
 Step Taken.  Stepsize is  0.300000

                             Maximum     Tolerance    Cnvgd?
         Gradient           0.130709      0.000300      NO
         Displacement       0.079666      0.001200      NO
         Energy change     -0.088915      0.000001      NO


 New Cartesian Coordinates Obtained by Inverse Iteration

 Displacement from previous Coordinates is:  1.320210
 Adding empirical dispersion correction 
 ----------------------------------------------------------------
 Doing -D3(op) with
 s6 =   1.00000
 s8 =   0.78311
 a1 =   0.30000
 a2 =   4.25000
 n  =  10.00000
 -D3 energy without 3body term =     -0.0721845640 hartrees
 ----------------------------------------------------------------
             Standard Nuclear Orientation (Angstroms)
    I     Atom           X                Y                Z
 ----------------------------------------------------------------
    1      O      -3.6251171782    -1.1204126871     1.4948782292
    2      C      -3.1131700959    -1.1809135648     0.3652715535
    3      C      -2.4999286349    -0.0118351988    -0.4327810751
    4      C      -1.8845540217     1.2162478027     0.3223513951
    5      C      -1.7541560645     1.1294916064     1.8678047206
    6      O      -0.8465116326     2.0717703948     2.3709288215
    7      C       0.2794178035     2.5004675788     1.5673547265
    8      C       1.5647577083     1.6416156733     1.7435895985
    9      O       2.4747408399     1.8871270339     0.6393262306
   10      C       2.1303490503     1.3937286573    -0.6018247846
   11      C       1.3773348862     0.0712882787    -0.5523958737
   12      C       2.3345905902    -1.1393706035    -0.4599464788
   13      C       3.8109651893    -0.8299401287    -0.0886606866
   14      O       4.4456320274    -1.2691688274     0.8832357384
   15      O      -3.7946884616    -2.0172474635    -0.5294798432
   16      O       4.4586292134    -0.0084761680    -0.9883816174
   17      O       2.4755817857     1.9459428612    -1.6514443592
   18      C       5.7986252909     0.3706406415    -0.8104199304
   19      C       0.8701921373    -1.4349391310     0.3859768972
   20      C       0.5653661251    -2.9100108708    -0.4895352759
   21      C       1.8009115767    -3.6256704445    -0.5046593103
   22      C       2.3956462810    -2.5481584349     0.2971908319
   23      O       1.7042818832    -2.0395217002     1.3578937184
   24      H       1.0002010613    -0.0596893574    -1.5676135583
   25      H       2.5809146601    -1.3996107776    -1.5292004888
   26      H       0.1133094567    -1.2336145118     1.1293755200
   27      H      -0.0176562875    -3.6051576895     0.1620952672
   28      H       0.2147723079    -2.7900706669    -1.5374506318
   29      H       1.7959443870    -4.6129651950     0.0130297857
   30      H       2.3185660797    -3.6905631237    -1.4835373578
   31      H       3.3090283684    -3.1277313750     0.6001898155
   32      O      -2.6442024751     0.8380405383     2.6773469220
   33      C      -4.7691995371    -2.9369128805    -0.1090721491
   34      C      -2.6130597227     0.4594924868    -1.9429705580
   35      C      -3.8914671291     1.2826619216    -2.2323470364
   36      C      -3.5780071753     2.5312350955    -1.3765753658
   37      C      -2.0856913080     2.2502895955    -0.9338656682
   38      O      -1.6338412482     1.4998029479    -2.0512182581
   39      H      -3.5642755551     0.2881205775    -0.2783465952
   40      H      -2.7163286427     1.8720820365     0.6951714578
   41      H      -5.6250567657    -2.4131282546     0.3712677385
   42      H      -2.4509604772    -0.3737604789    -2.6586593862
   43      H      -3.8625890915     1.5566595483    -3.3074727516
   44      H      -4.8542026879     0.7810384488    -2.0084109967
   45      H      -3.6279655844     3.4138575492    -2.0459692018
   46      H      -4.2611342585     2.6978761246    -0.5189883815
   47      H      -1.5924267139     3.2393993561    -0.8364710786
   48      H      -4.3425802078    -3.6714348537     0.6083705041
   49      H      -5.1435331637    -3.4841561813    -0.9978845882
   50      H       6.0948792485     1.0276530633    -1.6530629729
   51      H       6.4628660304    -0.5214265494    -0.8021977717
   52      H       5.9253059393     0.9321915348     0.1411658173
   53      H       2.0424594714     1.9846321133     2.6860528821
   54      H       1.4100321059     0.5685456961     1.9391997905
   55      H       0.5942025674     3.4754063275     2.0017066874
   56      H       0.1263988810     2.8455199940     0.5477026716
 ----------------------------------------------------------------
 Molecular Point Group                 C1    NOp =  1
 Largest Abelian Subgroup              C1    NOp =  1
 Nuclear Repulsion Energy =  3330.1080740809 hartrees
 There are      113 alpha and      113 beta electrons
 Applying Cartesian multipole field
    Component          Value
    ---------          -----
     (2,0,0)        1.00000E-12
     (0,2,0)        2.00000E-11
     (0,0,2)       -3.00000E-11
 Nucleus-field energy     =     0.0000000195 hartrees
 Requested basis set is STO-3G
 There are 86 shells and 176 basis functions
 A cutoff of  1.0D-12 yielded   2560 shell pairs
 There are     12241 function pairs
 Smallest overlap matrix eigenvalue = 1.85E-01
 Guess MOs from SCF MO coefficient file
 Reading MOs from coefficient file
 Reading MOs from coefficient file
 A restricted hybrid HF-DFT SCF calculation will be
 performed using Pulay DIIS extrapolation
 Exchange:     0.2000 Hartree-Fock + 0.0800 Slater + 0.7200 B88
 Correlation:  0.1900 VWN1RPA + 0.8100 LYP
 Using SG-1 standard quadrature grid
 Dispersion:   Grimme D3
 SCF converges when DIIS error is below 1.0E-08
 Geometry optimization detected.  Setting ReadMinima to 0
 Setting SaveMinima to 0
 using 48 threads for integral computing
 -------------------------------------------------------
 OpenMP Integral computing Module                
 Release: version 1.0, May 2013, Q-Chem Inc. Pittsburgh 
 -------------------------------------------------------
 -------------------------------------------------------
 OpenMP BLAS3 based DFT computing Module                
 Release: version 1.0, May 2013, Q-Chem Inc. Pittsburgh 
 -------------------------------------------------------
 ---------------------------------------
  Cycle       Energy         DIIS Error
 ---------------------------------------
    1   -1509.4140044916      3.03E-03
    2   -1509.5402595597      5.43E-04
    3   -1509.5377621803      9.56E-04
    4   -1509.5414801339      2.33E-04
    5   -1509.5417238429      4.83E-05
    6   -1509.5417310645      2.99E-05
    7   -1509.5417346388      9.65E-06
    8   -1509.5417350613      2.30E-06
    9   -1509.5417350856      8.89E-07
   10   -1509.5417350885      4.71E-07
   11   -1509.5417350895      1.44E-07
   12   -1509.5417350896      3.13E-08
   13   -1509.5417350896      1.45E-08
   14   -1509.5417350895      6.57E-09 Convergence criterion met
 ---------------------------------------
 SCF time:  CPU 104.57 s  wall 2.18 s
 SCF   energy in the final basis set = -1509.54173509
 Total energy in the final basis set = -1509.54173509
 
 --------------------------------------------------------------
 
                    Orbital Energies (a.u.)
 --------------------------------------------------------------
 
 Alpha MOs
 -- Occupied --
-18.936 -18.936 -18.922 -18.917 -18.912 -18.910 -18.893 -18.885
-18.856 -18.846 -10.126 -10.126 -10.114 -10.091 -10.089 -10.089
-10.082 -10.082 -10.077 -10.073 -10.071 -10.070 -10.045 -10.035
-10.032 -10.026 -10.026 -10.018 -10.014 -10.006  -1.069  -1.033
 -1.030  -1.026  -1.022  -1.019  -0.960  -0.949  -0.931  -0.931
 -0.807  -0.790  -0.774  -0.743  -0.730  -0.723  -0.690  -0.675
 -0.665  -0.633  -0.624  -0.613  -0.568  -0.567  -0.556  -0.546
 -0.526  -0.512  -0.498  -0.491  -0.480  -0.476  -0.468  -0.462
 -0.454  -0.450  -0.448  -0.436  -0.424  -0.420  -0.419  -0.410
 -0.402  -0.400  -0.389  -0.382  -0.366  -0.364  -0.359  -0.351
 -0.350  -0.339  -0.337  -0.334  -0.330  -0.328  -0.324  -0.322
 -0.319  -0.314  -0.309  -0.306  -0.288  -0.286  -0.265  -0.250
 -0.241  -0.234  -0.230  -0.228  -0.222  -0.203  -0.188  -0.175
 -0.172  -0.169  -0.166  -0.163  -0.159  -0.158  -0.154  -0.128
 -0.127
 -- Virtual --
  0.069   0.071   0.090   0.105   0.122   0.158   0.187   0.215
  0.230   0.241   0.260   0.272   0.273   0.290   0.314   0.322
  0.326   0.335   0.343   0.353   0.361   0.365   0.374   0.378
  0.380   0.385   0.390   0.397   0.402   0.406   0.409   0.419
  0.421   0.425   0.427   0.430   0.439   0.441   0.443   0.446
  0.451   0.458   0.463   0.467   0.473   0.483   0.488   0.490
  0.497   0.498   0.508   0.519   0.524   0.535   0.547   0.552
  0.562   0.575   0.612   0.642   0.645   0.665   0.674
 --------------------------------------------------------------
 
          Ground-State Mulliken Net Atomic Charges

     Atom                 Charge (a.u.)
  ----------------------------------------
      1 O                    -0.222092
      2 C                     0.220309
      3 C                    -0.113905
      4 C                    -0.132696
      5 C                     0.235450
      6 O                    -0.178618
      7 C                    -0.054912
      8 C                    -0.039221
      9 O                    -0.191165
     10 C                     0.250084
     11 C                    -0.134651
     12 C                    -0.102099
     13 C                     0.223972
     14 O                    -0.234280
     15 O                    -0.213737
     16 O                    -0.204956
     17 O                    -0.188373
     18 C                    -0.104215
     19 C                     0.027759
     20 C                    -0.131025
     21 C                    -0.160431
     22 C                     0.067471
     23 O                    -0.200452
     24 H                     0.091802
     25 H                     0.079641
     26 H                     0.084531
     27 H                     0.087549
     28 H                     0.078288
     29 H                     0.081182
     30 H                     0.081155
     31 H                     0.076186
     32 O                    -0.187413
     33 C                    -0.106840
     34 C                     0.045204
     35 C                    -0.143073
     36 C                    -0.146018
     37 C                     0.045169
     38 O                    -0.194351
     39 H                     0.114385
     40 H                     0.102229
     41 H                     0.082749
     42 H                     0.090116
     43 H                     0.082053
     44 H                     0.078758
     45 H                     0.084521
     46 H                     0.074520
     47 H                     0.084088
     48 H                     0.084869
     49 H                     0.090217
     50 H                     0.094724
     51 H                     0.083864
     52 H                     0.087678
     53 H                     0.096280
     54 H                     0.093741
     55 H                     0.089124
     56 H                     0.094852
  ----------------------------------------
  Sum of atomic charges =    -0.000000

 -----------------------------------------------------------------
                    Cartesian Multipole Moments
 -----------------------------------------------------------------
    Charge (ESU x 10^10)
                -0.0000
    Dipole Moment (Debye)
         X      -1.8316      Y      -0.5049      Z      -3.0202
       Tot       3.5681
    Quadrupole Moments (Debye-Ang)
        XX    -154.0763     XY      -3.5772     YY    -148.0977
        XZ       9.0184     YZ       6.0148     ZZ    -174.0078
    Octopole Moments (Debye-Ang^2)
       XXX      -1.9845    XXY       7.4141    XYY     -21.3662
       YYY      -8.3315    XXZ     -60.3394    XYZ      26.9689
       YYZ       6.9919    XZZ      22.3993    YZZ      -0.2863
       ZZZ      -7.6036
    Hexadecapole Moments (Debye-Ang^3)
      XXXX   -7976.7746   XXXY     372.5749   XXYY   -1901.0826
      XYYY     204.2288   YYYY   -3287.1449   XXXZ    -124.2143
      XXYZ      48.1890   XYYZ     -10.4068   YYYZ      -4.8285
      XXZZ   -1814.4164   XYZZ      85.9173   YYZZ    -893.0681
      XZZZ      16.7799   YZZZ      11.4158   ZZZZ   -1820.5763
 -----------------------------------------------------------------
 Calculating analytic gradient of the SCF energy
 Gradient of SCF Energy
            1           2           3           4           5           6
    1  -0.0220547   0.0306737   0.0744494   0.0720294  -0.0488742  -0.0236263
    2   0.0009709   0.0418400  -0.0402851  -0.0166909  -0.0296344  -0.0160656
    3  -0.0455413  -0.0113836  -0.0262824   0.0153042  -0.0088174  -0.0255998
            7           8           9          10          11          12
    1  -0.0149471  -0.0053998  -0.0399634   0.0251764   0.0282054  -0.2134917
    2  -0.0327279   0.0169410  -0.0388685   0.0118758   0.0910910   0.0239732
    3  -0.0192781  -0.0112047  -0.0275753  -0.0342944  -0.0049043   0.1565434
           13          14          15          16          17          18
    1  -0.0446253  -0.0124341  -0.0480051   0.0609069  -0.0053503  -0.0381461
    2  -0.0241146   0.0053787  -0.0048011  -0.0231844  -0.0092642  -0.0000847
    3  -0.0348463  -0.0255241   0.0924094   0.0672078   0.0218646  -0.0231858
           19          20          21          22          23          24
    1   0.1699078   0.1340494  -0.0305411  -0.1803347   0.0195507   0.0218585
    2  -0.0039086  -0.0286174   0.0359564   0.0657524  -0.0099672   0.0031666
    3  -0.0408687   0.0292120   0.0295425  -0.0086449  -0.0840105  -0.0006384
           25          26          27          28          29          30
    1   0.0118890   0.0589307   0.0280863   0.0209613  -0.0020170   0.0028127
    2   0.0017383  -0.0230999  -0.0302483  -0.0061997  -0.0115681   0.0024369
    3  -0.0053258   0.0051017   0.0102009  -0.0146407   0.0071413  -0.0083377
           31          32          33          34          35          36
    1  -0.0188809   0.0132390   0.0199500  -0.0189753   0.0202876   0.0208828
    2  -0.0414635   0.0302124   0.0164602   0.0613153   0.0088409  -0.0110582
    3  -0.0095007  -0.0112792  -0.0336104   0.0265758   0.0079502  -0.0163290
           37          38          39          40          41          42
    1  -0.0522909  -0.0534906   0.0050824   0.0361725   0.0026841  -0.0049194
    2  -0.0422825  -0.0017805  -0.0221372   0.0185494   0.0039696  -0.0049871
    3   0.0045177   0.0380148   0.0038362   0.0028738  -0.0037359   0.0038796
           43          44          45          46          47          48
    1   0.0043861  -0.0052315  -0.0063903  -0.0004811  -0.0119403   0.0054523
    2   0.0040113  -0.0015651  -0.0010418   0.0021246   0.0046462   0.0024704
    3  -0.0051066  -0.0007534  -0.0110468   0.0043939  -0.0002477  -0.0025010
           49          50          51          52          53          54
    1  -0.0029085   0.0038970  -0.0045163  -0.0056687  -0.0090539   0.0116088
    2  -0.0023600   0.0009635  -0.0019985   0.0007202  -0.0039784   0.0091522
    3   0.0014765   0.0005914  -0.0027706  -0.0007619   0.0072087   0.0080151
           55          56
    1   0.0078536   0.0135748
    2  -0.0000029   0.0194293
    3  -0.0104504   0.0251367
 Max gradient component =       2.135E-01
 RMS gradient           =       3.997E-02
 Gradient time:  CPU 32.18 s  wall 0.68 s
 Geometry Optimization Parameters
   NAtoms,    NIC,     NZ,  NCons,   NDum,   NFix, NCnnct, MaxDiis
       56     583       0       0       0       0       0       0

 Cartesian Hessian Update
 Hessian Updated using BFGS Update


** GEOMETRY OPTIMIZATION IN DELOCALIZED INTERNAL COORDINATES **
   Searching for a Minimum

   Optimization Cycle:   3

                       Coordinates (Angstroms)
     ATOM                X               Y               Z
      1  O        -3.6251171782   -1.1204126871    1.4948782292
      2  C        -3.1131700959   -1.1809135648    0.3652715535
      3  C        -2.4999286349   -0.0118351988   -0.4327810751
      4  C        -1.8845540217    1.2162478027    0.3223513951
      5  C        -1.7541560645    1.1294916064    1.8678047206
      6  O        -0.8465116326    2.0717703948    2.3709288215
      7  C         0.2794178035    2.5004675788    1.5673547265
      8  C         1.5647577083    1.6416156733    1.7435895985
      9  O         2.4747408399    1.8871270339    0.6393262306
     10  C         2.1303490503    1.3937286573   -0.6018247846
     11  C         1.3773348862    0.0712882787   -0.5523958737
     12  C         2.3345905902   -1.1393706035   -0.4599464788
     13  C         3.8109651893   -0.8299401287   -0.0886606866
     14  O         4.4456320274   -1.2691688274    0.8832357384
     15  O        -3.7946884616   -2.0172474635   -0.5294798432
     16  O         4.4586292134   -0.0084761680   -0.9883816174
     17  O         2.4755817857    1.9459428612   -1.6514443592
     18  C         5.7986252909    0.3706406415   -0.8104199304
     19  C         0.8701921373   -1.4349391310    0.3859768972
     20  C         0.5653661251   -2.9100108708   -0.4895352759
     21  C         1.8009115767   -3.6256704445   -0.5046593103
     22  C         2.3956462810   -2.5481584349    0.2971908319
     23  O         1.7042818832   -2.0395217002    1.3578937184
     24  H         1.0002010613   -0.0596893574   -1.5676135583
     25  H         2.5809146601   -1.3996107776   -1.5292004888
     26  H         0.1133094567   -1.2336145118    1.1293755200
     27  H        -0.0176562875   -3.6051576895    0.1620952672
     28  H         0.2147723079   -2.7900706669   -1.5374506318
     29  H         1.7959443870   -4.6129651950    0.0130297857
     30  H         2.3185660797   -3.6905631237   -1.4835373578
     31  H         3.3090283684   -3.1277313750    0.6001898155
     32  O        -2.6442024751    0.8380405383    2.6773469220
     33  C        -4.7691995371   -2.9369128805   -0.1090721491
     34  C        -2.6130597227    0.4594924868   -1.9429705580
     35  C        -3.8914671291    1.2826619216   -2.2323470364
     36  C        -3.5780071753    2.5312350955   -1.3765753658
     37  C        -2.0856913080    2.2502895955   -0.9338656682
     38  O        -1.6338412482    1.4998029479   -2.0512182581
     39  H        -3.5642755551    0.2881205775   -0.2783465952
     40  H        -2.7163286427    1.8720820365    0.6951714578
     41  H        -5.6250567657   -2.4131282546    0.3712677385
     42  H        -2.4509604772   -0.3737604789   -2.6586593862
     43  H        -3.8625890915    1.5566595483   -3.3074727516
     44  H        -4.8542026879    0.7810384488   -2.0084109967
     45  H        -3.6279655844    3.4138575492   -2.0459692018
     46  H        -4.2611342585    2.6978761246   -0.5189883815
     47  H        -1.5924267139    3.2393993561   -0.8364710786
     48  H        -4.3425802078   -3.6714348537    0.6083705041
     49  H        -5.1435331637   -3.4841561813   -0.9978845882
     50  H         6.0948792485    1.0276530633   -1.6530629729
     51  H         6.4628660304   -0.5214265494   -0.8021977717
     52  H         5.9253059393    0.9321915348    0.1411658173
     53  H         2.0424594714    1.9846321133    2.6860528821
     54  H         1.4100321059    0.5685456961    1.9391997905
     55  H         0.5942025674    3.4754063275    2.0017066874
     56  H         0.1263988810    2.8455199940    0.5477026716
   Point Group: c1    Number of degrees of freedom:   162


   Energy is  -1509.541735090

 Hessian Updated using BFGS Update

154 Hessian modes will be used to form the next step
  Hessian Eigenvalues:
     0.004319    0.005852    0.007013    0.007129    0.007134    0.007481
     0.007567    0.007836    0.008446    0.009537    0.009787    0.010160
     0.011038    0.011264    0.012618    0.013646    0.014341    0.014476
     0.014697    0.017964    0.018233    0.018418    0.020221    0.020397
     0.020649    0.023292    0.023537    0.023858    0.025395    0.026111
     0.027538    0.029243    0.029706    0.031450    0.031916    0.032754
     0.033880    0.034992    0.038933    0.039831    0.040761    0.041310
     0.043828    0.044102    0.047624    0.048583    0.051859    0.054620
     0.055380    0.057581    0.058660    0.061381    0.061567    0.063371
     0.063791    0.064336    0.065382    0.065787    0.068003    0.072425
     0.072955    0.078402    0.079718    0.080781    0.087968    0.088993
     0.093630    0.094854    0.097243    0.102290    0.103771    0.104201
     0.105518    0.105747    0.113877    0.114992    0.124882    0.139059
     0.141019    0.143616    0.157237    0.159507    0.159978    0.160004
     0.161874    0.169362    0.183481    0.193058    0.217396    0.221396
     0.222201    0.225865    0.228240    0.228828    0.229655    0.244674
     0.244819    0.249885    0.249927    0.249965    0.257423    0.263415
     0.266137    0.275259    0.278893    0.296908    0.304244    0.308960
     0.310169    0.310659    0.311619    0.312016    0.312874    0.319349
     0.320832    0.321783    0.322466    0.323109    0.324197    0.324407
     0.324515    0.324630    0.324754    0.324941    0.325001    0.325243
     0.325506    0.325557    0.326736    0.326817    0.326954    0.327226
     0.332366    0.336705    0.341178    0.351128    0.360538    0.363649
     0.382446    0.390910    0.399239    0.405674    0.450156    0.483560
     0.491305    0.493422    0.523386    0.528489    0.578210    0.938287
     0.942144    0.947340    0.962368    3.454247

 Minimum Search - Taking Simple RFO Step
 Searching for Lamda that Minimizes Along All modes
 Value Taken    Lamda =  -0.26624990
 Calculated Step too Large.  Step scaled by  0.369551
 Step Taken.  Stepsize is  0.300000

                             Maximum     Tolerance    Cnvgd?
         Gradient           0.098799      0.000300      NO
         Displacement       0.074092      0.001200      NO
         Energy change     -0.113737      0.000001      NO


 New Cartesian Coordinates Obtained by Inverse Iteration

 Displacement from previous Coordinates is:  1.090152
 Adding empirical dispersion correction 
 ----------------------------------------------------------------
 Doing -D3(op) with
 s6 =   1.00000
 s8 =   0.78311
 a1 =   0.30000
 a2 =   4.25000
 n  =  10.00000
 -D3 energy without 3body term =     -0.0728177880 hartrees
 ----------------------------------------------------------------
             Standard Nuclear Orientation (Angstroms)
    I     Atom           X                Y                Z
 ----------------------------------------------------------------
    1      O      -3.5917197432    -1.1368001987     1.4734379885
    2      C      -3.0767426238    -1.1796900281     0.3374210781
    3      C      -2.4682978130     0.0157412490    -0.4463465244
    4      C      -1.8724877051     1.2462285159     0.3245790056
    5      C      -1.7589075196     1.1284206418     1.8838983334
    6      O      -0.8567734949     2.0662434328     2.4314195981
    7      C       0.2657235800     2.4951634568     1.6210294918
    8      C       1.5547293930     1.6247131352     1.7739921828
    9      O       2.4583827398     1.8696996310     0.6603276413
   10      C       2.0699022968     1.3620186144    -0.5751708295
   11      C       1.3097013426     0.0330909937    -0.5158458149
   12      C       2.3169916667    -1.1505941080    -0.4592396120
   13      C       3.8139442133    -0.8172740790    -0.1272521338
   14      O       4.4874900690    -1.2326750097     0.8357037001
   15      O      -3.7123549420    -2.0261629962    -0.5962481316
   16      O       4.4067677675     0.0061749358    -1.0779561286
   17      O       2.3951805970     1.9088910670    -1.6398087558
   18      C       5.7619830163     0.3942364126    -0.9147254458
   19      C       0.8216992101    -1.4443667669     0.4397673878
   20      C       0.4922847589    -2.9119732981    -0.4163267087
   21      C       1.7499954683    -3.6399920459    -0.4540361415
   22      C       2.3816602194    -2.5523852658     0.3299962033
   23      O       1.6912948260    -2.0319261094     1.4127856562
   24      H       0.9046854637    -0.1097503715    -1.5214811443
   25      H       2.5414355886    -1.4225464844    -1.5269567215
   26      H       0.0627490003    -1.2346528724     1.1978907247
   27      H      -0.0867535540    -3.5886263889     0.2513829233
   28      H       0.1137019123    -2.7970178613    -1.4523050310
   29      H       1.7517070823    -4.6184233866     0.0699819055
   30      H       2.2425038664    -3.7143441984    -1.4417442549
   31      H       3.3082420538    -3.1135873000     0.6223979629
   32      O      -2.6654961984     0.7943788683     2.6656723461
   33      C      -4.6712239742    -2.9718539161    -0.1499831595
   34      C      -2.5489108672     0.4869158232    -1.9657021162
   35      C      -3.8381804360     1.3013320330    -2.2586926651
   36      C      -3.5422854811     2.5544216356    -1.3865555481
   37      C      -2.0446583586     2.2900181345    -0.9343752165
   38      O      -1.5633492241     1.5421811761    -2.0576597629
   39      H      -3.5388234225     0.3142071725    -0.3073184139
   40      H      -2.7303196140     1.8818710624     0.6880117786
   41      H      -5.5402789423    -2.4665877131     0.3270469920
   42      H      -2.3640140067    -0.3399025406    -2.6828961577
   43      H      -3.8069781865     1.5832078147    -3.3295738299
   44      H      -4.7945800171     0.7875368032    -2.0448143946
   45      H      -3.5941340745     3.4423428202    -2.0452072601
   46      H      -4.2327866140     2.7057756556    -0.5339701841
   47      H      -1.5520602521     3.2782986888    -0.8216955576
   48      H      -4.2286452186    -3.6874836217     0.5769114170
   49      H      -5.0309322790    -3.5378406431    -1.0323509914
   50      H       6.0396399286     1.0435523650    -1.7687558284
   51      H       6.4333620222    -0.4924809234    -0.9054757652
   52      H       5.9024018712     0.9655398449     0.0290701271
   53      H       2.0548149593     1.9585109161     2.7075813880
   54      H       1.3847919692     0.5489771159     1.9623097686
   55      H       0.5806393972     3.4684507957     2.0600653242
   56      H       0.0968871151     2.8377356813     0.5954225937
 ----------------------------------------------------------------
 Molecular Point Group                 C1    NOp =  1
 Largest Abelian Subgroup              C1    NOp =  1
 Nuclear Repulsion Energy =  3329.9311434755 hartrees
 There are      113 alpha and      113 beta electrons
 Applying Cartesian multipole field
    Component          Value
    ---------          -----
     (2,0,0)        1.00000E-12
     (0,2,0)        2.00000E-11
     (0,0,2)       -3.00000E-11
 Nucleus-field energy     =     0.0000000186 hartrees
 Requested basis set is STO-3G
 There are 86 shells and 176 basis functions
 A cutoff of  1.0D-12 yielded   2576 shell pairs
 There are     12281 function pairs
 Smallest overlap matrix eigenvalue = 1.91E-01
 Guess MOs from SCF MO coefficient file
 Reading MOs from coefficient file
[...]
      8  C         1.1119815810    0.6246017658    0.1454011300
      9  O         0.8759359461   -0.1975819235   -1.0663595343
     10  C         0.8995868684   -1.6130559205   -0.9259527296
     11  C         1.4230578527   -2.3743399918    0.3601457680
     12  C         2.9969377209   -2.3101538625    0.5888793563
     13  C         3.7122409506   -1.2153778585   -0.2808336791
     14  O         4.3971472270   -0.2492573747    0.1169560622
     15  O        -2.0777336912    0.1392097322   -3.1481854232
     16  O         3.4381109984   -1.5063764124   -1.6543483042
     17  O         0.5151766155   -2.2763604140   -1.9260942802
     18  C         3.9526612396   -0.4261607426   -2.5264401981
     19  C         0.8808233483   -1.9247855504    1.7866607435
     20  C         1.0287364076   -3.1459524758    2.7649662490
     21  C         2.5920368730   -3.1914098177    2.9724603845
     22  C         3.0606467849   -1.9472423674    2.1232743252
     23  O         1.9337193853   -0.9929745153    2.2777971306
     24  H         1.1283187810   -3.4207629277    0.1679142034
     25  H         3.4608368700   -3.2892587366    0.3707141094
     26  H        -0.0915096485   -1.3753446630    1.7557720413
     27  H         0.5048088981   -2.9439981101    3.7129100617
     28  H         0.6296430486   -4.0768001043    2.3318418849
     29  H         2.8633608126   -3.0589593752    4.0318537162
     30  H         3.0413987597   -4.1293003120    2.6083368983
     31  H         4.0112720985   -1.4734907736    2.4367025486
     32  O        -3.0493909617   -0.8461796538    1.6822586290
     33  C        -1.2639498093   -0.9577151415   -3.7380458929
     34  C        -2.8936665546    2.5132428562   -1.7240144756
     35  C        -4.1280812681    3.4681391974   -1.5020868707
     36  C        -4.1186872805    3.6217327334    0.0658587529
     37  C        -2.8739752450    2.7380281662    0.4620061591
     38  O        -1.9411658803    2.9617071316   -0.6760791867
     39  H        -4.3077811419    0.8016448934   -1.6161484751
     40  H        -4.3055917017    1.0681934422    0.7066016870
     41  H        -1.9409747557   -1.7567700851   -4.1031566797
     42  H        -2.4197936705    2.5535465318   -2.7238322653
     43  H        -3.9636195466    4.4356332567   -2.0026614647
     44  H        -5.0636381505    3.0272205419   -1.8814226170
     45  H        -3.9554300469    4.6688910740    0.3667796558
     46  H        -5.0476917971    3.2607406093    0.5352331861
     47  H        -2.3895020647    3.0111007937    1.4187381725
     48  H        -0.5266410996   -1.3981252112   -3.0098310870
     49  H        -0.7409414867   -0.5114279576   -4.6038769112
     50  H         3.8532171419   -0.7954535332   -3.5635263628
     51  H         5.0143477522   -0.1938274248   -2.3075126882
     52  H         3.3502966654    0.4976815926   -2.4049866738
     53  H         1.7416300282    1.4751570467   -0.1907489202
     54  H         1.6362797723    0.0712040644    0.9716889801
     55  H         0.0289426909    1.9550995702    1.4776236263
     56  H        -0.8016101884    1.7749735940   -0.1122253462
   Point Group: c1    Number of degrees of freedom:   162


   Energy is  -1510.286154264

 Hessian Updated using BFGS Update

162 Hessian modes will be used to form the next step
  Hessian Eigenvalues:
     0.001749    0.003267    0.003512    0.004233    0.005404    0.006957
     0.008026    0.008446    0.010007    0.011889    0.012582    0.015291
     0.016270    0.017976    0.019068    0.020776    0.022880    0.023325
     0.024056    0.024640    0.025360    0.027125    0.028620    0.030093
     0.030659    0.031395    0.032382    0.033220    0.034704    0.036416
     0.036690    0.038821    0.039993    0.042362    0.043322    0.044874
     0.046479    0.047938    0.048739    0.049010    0.052567    0.054828
     0.056903    0.057572    0.058335    0.060869    0.061809    0.062258
     0.062638    0.064840    0.065263    0.066046    0.067390    0.068110
     0.069413    0.071473    0.077153    0.079092    0.080039    0.086796
     0.088806    0.094314    0.101959    0.103304    0.104395    0.105708
     0.106568    0.108517    0.110653    0.113752    0.114545    0.118021
     0.129432    0.132613    0.145052    0.149255    0.159379    0.160155
     0.160327    0.160391    0.161459    0.163681    0.165214    0.174957
     0.186802    0.187991    0.199506    0.207343    0.213909    0.227847
     0.232218    0.239655    0.244717    0.247433    0.250618    0.253143
     0.257301    0.258169    0.265788    0.271991    0.274186    0.276791
     0.284708    0.288343    0.295914    0.300502    0.304902    0.310073
     0.310577    0.312031    0.312177    0.313373    0.318194    0.320553
     0.321459    0.322047    0.323009    0.323855    0.324365    0.324582
     0.324894    0.324921    0.325048    0.325412    0.325601    0.326082
     0.326825    0.327055    0.327661    0.329010    0.329387    0.334620
     0.337736    0.344990    0.351643    0.351909    0.356504    0.364741
     0.373454    0.374524    0.393412    0.406075    0.419098    0.441465
     0.461479    0.470686    0.479751    0.496441    0.520076    0.532777
     0.544323    0.553626    0.782888    0.927454    0.941680    0.947627
     0.966783    1.021656    1.788796    2.490870    5.116170   35.507949
**WARNING** Magnitude of eigenvalue 162 too large.  Replaced by    25.000000

 Minimum Search - Taking Simple RFO Step
 Searching for Lamda that Minimizes Along All modes
 Value Taken    Lamda =   0.00000000
 Step Taken.  Stepsize is  0.003685

                             Maximum     Tolerance    Cnvgd?
         Gradient           0.000105      0.000300     YES
         Displacement       0.001633      0.001200      NO
         Energy change     -0.000001      0.000001     YES

 Final energy is   -1510.28615426444     


 ******************************
 **  OPTIMIZATION CONVERGED  **
 ******************************

                       Coordinates (Angstroms)
     ATOM                X               Y               Z
      1  O        -1.8804011721   -1.0068259290   -1.0670464468
      2  C        -2.3224442204   -0.0677609838   -1.7682861047
      3  C        -3.2932337195    1.0551579132   -1.2568023111
      4  C        -3.2808288218    1.2095896514    0.3205991963
      5  C        -2.4516503104    0.0921505830    1.1072684000
      6  O        -1.0323336912    0.1436277628    1.3177085516
      7  C        -0.2372863612    1.2216940114    0.6831866075
      8  C         1.1119815810    0.6246017658    0.1454011300
      9  O         0.8759359461   -0.1975819235   -1.0663595343
     10  C         0.8995868684   -1.6130559205   -0.9259527296
     11  C         1.4230578527   -2.3743399918    0.3601457680
     12  C         2.9969377209   -2.3101538625    0.5888793563
     13  C         3.7122409506   -1.2153778585   -0.2808336791
     14  O         4.3971472270   -0.2492573747    0.1169560622
     15  O        -2.0777336912    0.1392097322   -3.1481854232
     16  O         3.4381109984   -1.5063764124   -1.6543483042
     17  O         0.5151766155   -2.2763604140   -1.9260942802
     18  C         3.9526612396   -0.4261607426   -2.5264401981
     19  C         0.8808233483   -1.9247855504    1.7866607435
     20  C         1.0287364076   -3.1459524758    2.7649662490
     21  C         2.5920368730   -3.1914098177    2.9724603845
     22  C         3.0606467849   -1.9472423674    2.1232743252
     23  O         1.9337193853   -0.9929745153    2.2777971306
     24  H         1.1283187810   -3.4207629277    0.1679142034
     25  H         3.4608368700   -3.2892587366    0.3707141094
     26  H        -0.0915096485   -1.3753446630    1.7557720413
     27  H         0.5048088981   -2.9439981101    3.7129100617
     28  H         0.6296430486   -4.0768001043    2.3318418849
     29  H         2.8633608126   -3.0589593752    4.0318537162
     30  H         3.0413987597   -4.1293003120    2.6083368983
     31  H         4.0112720985   -1.4734907736    2.4367025486
     32  O        -3.0493909617   -0.8461796538    1.6822586290
     33  C        -1.2639498093   -0.9577151415   -3.7380458929
     34  C        -2.8936665546    2.5132428562   -1.7240144756
     35  C        -4.1280812681    3.4681391974   -1.5020868707
     36  C        -4.1186872805    3.6217327334    0.0658587529
     37  C        -2.8739752450    2.7380281662    0.4620061591
     38  O        -1.9411658803    2.9617071316   -0.6760791867
     39  H        -4.3077811419    0.8016448934   -1.6161484751
     40  H        -4.3055917017    1.0681934422    0.7066016870
     41  H        -1.9409747557   -1.7567700851   -4.1031566797
     42  H        -2.4197936705    2.5535465318   -2.7238322653
     43  H        -3.9636195466    4.4356332567   -2.0026614647
     44  H        -5.0636381505    3.0272205419   -1.8814226170
     45  H        -3.9554300469    4.6688910740    0.3667796558
     46  H        -5.0476917971    3.2607406093    0.5352331861
     47  H        -2.3895020647    3.0111007937    1.4187381725
     48  H        -0.5266410996   -1.3981252112   -3.0098310870
     49  H        -0.7409414867   -0.5114279576   -4.6038769112
     50  H         3.8532171419   -0.7954535332   -3.5635263628
     51  H         5.0143477522   -0.1938274248   -2.3075126882
     52  H         3.3502966654    0.4976815926   -2.4049866738
     53  H         1.7416300282    1.4751570467   -0.1907489202
     54  H         1.6362797723    0.0712040644    0.9716889801
     55  H         0.0289426909    1.9550995702    1.4776236263
     56  H        -0.8016101884    1.7749735940   -0.1122253462

Z-matrix Print:
$molecule
0 1
O 
C  1 1.422617
O  2 1.260170 1 116.124054
C  1 1.483262 2 117.920644 3 170.528602 0
H  4 1.110360 1 105.517170 2 140.542406 0
H  4 1.124228 1 113.691319 2 20.434285 0
C  4 1.570432 1 110.719114 2 -103.513849 0
H  7 1.113504 4 106.817396 1 -170.735959 0
H  7 1.121276 4 112.153859 1 -53.150252 0
O  7 1.482210 4 109.324053 1 73.148409 0
C  10 1.435756 7 119.576395 4 -139.297259 0
O  11 1.252346 10 115.556449 7 -179.743469 0
C  2 1.583548 1 124.331823 3 177.469596 0
H  13 1.104004 2 103.061890 1 170.767315 0
C  13 1.590931 2 118.666849 1 49.675488 0
H  15 1.117260 13 114.254471 2 21.633736 0
O  15 1.489321 13 103.387359 2 -96.030402 0
C  17 1.484746 15 95.747556 13 -54.882605 0
H  18 1.107414 17 110.312131 15 179.902097 0
C  15 1.571690 13 107.848306 2 156.025763 0
H  20 1.101521 15 112.193724 13 -48.530332 0
H  20 1.101764 15 110.388172 13 -169.955507 0
C  18 1.577550 17 103.026788 15 -55.539611 0
H  23 1.101578 18 110.468251 17 -85.649340 0
H  23 1.101885 18 111.855671 17 153.194133 0
C  18 1.578015 17 102.613014 15 57.970406 0
H  26 1.105190 18 112.255675 17 -156.114936 0
C  26 1.570539 18 111.085445 17 82.220196 0
O  28 1.249289 26 127.765996 18 8.265608 0
O  28 1.430514 26 107.615289 18 -171.385324 0
C  30 1.480599 28 110.519959 26 173.528164 0
H  31 1.105357 30 106.118192 28 171.033149 0
H  31 1.108642 30 111.677996 28 51.209085 0
H  31 1.109540 30 110.752244 28 -70.340123 0
C  11 1.598454 10 124.046661 7 -5.548435 0
H  35 1.104142 11 102.701410 10 -157.677861 0
C  35 1.584992 11 115.197092 10 83.778203 0
H  37 1.105760 35 110.667217 11 112.599967 0
C  37 1.570030 35 112.896453 11 -7.694307 0
O  39 1.252590 37 124.891732 35 20.135956 0
O  39 1.416631 37 108.641672 35 -161.851358 0
C  41 1.487758 39 111.898473 37 -174.761330 0
H  42 1.105610 41 105.761030 39 -153.943614 0
H  42 1.109125 41 109.135664 39 89.195568 0
H  42 1.126003 41 112.962894 39 -32.628585 0
C  37 1.582388 35 101.659055 11 -130.238623 0
H  46 1.107166 37 114.094850 35 154.856016 0
O  46 1.485445 37 103.403602 35 34.687141 0
C  48 1.488423 46 95.289527 37 -55.842134 0
H  49 1.106625 48 110.463057 46 -179.856265 0
C  46 1.576343 37 108.594984 35 -73.897972 0
H  51 1.101622 46 111.969081 37 -46.873863 0
H  51 1.101666 46 110.555660 37 -168.332515 0
C  51 1.575479 46 101.215526 37 73.469013 0
H  54 1.101670 51 112.770857 46 -119.586432 0
H  54 1.101702 51 111.431153 46 117.890300 0
$end

 
 --------------------------------------------------------------
 
                    Orbital Energies (a.u.)
 --------------------------------------------------------------
 
 Alpha MOs
 -- Occupied --
-18.939 -18.929 -18.925 -18.922 -18.914 -18.901 -18.880 -18.873
-18.866 -18.855 -10.103 -10.099 -10.098 -10.094 -10.072 -10.071
-10.064 -10.064 -10.045 -10.045 -10.043 -10.041 -10.040 -10.038
-10.033 -10.031 -10.029 -10.026 -10.021 -10.017  -1.016  -1.008
 -0.998  -0.993  -0.987  -0.978  -0.941  -0.932  -0.929  -0.920
 -0.770  -0.763  -0.727  -0.722  -0.714  -0.703  -0.695  -0.663
 -0.647  -0.599  -0.596  -0.581  -0.556  -0.549  -0.546  -0.536
 -0.521  -0.508  -0.485  -0.477  -0.465  -0.462  -0.447  -0.444
 -0.438  -0.435  -0.416  -0.412  -0.410  -0.407  -0.402  -0.394
 -0.385  -0.377  -0.375  -0.369  -0.366  -0.352  -0.350  -0.350
 -0.347  -0.341  -0.337  -0.330  -0.328  -0.321  -0.317  -0.315
 -0.313  -0.308  -0.304  -0.294  -0.293  -0.284  -0.280  -0.278
 -0.273  -0.255  -0.254  -0.246  -0.241  -0.229  -0.226  -0.180
 -0.175  -0.171  -0.164  -0.159  -0.153  -0.147  -0.147  -0.137
 -0.135
 -- Virtual --
  0.091   0.101   0.109   0.115   0.227   0.229   0.232   0.247
  0.255   0.263   0.271   0.280   0.286   0.296   0.318   0.327
  0.333   0.335   0.342   0.348   0.350   0.357   0.365   0.373
  0.378   0.385   0.390   0.398   0.402   0.403   0.409   0.415
  0.418   0.421   0.422   0.429   0.432   0.435   0.439   0.441
  0.444   0.447   0.450   0.459   0.461   0.467   0.473   0.480
  0.483   0.491   0.500   0.509   0.511   0.524   0.532   0.541
  0.547   0.555   0.567   0.623   0.628   0.642   0.647
 --------------------------------------------------------------
 
          Ground-State Mulliken Net Atomic Charges

     Atom                 Charge (a.u.)
  ----------------------------------------
      1 O                    -0.209313
      2 C                     0.212893
      3 C                    -0.081658
      4 C                    -0.086755
      5 C                     0.215411
      6 O                    -0.181560
      7 C                    -0.071540
      8 C                    -0.075176
      9 O                    -0.178201
     10 C                     0.225825
     11 C                    -0.084992
     12 C                    -0.081852
     13 C                     0.207039
     14 O                    -0.211596
     15 O                    -0.174179
     16 O                    -0.167319
     17 O                    -0.208936
     18 C                    -0.127903
     19 C                     0.006891
     20 C                    -0.142565
     21 C                    -0.143542
     22 C                     0.024277
     23 O                    -0.190096
     24 H                     0.091070
     25 H                     0.088373
     26 H                     0.121731
     27 H                     0.081542
     28 H                     0.077275
     29 H                     0.079152
     30 H                     0.074425
     31 H                     0.090660
     32 O                    -0.212139
     33 C                    -0.152502
     34 C                     0.024556
     35 C                    -0.142619
     36 C                    -0.142385
     37 C                     0.021396
     38 O                    -0.187106
     39 H                     0.087767
     40 H                     0.088379
     41 H                     0.073517
     42 H                     0.096734
     43 H                     0.080734
     44 H                     0.077530
     45 H                     0.080649
     46 H                     0.078008
     47 H                     0.086534
     48 H                     0.128149
     49 H                     0.076799
     50 H                     0.093807
     51 H                     0.091427
     52 H                     0.091150
     53 H                     0.078479
     54 H                     0.117472
     55 H                     0.072751
     56 H                     0.111528
  ----------------------------------------
  Sum of atomic charges =    -0.000000

 -----------------------------------------------------------------
                    Cartesian Multipole Moments
 -----------------------------------------------------------------
    Charge (ESU x 10^10)
                 0.0000
    Dipole Moment (Debye)
         X      -0.0631      Y       1.8930      Z      -0.4491
       Tot       1.9466
    Quadrupole Moments (Debye-Ang)
        XX    -149.6708     XY     -16.5956     YY    -153.1808
        XZ       2.8175     YZ      -4.2795     ZZ    -159.1915
    Octopole Moments (Debye-Ang^2)
       XXX      30.6569    XXY      49.9197    XYY      22.6720
       YYY      87.6951    XXZ     -10.4313    XYZ     -19.7285
       YYZ      46.4703    XZZ      41.3377    YZZ      33.4465
       ZZZ      59.0866
    Hexadecapole Moments (Debye-Ang^3)
      XXXX   -6705.0405   XXXY    1460.7277   XXYY   -1684.2506
      XYYY    1579.3624   YYYY   -3756.2888   XXXZ    -479.0319
      XXYZ     146.3184   XYYZ    -105.3518   YYYZ     434.4151
      XXZZ   -1618.0919   XYZZ     538.7217   YYZZ   -1156.9523
      XZZZ    -500.9374   YZZZ     480.4171   ZZZZ   -3097.5913
 -----------------------------------------------------------------
Archival summary:
1\1\vega02.cac.cornell.edu\OPT\ProcedureUnspecified\STO-3G\102026\jj585\SunJan1418:39:442018SunJan1418:39:442018\0\\#,OPT,ProcedureUnspecified,STO-3G,\\0,1\O\C,1,1.42262\O,2,1.26017,1,116.124\C,1,1.48326,2,117.921,3,170.529,0\H,4,1.11036,1,105.517,2,140.542,0\H,4,1.12423,1,113.691,2,20.4343,0\C,4,1.57043,1,110.719,2,-103.514,0\H,7,1.1135,4,106.817,1,-170.736,0\H,7,1.12128,4,112.154,1,-53.1503,0\O,7,1.48221,4,109.324,1,73.1484,0\C,10,1.43576,7,119.576,4,-139.297,0\O,11,1.25235,10,115.556,7,-179.743,0\C,2,1.58355,1,124.332,3,177.47,0\H,13,1.104,2,103.062,1,170.767,0\C,13,1.59093,2,118.667,1,49.6755,0\H,15,1.11726,13,114.254,2,21.6337,0\O,15,1.48932,13,103.387,2,-96.0304,0\C,17,1.48475,15,95.7476,13,-54.8826,0\H,18,1.10741,17,110.312,15,179.902,0\C,15,1.57169,13,107.848,2,156.026,0\H,20,1.10152,15,112.194,13,-48.5303,0\H,20,1.10176,15,110.388,13,-169.956,0\C,18,1.57755,17,103.027,15,-55.5396,0\H,23,1.10158,18,110.468,17,-85.6493,0\H,23,1.10189,18,111.856,17,153.194,0\C,18,1.57802,17,102.613,15,57.9704,0\H,26,1.10519,18,112.256,17,-156.115,0\C,26,1.57054,18,111.085,17,82.2202,0\O,28,1.24929,26,127.766,18,8.26561,0\O,28,1.43051,26,107.615,18,-171.385,0\C,30,1.4806,28,110.52,26,173.528,0\H,31,1.10536,30,106.118,28,171.033,0\H,31,1.10864,30,111.678,28,51.2091,0\H,31,1.10954,30,110.752,28,-70.3401,0\C,11,1.59845,10,124.047,7,-5.54843,0\H,35,1.10414,11,102.701,10,-157.678,0\C,35,1.58499,11,115.197,10,83.7782,0\H,37,1.10576,35,110.667,11,112.6,0\C,37,1.57003,35,112.896,11,-7.69431,0\O,39,1.25259,37,124.892,35,20.136,0\O,39,1.41663,37,108.642,35,-161.851,0\C,41,1.48776,39,111.898,37,-174.761,0\H,42,1.10561,41,105.761,39,-153.944,0\H,42,1.10912,41,109.136,39,89.1956,0\H,42,1.126,41,112.963,39,-32.6286,0\C,37,1.58239,35,101.659,11,-130.239,0\H,46,1.10717,37,114.095,35,154.856,0\O,46,1.48544,37,103.404,35,34.6871,0\C,48,1.48842,46,95.2895,37,-55.8421,0\H,49,1.10663,48,110.463,46,-179.856,0\C,46,1.57634,37,108.595,35,-73.898,0\H,51,1.10162,46,111.969,37,-46.8739,0\H,51,1.10167,46,110.556,37,-168.333,0\C,51,1.57548,46,101.216,37,73.469,0\H,54,1.10167,51,112.771,46,-119.586,0\H,54,1.1017,51,111.431,46,117.89,0\\\@

 Total job time:  258.38s(wall), 12330.37s(cpu) 
 Sun Jan 14 18:39:44 2018

        *************************************************************
        *                                                           *
        *  Thank you very much for using Q-Chem.  Have a nice day.  *
        *                                                           *
        *************************************************************


0 sent ACK to 0 
now end server 0 ... 
