mFile = /opt/software/qchem/qchem-5.0.1//bin/mpi/machines
Process 0 of 1 is on vega02.cac.cornell.edu - thread support 0
initial socket setup ...start
initial socket setup ...done 
now start server 0 ... 
vega02.cac.cornell.edu 10.84.3
Q-Chem Developer Version! Running on 10.84.3.*
                  Welcome to Q-Chem
     A Quantum Leap Into The Future Of Chemistry


 Q-Chem 5.0, Q-Chem, Inc., Pleasanton, CA (2017)

 Yihan Shao,  Zhengting Gan,  E. Epifanovsky,  A. T. B. Gilbert,  M. Wormit,  
 J. Kussmann,  A. W. Lange,  A. Behn,  Jia Deng,  Xintian Feng,  D. Ghosh,  
 M. Goldey,  P. R. Horn,  L. D. Jacobson,  I. Kaliman,  T. Kus,  A. Landau,  
 Jie Liu,  E. I. Proynov,  R. M. Richard,  R. P. Steele,  E. J. Sundstrom,  
 H. L. Woodcock III,  P. M. Zimmerman,  D. Zuev,  B. Albrecht,  E. Alguire,  
 S. A. Baeppler,  Z. Benda,  Y. A. Bernard,  E. J. Berquist,  K. B. Bravaya,  
 D. Casanova,  Chun-Min Chang,  Yunqing Chen,  A. Chien,  K. D. Closser,  
 M. P. Coons,  S. Dasgupta,  M. Diedenhofen,  Hainam Do,  R. G. Edgar,  
 Po-Tung Fang,  S. Fatehi,  Qingguo Feng,  Qinghui Ge,  A. Ghysels,  
 J. Gomes,  J. Gonthier,  A. Gunina,  M. W. D. Hanson-Heine,  
 P. H. P. Harbach,  A. W. Hauser,  J. E. Herr,  E. G. Hohenstein,  
 Z. C. Holden,  Kerwin Hui,  T.-C. Jagau,  Hyunjun Ji,  B. Kaduk,  
 K. Khistyaev,  Jaehoon Kim,  P. Klunzinger,  K. Koh,  D. Kosenkov,  
 T. Kowalczyk,  C. M. Krauter,  A. Kunitsa,  Ka Un Lao,  A. Laurent,  
 K. V. Lawler,  Joonho Lee,  D. Lefrancois,  S. Lehtola,  D. S. Levine,  
 Yi-Pei Li,  You-Sheng Lin,  Fenglai Liu,  E. Livshits,  A. Luenser,  
 P. Manohar,  E. Mansoor,  S. F. Manzer,  Shan-Ping Mao,  Yuezhi Mao,  
 N. Mardirossian,  A. V. Marenich,  L. A. Martinez-Martinez,  S. A. Maurer,  
 N. J. Mayhall,  S. C. McKenzie,  J.-M. Mewes,  A. F. Morrison,  K. Nanda,  
 T. S. Nguyen-Beck,  R. Olivares-Amaya,  J. A. Parkhill,  T. M. Perrine,  
 F. Plasser,  S. Prager,  A. Prociuk,  D. R. Rehn,  F. Rob,  M. Schneider,  
 N. Sergueev,  S. M. Sharada,  S. Sharma,  D. W. Small,  T. Stauch,  
 T. Stein,  Yu-Chuan Su,  A. J. W. Thom,  T. Tsuchimochi,  L. Vogt,  
 O. Vydrov,  M. A. Watson,  J. Wenzel,  M. de Wergifosse,  T. A. Wesolowski,  
 A. White,  J. Witte,  A. Yamada,  Jun Yang,  K. Yao,  S. Yeganeh,  
 S. R. Yost,  Zhi-Qiang You,  A. Zech,  Igor Ying Zhang,  Xing Zhang,  
 Yan Zhao,  Ying Zhu,  B. R. Brooks,  G. K. L. Chan,  C. J. Cramer,  
 M. S. Gordon,  W. J. Hehre,  A. Klamt,  M. W. Schmidt,  C. D. Sherrill,  
 D. G. Truhlar,  A. Aspuru-Guzik,  R. Baer,  A. T. Bell,  N. A. Besley,  
 Jeng-Da Chai,  A. Dreuw,  B. D. Dunietz,  T. R. Furlani,  Chao-Ping Hsu,  
 Yousung Jung,  Jing Kong,  D. S. Lambrecht,  WanZhen Liang,  C. Ochsenfeld,  
 V. A. Rassolov,  L. V. Slipchenko,  J. E. Subotnik,  T. Van Voorhis,  
 J. M. Herbert,  A. I. Krylov,  P. M. W. Gill,  M. Head-Gordon

 Contributors to earlier versions of Q-Chem not listed above: 
 R. D. Adamson,  B. Austin,  J. Baker,  G. J. O. Beran,  K. Brandhorst,  
 S. T. Brown,  E. F. C. Byrd,  A. K. Chakraborty,  C.-L. Cheng,  
 Siu Hung Chien,  D. M. Chipman,  D. L. Crittenden,  H. Dachsel,  
 R. A. DiStasio Jr.,  R. J. Doerksen,  A. D. Dutoi,  L. Fusti-Molnar,  
 W. A. Goddard III,  A. Golubeva-Zadorozhnaya,  S. R. Gwaltney,  G. Hawkins,  
 A. Heyden,  S. Hirata,  G. Kedziora,  F. J. Keil,  C. Kelley,  Jihan Kim,  
 R. A. King,  R. Z. Khaliullin,  P. P. Korambath,  W. Kurlancheek,  
 A. M. Lee,  M. S. Lee,  S. V. Levchenko,  Ching Yeh Lin,  D. Liotard,  
 R. C. Lochan,  I. Lotan,  P. E. Maslen,  N. Nair,  D. P. O'Neill,  
 D. Neuhauser,  E. Neuscamman,  C. M. Oana,  R. Olson,  B. Peters,  
 R. Peverati,  P. A. Pieniazek,  Y. M. Rhee,  J. Ritchie,  M. A. Rohrdanz,  
 E. Rosta,  N. J. Russ,  H. F. Schaefer III,  N. E. Schultz,  N. Shenvi,  
 A. C. Simmonett,  A. Sodt,  D. Stuck,  K. S. Thanthiriwatte,  V. Vanovschi,  
 Tao Wang,  A. Warshel,  C. F. Williams,  Q. Wu,  X. Xu,  W. Zhang

 Please cite Q-Chem as follows:
 Y. Shao et al., Mol. Phys. 113, 184-215 (2015)
 DOI: 10.1080/00268976.2014.952696

 Q-Chem 5.0.1 for Intel X86 EM64T Linux

 Parts of Q-Chem use Armadillo 5.200.1 (Boston Tea Smuggler).
 http://arma.sourceforge.net/

 Q-Chem begins on Sun Jan 14 19:34:35 2018  

Host: vega02.cac.cornell.edu
0

     Scratch files written to /scratch/jj585/SOT1001/0538r.save//
 Parallel job on  1  processors

Checking the input file for inconsistencies... 	...done.

--------------------------------------------------------------
User input:
--------------------------------------------------------------
$molecule
0  1
O -5.6064204639 2.0503393944 0.8607492942
C -5.0874795154 1.5367002522 -0.1522006426
C -5.1864696449 0.0380298406 -0.6258293551
C -3.9703147668 -0.8761766035 -0.1851644461
C -2.844596645 -0.1045182525 0.5856190312
O -1.684013958 -0.9525103606 0.7385653874
C -0.462080565 -0.2199173181 0.3297547229
C 0.7511572435 -0.7515638037 1.1885170231
O 1.8646835015 -1.2113841928 0.3272948397
C 2.7559576181 -0.1236762007 0.0429636284
C 3.9345712294 -0.6471567696 -0.8705943319
C 5.292435871 0.090243182 -0.5402528455
C 5.1699237169 1.561362807 -0.0041121669
O 5.8338202844 2.0893518033 0.9136155969
O -4.3551046235 2.2634368166 -1.1506563723
O 4.376739871 2.2973412156 -0.9473914812
O 2.6243041515 1.013258846 0.5462558358
C 4.2410768362 3.7021876397 -0.5061422064
C 4.3072753448 -2.1033426688 -0.3597771743
C 5.5118704346 -2.7019472028 -1.1910853699
C 6.7456262587 -1.9876538914 -0.5221386508
C 6.0034842018 -0.9592057166 0.4142415794
O 4.8966018775 -1.778759129 0.9658129799
H 3.6568837122 -0.5876221412 -1.938460749
H 5.8730652188 0.1793600095 -1.4782092464
H 3.4330345096 -2.7706603333 -0.2406672416
H 5.5587964336 -3.7957801073 -1.071939799
H 5.4216402212 -2.4700273625 -2.2647621896
H 7.3388832794 -2.6947234276 0.0799826868
H 7.4097051959 -1.4979135006 -1.252106114
H 6.6066431547 -0.5082450481 1.2262701412
O -2.8731998213 1.0936603407 0.9430033525
C -4.1741403658 3.6654179507 -0.7138384064
C -6.386944318 -0.6976693635 0.107213838
C -6.7100216506 -2.0361688034 -0.6653936517
C -5.5001369768 -2.9414738621 -0.2239585697
C -4.7112346212 -1.9542849858 0.7233481537
O -5.7784135247 -1.1660494437 1.3753902131
H -5.2999494028 0.0280742926 -1.7243737303
H -3.4894481374 -1.36051682 -1.0545087841
H -3.574328142 3.7204255033 0.2177120827
H -7.2559021441 -0.0454505021 0.3198596191
H -7.6712757499 -2.4541799805 -0.3265758379
H -6.7545528442 -1.886550746 -1.7560222328
H -5.8405462853 -3.823601685 0.341267715
H -4.8880911582 -3.2812780476 -1.0745397231
H -4.0615618423 -2.439452389 1.4775890826
H -5.1463876983 4.1695780406 -0.5377520466
H -3.635292722 4.1761447911 -1.5331420435
H 3.7256080059 4.2340096863 -1.327008219
H 5.2285883704 4.1709084267 -0.3179509878
H 3.632282261 3.7726779183 0.4185052455
H 1.1063999342 0.0332817351 1.8879364173
H 0.4191346022 -1.643323134 1.7588994908
H -0.5925805396 0.874447335 0.4675254931
H -0.2614974563 -0.4253273964 -0.7472344878
$end

$rem
JOBTYPE                   OPT
METHOD                    B3LYP
DFT_D                     d3_op
BASIS                     STO-3G
GEOM_OPT_MAX_CYCLES       100
GEOM_OPT_TOL_GRADIENT     300
GEOM_OPT_TOL_DISPLACEMENT 1200
GEOM_OPT_TOL_ENERGY       100
SYMMETRY                  False
THRESH                    12
SCF_CONVERGENCE           8
MAX_SUB_FILE_NUM          128
MEM_STATIC                400
MEM_TOTAL                 4000
$end
--------------------------------------------------------------
 Adding empirical dispersion correction 
 ----------------------------------------------------------------
 Doing -D3(op) with
 s6 =   1.00000
 s8 =   0.78311
 a1 =   0.30000
 a2 =   4.25000
 n  =  10.00000
 -D3 energy without 3body term =     -0.0639072214 hartrees
 ----------------------------------------------------------------
             Standard Nuclear Orientation (Angstroms)
    I     Atom           X                Y                Z
 ----------------------------------------------------------------
    1      O      -5.5929862488     2.0398114119     0.8130397547
    2      C      -5.0541925492     1.5721605500    -0.2117511857
    3      C      -5.1434895946     0.0964876540    -0.7544774035
    4      C      -3.9359351757    -0.8374421623    -0.3318912045
    5      C      -2.8257189310    -0.1020945459     0.4948426357
    6      O      -1.6681170554    -0.9568404437     0.6319656623
    7      C      -0.4386228394    -0.2072655296     0.2806518949
    8      C       0.7577330533    -0.7779203582     1.1380621226
    9      O       1.8880160756    -1.1990275101     0.2788716765
   10      C       2.7843823384    -0.1001246455     0.0614723163
   11      C       3.9807812970    -0.5825013279    -0.8515952417
   12      C       5.3317231677     0.1383869052    -0.4617788894
   13      C       5.1983452570     1.5838471001     0.1378077717
   14      O       5.8440211943     2.0694150435     1.0912654988
   15      O      -4.3026293455     2.3428324696    -1.1618303422
   16      O       4.4235599108     2.3621884737    -0.7865693534
   17      O       2.6425989500     1.0129826570     0.6129671809
   18      C       4.2789076858     3.7457398082    -0.2850114849
   19      C       4.3438229032    -2.0605126265    -0.3999280053
   20      C       5.5646103366    -2.6216696014    -1.2337330945
   21      C       6.7848510591    -1.9390918315    -0.5091930691
   22      C       6.0242553268    -0.9535613483     0.4580257350
   23      O       4.9070219132    -1.7965299779     0.9502458834
   24      H       3.7240158137    -0.4745962441    -1.9209040809
   25      H       5.9305614630     0.2694490589    -1.3832179088
   26      H       3.4676027683    -2.7319980661    -0.3282156708
   27      H       5.6094970659    -3.7197979973    -1.1632536862
   28      H       5.4953326628    -2.3414072487    -2.2973889761
   29      H       7.3664122379    -2.6730133766     0.0718379866
   30      H       7.4629452929    -1.4172664531    -1.2031566612
   31      H       6.6112936470    -0.5401289131     1.3012435385
   32      O      -2.8616348846     1.0787251030     0.9053893894
   33      C      -4.1306273996     3.7235285414    -0.6586377485
   34      C      -6.3578696545    -0.6708569251    -0.0790453571
   35      C      -6.6654075541    -1.9728735769    -0.9175291824
   36      C      -5.4641396439    -2.8979420873    -0.4938940047
   37      C      -4.6941862560    -1.9550566377     0.5123055987
   38      O      -5.7741297214    -1.1964444162     1.1783195160
   39      H      -5.2354596815     0.1362598778    -1.8543574815
   40      H      -3.4380251706    -1.2822910221    -1.2126708916
   41      H      -3.5491641906     3.7360128063     0.2859952639
   42      H      -7.2309989942    -0.0283849354     0.1458329957
   43      H      -7.6329896970    -2.4051838589    -0.6168085221
   44      H      -6.6886408414    -1.7740906470    -2.0009427015
   45      H      -5.8152965791    -3.8045059265     0.0241210129
   46      H      -4.8354821484    -3.1993306581    -1.3468359428
   47      H      -4.0592561022    -2.4742122467     1.2564041546
   48      H      -5.1062708593     4.2198083817    -0.4789857584
   49      H      -3.5759990270     4.2704328444    -1.4433288916
   50      H       3.7794460597     4.3144316025    -1.0909218658
   51      H       5.2624211401     4.2048738503    -0.0565572055
   52      H       3.6521260799     3.7747403213     0.6297980106
   53      H       1.0990133840    -0.0257036911     1.8790514610
   54      H       0.4148629778    -1.6943440102     1.6609557048
   55      H      -0.5720924479     0.8798338071     0.4651672549
   56      H      -0.2169581209    -0.3639138709    -0.8003932908
 ----------------------------------------------------------------
 Molecular Point Group                 C1    NOp =  1
 Largest Abelian Subgroup              C1    NOp =  1
 Nuclear Repulsion Energy =  2972.6817218934 hartrees
 There are      113 alpha and      113 beta electrons
 Requested basis set is STO-3G
 There are 86 shells and 176 basis functions

 Total QAlloc Memory Limit   4000 MB
 Mega-Array Size       392 MB
 MEM_STATIC part       400 MB
 A cutoff of  1.0D-12 yielded   1929 shell pairs
 There are      8949 function pairs
 
 -------------------------------------------------------
 OpenMP Integral Computing Module                       
 Release: version 1.0, May 2013, Q-Chem Inc. Pittsburgh 
 -------------------------------------------------------
 Integral Job Info:
 Integral job number is                      11
 Integral operator is                         1
 short-range coefficients                     0
 long-range coefficients              100000000
 Omega coefficients                           0
 if combine SR and LR in K                    0
 Integral screening is                        0
 Integral computing path is                   2
 max size of driver memory is            800000
 size of driver memory is                 45569
 size of scratch memory is              1046100
 max col of scratch BK array                289
 max len of scratch array in speh3           22
 max len of scratch index in speh4            8
 max int batch size is                      520
 min int batch size is                       52
 fixed nKL is                                52
 max L of basis functions is                  1
 order of int derivative is                   0
 number of shells is                         86
 number of basis is                         176
 number of cartesian basis is               176
 number of contracted shell pairs          1929
 number of primitive shell pairs          10171
 maxK2 (contraction) of shell pair            9
 max number of K2 of shell pair               1
 max number of CS2 of shell pair            285
 max number of PS2 of shell pair           1176
 mem total for path MDJ                   49782
 -------------------------------------------------------
 Smallest overlap matrix eigenvalue = 2.13E-01

 Scale SEOQF with 1.000000e-02/1.000000e-01/1.000000e-01

 Standard Electronic Orientation quadrupole field applied
 Nucleus-field energy     =     0.0000000599 hartrees
 Guess from superposition of atomic densities
 Warning:  Energy on first SCF cycle will be non-variational
 A restricted hybrid HF-DFT SCF calculation will be
 performed using Pulay DIIS extrapolation
 Exchange:     0.2000 Hartree-Fock + 0.0800 Slater + 0.7200 B88
 Correlation:  0.1900 VWN1RPA + 0.8100 LYP
 Using SG-1 standard quadrature grid
 Dispersion:   Grimme D3
 SCF converges when DIIS error is below 1.0E-08
 using 48 threads for integral computing
 -------------------------------------------------------
 OpenMP Integral computing Module                
 Release: version 1.0, May 2013, Q-Chem Inc. Pittsburgh 
 -------------------------------------------------------
 -------------------------------------------------------
 OpenMP BLAS3 based DFT computing Module                
 Release: version 1.0, May 2013, Q-Chem Inc. Pittsburgh 
 -------------------------------------------------------
 ---------------------------------------
  Cycle       Energy         DIIS Error
 ---------------------------------------
    1   -1507.5998831873      7.45E-02
    2   -1509.7230954777      1.04E-02
    3   -1507.5459462665      2.61E-02
    4   -1510.1761679550      4.35E-03
    5   -1510.2546089052      1.38E-03
    6   -1510.2628932042      3.27E-04
    7   -1510.2633146526      1.31E-04
    8   -1510.2633831010      4.02E-05
    9   -1510.2633899339      9.42E-06
   10   -1510.2633902725      4.27E-06
   11   -1510.2633903440      1.74E-06
   12   -1510.2633903570      2.61E-07
   13   -1510.2633903573      1.11E-07
   14   -1510.2633903573      6.23E-08
   15   -1510.2633903574      1.38E-08
   16   -1510.2633903573      4.52E-09 Convergence criterion met
 ---------------------------------------
 SCF time:  CPU 122.27 s  wall 2.59 s
 SCF   energy in the final basis set = -1510.26339036
 Total energy in the final basis set = -1510.26339036
 
 --------------------------------------------------------------
 
                    Orbital Energies (a.u.)
 --------------------------------------------------------------
 
 Alpha MOs
 -- Occupied --
-18.940 -18.924 -18.923 -18.921 -18.901 -18.889 -18.885 -18.884
-18.868 -18.862 -10.112 -10.105 -10.095 -10.091 -10.076 -10.074
-10.063 -10.059 -10.058 -10.058 -10.056 -10.055 -10.042 -10.042
-10.035 -10.035 -10.022 -10.022 -10.020 -10.020  -1.021  -1.017
 -1.002  -0.998  -0.971  -0.969  -0.947  -0.941  -0.928  -0.925
 -0.764  -0.763  -0.729  -0.723  -0.714  -0.705  -0.695  -0.656
 -0.655  -0.618  -0.598  -0.583  -0.547  -0.545  -0.539  -0.537
 -0.514  -0.510  -0.488  -0.478  -0.459  -0.457  -0.453  -0.450
 -0.433  -0.432  -0.424  -0.409  -0.407  -0.405  -0.402  -0.402
 -0.396  -0.389  -0.372  -0.368  -0.364  -0.358  -0.353  -0.347
 -0.341  -0.339  -0.336  -0.333  -0.332  -0.328  -0.324  -0.318
 -0.311  -0.309  -0.308  -0.303  -0.298  -0.279  -0.278  -0.277
 -0.273  -0.255  -0.251  -0.247  -0.246  -0.235  -0.234  -0.185
 -0.174  -0.172  -0.167  -0.164  -0.156  -0.147  -0.146  -0.144
 -0.142
 -- Virtual --
  0.074   0.092   0.108   0.114   0.216   0.238   0.240   0.252
  0.265   0.270   0.281   0.284   0.297   0.314   0.327   0.331
  0.333   0.338   0.342   0.347   0.352   0.353   0.362   0.371
  0.372   0.380   0.383   0.387   0.397   0.405   0.410   0.411
  0.417   0.420   0.423   0.426   0.427   0.431   0.432   0.433
  0.438   0.438   0.440   0.440   0.442   0.448   0.450   0.450
  0.466   0.466   0.486   0.488   0.492   0.504   0.511   0.534
  0.540   0.550   0.555   0.627   0.630   0.651   0.659
 --------------------------------------------------------------
 
          Ground-State Mulliken Net Atomic Charges

     Atom                 Charge (a.u.)
  ----------------------------------------
      1 O                    -0.213525
      2 C                     0.214619
      3 C                    -0.081819
      4 C                    -0.078411
      5 C                     0.219187
      6 O                    -0.186750
      7 C                    -0.051039
      8 C                    -0.051172
      9 O                    -0.171687
     10 C                     0.213198
     11 C                    -0.074424
     12 C                    -0.081128
     13 C                     0.214378
     14 O                    -0.215588
     15 O                    -0.176806
     16 O                    -0.171900
     17 O                    -0.210507
     18 C                    -0.127656
     19 C                     0.022126
     20 C                    -0.146175
     21 C                    -0.141273
     22 C                     0.021785
     23 O                    -0.192933
     24 H                     0.086955
     25 H                     0.083352
     26 H                     0.091766
     27 H                     0.078168
     28 H                     0.072734
     29 H                     0.078150
     30 H                     0.073323
     31 H                     0.090764
     32 O                    -0.191235
     33 C                    -0.128816
     34 C                     0.025795
     35 C                    -0.144412
     36 C                    -0.143488
     37 C                     0.026048
     38 O                    -0.186572
     39 H                     0.083783
     40 H                     0.085670
     41 H                     0.092534
     42 H                     0.088207
     43 H                     0.078461
     44 H                     0.073249
     45 H                     0.078719
     46 H                     0.073391
     47 H                     0.086039
     48 H                     0.086942
     49 H                     0.085797
     50 H                     0.086962
     51 H                     0.088116
     52 H                     0.091107
     53 H                     0.100614
     54 H                     0.097258
     55 H                     0.096065
     56 H                     0.082052
  ----------------------------------------
  Sum of atomic charges =    -0.000000

 -----------------------------------------------------------------
                    Cartesian Multipole Moments
 -----------------------------------------------------------------
    Charge (ESU x 10^10)
                 0.0000
    Dipole Moment (Debye)
         X       0.6511      Y      -1.5422      Z      -4.5410
       Tot       4.8398
    Quadrupole Moments (Debye-Ang)
        XX    -163.9278     XY       2.6347     YY    -153.3688
        XZ       1.8713     YZ      -1.2855     ZZ    -163.2209
    Octopole Moments (Debye-Ang^2)
       XXX      32.6350    XXY     -59.1662    XYY      -9.7533
       YYY      65.8648    XXZ    -136.3525    XYZ       3.6177
       YYZ      -9.4482    XZZ       8.5010    YZZ       1.8977
       ZZZ      15.1338
    Hexadecapole Moments (Debye-Ang^3)
      XXXX  -20879.6958   XXXY     -37.4702   XXYY   -4021.0375
      XYYY      13.0990   YYYY   -3338.7396   XXXZ      97.3098
      XXYZ     -63.3982   XYYZ     -18.1323   YYYZ     -62.3180
      XXZZ   -3781.4628   XYZZ      -0.7576   YYZZ    -734.8788
      XZZZ       1.6759   YZZZ      -9.6274   ZZZZ    -692.6793
 -----------------------------------------------------------------
 Calculating analytic gradient of the SCF energy
 Gradient of SCF Energy
            1           2           3           4           5           6
    1   0.0016275  -0.0027601   0.0023440   0.0017012  -0.0047307   0.0027902
    2  -0.0006661   0.0007502   0.0004909   0.0025053  -0.0050984   0.0039681
    3   0.0012028  -0.0011990  -0.0021451  -0.0045243   0.0074474   0.0063016
            7           8           9          10          11          12
    1  -0.0013795   0.0007371   0.0017443  -0.0021509  -0.0005470   0.0033322
    2  -0.0026729   0.0023341  -0.0023565   0.0002120   0.0063401  -0.0049883
    3  -0.0072279  -0.0002169   0.0034435  -0.0028188  -0.0084917   0.0078415
           13          14          15          16          17          18
    1  -0.0082528   0.0056375  -0.0000059   0.0000920   0.0000934  -0.0000341
    2  -0.0029151   0.0026149   0.0000066   0.0000492  -0.0000721  -0.0001144
    3   0.0054132  -0.0051932  -0.0000283  -0.0000373  -0.0000385   0.0000069
           19          20          21          22          23          24
    1   0.0000312   0.0000498   0.0000005  -0.0001753   0.0000930  -0.0000707
    2   0.0000680  -0.0001060   0.0000663  -0.0000003   0.0000901  -0.0000565
    3   0.0001153   0.0000715  -0.0001193   0.0000413  -0.0001033   0.0000236
           25          26          27          28          29          30
    1  -0.0001403  -0.0000346  -0.0000145   0.0000486   0.0000255   0.0000047
    2  -0.0001018  -0.0000460  -0.0000015  -0.0000652  -0.0000132  -0.0000009
    3   0.0001122   0.0000413  -0.0000392  -0.0000604   0.0000319   0.0001017
           31          32          33          34          35          36
    1   0.0000285  -0.0000184  -0.0000141   0.0001991  -0.0001150   0.0000161
    2   0.0000563  -0.0001357  -0.0000894   0.0001664  -0.0001320   0.0002146
    3  -0.0000451   0.0000109   0.0000126  -0.0000878   0.0000204  -0.0001678
           37          38          39          40          41          42
    1  -0.0001386   0.0000620   0.0000090  -0.0000147  -0.0000045   0.0000065
    2  -0.0004148   0.0001490  -0.0000459  -0.0001101   0.0000237  -0.0000168
    3   0.0001460   0.0000992   0.0000193   0.0000125  -0.0000009   0.0000030
           43          44          45          46          47          48
    1  -0.0000348   0.0000061   0.0000094  -0.0000077  -0.0000087  -0.0000101
    2  -0.0000718   0.0000155  -0.0000009   0.0000626   0.0000288   0.0000189
    3  -0.0000231  -0.0000184   0.0000073   0.0000552   0.0000243  -0.0000118
           49          50          51          52          53          54
    1   0.0000068  -0.0000264   0.0000029   0.0000128  -0.0000702   0.0000188
    2   0.0000155   0.0000198   0.0000358   0.0000406  -0.0000212  -0.0000076
    3  -0.0000345  -0.0000137  -0.0000285   0.0000230   0.0000604  -0.0000005
           55          56
    1   0.0000469  -0.0000180
    2   0.0000015  -0.0000238
    3   0.0000100  -0.0000245
 Max gradient component =       8.492E-03
 RMS gradient           =       2.047E-03
 Gradient time:  CPU 30.43 s  wall 0.65 s
 Geometry Optimization Parameters
   NAtoms,    NIC,     NZ,  NCons,   NDum,   NFix, NCnnct, MaxDiis
       56     458       0       0       0       0       0       0


** GEOMETRY OPTIMIZATION IN DELOCALIZED INTERNAL COORDINATES **
   Searching for a Minimum

   Optimization Cycle:   1

                       Coordinates (Angstroms)
     ATOM                X               Y               Z
      1  O        -5.5929862488    2.0398114119    0.8130397547
      2  C        -5.0541925492    1.5721605500   -0.2117511857
      3  C        -5.1434895946    0.0964876540   -0.7544774035
      4  C        -3.9359351757   -0.8374421623   -0.3318912045
      5  C        -2.8257189310   -0.1020945459    0.4948426357
      6  O        -1.6681170554   -0.9568404437    0.6319656623
      7  C        -0.4386228394   -0.2072655296    0.2806518949
      8  C         0.7577330533   -0.7779203582    1.1380621226
      9  O         1.8880160756   -1.1990275101    0.2788716765
     10  C         2.7843823384   -0.1001246455    0.0614723163
     11  C         3.9807812970   -0.5825013279   -0.8515952417
     12  C         5.3317231677    0.1383869052   -0.4617788894
     13  C         5.1983452570    1.5838471001    0.1378077717
     14  O         5.8440211943    2.0694150435    1.0912654988
     15  O        -4.3026293455    2.3428324696   -1.1618303422
     16  O         4.4235599108    2.3621884737   -0.7865693534
     17  O         2.6425989500    1.0129826570    0.6129671809
     18  C         4.2789076858    3.7457398082   -0.2850114849
     19  C         4.3438229032   -2.0605126265   -0.3999280053
     20  C         5.5646103366   -2.6216696014   -1.2337330945
     21  C         6.7848510591   -1.9390918315   -0.5091930691
     22  C         6.0242553268   -0.9535613483    0.4580257350
     23  O         4.9070219132   -1.7965299779    0.9502458834
     24  H         3.7240158137   -0.4745962441   -1.9209040809
     25  H         5.9305614630    0.2694490589   -1.3832179088
     26  H         3.4676027683   -2.7319980661   -0.3282156708
     27  H         5.6094970659   -3.7197979973   -1.1632536862
     28  H         5.4953326628   -2.3414072487   -2.2973889761
     29  H         7.3664122379   -2.6730133766    0.0718379866
     30  H         7.4629452929   -1.4172664531   -1.2031566612
     31  H         6.6112936470   -0.5401289131    1.3012435385
     32  O        -2.8616348846    1.0787251030    0.9053893894
     33  C        -4.1306273996    3.7235285414   -0.6586377485
     34  C        -6.3578696545   -0.6708569251   -0.0790453571
     35  C        -6.6654075541   -1.9728735769   -0.9175291824
     36  C        -5.4641396439   -2.8979420873   -0.4938940047
     37  C        -4.6941862560   -1.9550566377    0.5123055987
     38  O        -5.7741297214   -1.1964444162    1.1783195160
     39  H        -5.2354596815    0.1362598778   -1.8543574815
     40  H        -3.4380251706   -1.2822910221   -1.2126708916
     41  H        -3.5491641906    3.7360128063    0.2859952639
     42  H        -7.2309989942   -0.0283849354    0.1458329957
     43  H        -7.6329896970   -2.4051838589   -0.6168085221
     44  H        -6.6886408414   -1.7740906470   -2.0009427015
     45  H        -5.8152965791   -3.8045059265    0.0241210129
     46  H        -4.8354821484   -3.1993306581   -1.3468359428
     47  H        -4.0592561022   -2.4742122467    1.2564041546
     48  H        -5.1062708593    4.2198083817   -0.4789857584
     49  H        -3.5759990270    4.2704328444   -1.4433288916
     50  H         3.7794460597    4.3144316025   -1.0909218658
     51  H         5.2624211401    4.2048738503   -0.0565572055
     52  H         3.6521260799    3.7747403213    0.6297980106
     53  H         1.0990133840   -0.0257036911    1.8790514610
     54  H         0.4148629778   -1.6943440102    1.6609557048
     55  H        -0.5720924479    0.8798338071    0.4651672549
     56  H        -0.2169581209   -0.3639138709   -0.8003932908
   Point Group: c1    Number of degrees of freedom:   162


   Energy is  -1510.263390357


 Attempting to Generate Delocalized Internal Coordinates

162 Hessian modes will be used to form the next step
  Hessian Eigenvalues:
     0.002000    0.002000    0.002000    0.002000    0.002000    0.002680
     0.002881    0.004047    0.004269    0.004324    0.004771    0.004943
     0.005121    0.005228    0.005929    0.006781    0.006804    0.009628
     0.010914    0.010953    0.011057    0.021314    0.021702    0.025290
     0.026152    0.030550    0.030833    0.035066    0.035468    0.037821
     0.041017    0.041730    0.041998    0.044892    0.045877    0.047400
     0.047544    0.048172    0.050389    0.050849    0.051106    0.053260
     0.053777    0.054493    0.054706    0.055013    0.056512    0.057074
     0.057598    0.058505    0.060395    0.060606    0.061619    0.062833
     0.063959    0.064004    0.064801    0.070023    0.070463    0.072955
     0.073741    0.090118    0.092489    0.092595    0.092965    0.095637
     0.096999    0.097077    0.097870    0.102630    0.102770    0.109017
     0.110302    0.111533    0.112997    0.121513    0.122820    0.135416
     0.137676    0.156851    0.157662    0.160000    0.160000    0.160000
     0.160000    0.160000    0.160000    0.163709    0.164530    0.218840
     0.219097    0.220167    0.221156    0.228552    0.229955    0.238422
     0.238508    0.239758    0.239903    0.245444    0.245533    0.246490
     0.249358    0.249388    0.249577    0.250000    0.250000    0.250000
     0.250000    0.250000    0.250000    0.250000    0.250000    0.252179
     0.253381    0.253472    0.253537    0.256423    0.259748    0.262217
     0.289190    0.292829    0.304553    0.307855    0.321178    0.325265
     0.326350    0.326616    0.326723    0.326730    0.326789    0.326863
     0.328661    0.328765    0.329078    0.329495    0.329999    0.330652
     0.330697    0.331081    0.331367    0.331964    0.334467    0.334596
     0.334900    0.334970    0.335042    0.335049    0.335065    0.335384
     0.343180    0.344662    0.346196    0.347132    0.388422    0.401715
     0.402130    0.403234    0.829900    0.831251    0.833470    0.837278

 Minimum Search - Taking Simple RFO Step
 Searching for Lamda that Minimizes Along All modes
 Value Taken    Lamda =  -0.01820600
 Calculated Step too Large.  Step scaled by  0.351641
 Step Taken.  Stepsize is  0.300000

                             Maximum     Tolerance    Cnvgd?
         Gradient           0.006711      0.000300      NO
         Displacement       0.097744      0.001200      NO
         Energy change     *********      0.000001      NO


 New Cartesian Coordinates Obtained by Inverse Iteration

 Displacement from previous Coordinates is:  2.595324
 Adding empirical dispersion correction 
 ----------------------------------------------------------------
 Doing -D3(op) with
 s6 =   1.00000
 s8 =   0.78311
 a1 =   0.30000
 a2 =   4.25000
 n  =  10.00000
 -D3 energy without 3body term =     -0.0638437232 hartrees
 ----------------------------------------------------------------
             Standard Nuclear Orientation (Angstroms)
    I     Atom           X                Y                Z
 ----------------------------------------------------------------
    1      O      -5.5087927250     2.1142490368     0.7764396913
    2      C      -5.0650731900     1.5976650792    -0.2701853260
    3      C      -5.2236952369     0.1046301813    -0.7453674321
    4      C      -3.9877936671    -0.8292503010    -0.4148144290
    5      C      -2.7931799308    -0.0807007706     0.2702255140
    6      O      -1.6598769801    -0.9696656950     0.3914750706
    7      C      -0.4016927168    -0.2261555240     0.1445533878
    8      C       0.7469051717    -0.8892296022     1.0007804052
    9      O       1.9064384129    -1.2601188317     0.1576140601
   10      C       2.8221995107    -0.1600798332     0.0599311369
   11      C       4.0439075371    -0.5824009010    -0.8494013940
   12      C       5.3718995505     0.1525097173    -0.4101771775
   13      C       5.1940324160     1.5642964718     0.2545020748
   14      O       5.7565760014     1.9948590563     1.2840329764
   15      O      -4.4012740270     2.3210651227    -1.3178069042
   16      O       4.4375584834     2.3791163713    -0.6534665717
   17      O       2.6546450549     0.9215480989     0.6643440712
   18      C       4.2237585394     3.7209447212    -0.0699378295
   19      C       4.4289425193    -2.0706921583    -0.4567192177
   20      C       5.6760667022    -2.5694125938    -1.2910453009
   21      C       6.8680870355    -1.8925345565    -0.5157867451
   22      C       6.0689130143    -0.9646496400     0.4770750956
   23      O       4.9623279208    -1.8518828419     0.9130992740
   24      H       3.8040449098    -0.4302634421    -1.9172608506
   25      H       5.9886452059     0.3359338749    -1.3107480248
   26      H       3.5660468161    -2.7623632041    -0.4297144140
   27      H       5.7438071286    -3.6683540149    -1.2663494470
   28      H       5.6192582705    -2.2452678485    -2.3428808500
   29      H       7.4549163867    -2.6380367887     0.0448088446
   30      H       7.5469744229    -1.3277803396    -1.1745212629
   31      H       6.6312869517    -0.5755015668     1.3482010210
   32      O      -2.7875843007     1.1019384731     0.6771343094
   33      C      -4.1738565246     3.7193690062    -0.8910040993
   34      C      -6.3710492061    -0.6226792770     0.0755731686
   35      C      -6.7735213960    -1.9491751141    -0.6801701640
   36      C      -5.5441978984    -2.8743097933    -0.3464840456
   37      C      -4.6675374998    -1.9063172990     0.5416665596
   38      O      -5.6677160053    -1.1114530199     1.2855815178
   39      H      -5.4247307408     0.1068967982    -1.8313623260
   40      H      -3.5855430255    -1.3115914575    -1.3242581697
   41      H      -3.5060218131     3.7644433831    -0.0063897102
   42      H      -7.2110031563     0.0384385956     0.3638619080
   43      H      -7.7096808875    -2.3580729033    -0.2679945140
   44      H      -6.9043921014    -1.7883037655    -1.7622081000
   45      H      -5.8495067244    -3.7573602942     0.2370572817
   46      H      -5.0080689610    -3.2138569931    -1.2469848151
   47      H      -3.9653861809    -2.4072057723     1.2362459945
   48      H      -5.1250734585     4.2325700301    -0.6415267107
   49      H      -3.6920135962     4.2279490959    -1.7463379415
   50      H       3.7442866341     4.3272702778    -0.8603871706
   51      H       5.1796953142     4.1928265045     0.2363138407
   52      H       3.5539381028     3.6696030462     0.8128168969
   53      H       1.0696848195    -0.2043404116     1.8120180883
   54      H       0.3673897202    -1.8368911521     1.4351914117
   55      H      -0.5201415251     0.8464207174     0.4076109859
   56      H      -0.1399887295    -0.3046224034    -0.9360287252
 ----------------------------------------------------------------
 Molecular Point Group                 C1    NOp =  1
 Largest Abelian Subgroup              C1    NOp =  1
 Nuclear Repulsion Energy =  2970.1064957995 hartrees
 There are      113 alpha and      113 beta electrons
 Applying Cartesian multipole field
    Component          Value
    ---------          -----
     (2,0,0)        1.00000E-12
     (0,2,0)        2.00000E-11
     (0,0,2)       -3.00000E-11
 Nucleus-field energy     =     0.0000000598 hartrees
 Requested basis set is STO-3G
 There are 86 shells and 176 basis functions
 A cutoff of  1.0D-12 yielded   1929 shell pairs
 There are      8952 function pairs
 Smallest overlap matrix eigenvalue = 2.13E-01
 Guess MOs from SCF MO coefficient file
 Reading MOs from coefficient file
 Reading MOs from coefficient file
 A restricted hybrid HF-DFT SCF calculation will be
 performed using Pulay DIIS extrapolation
 Exchange:     0.2000 Hartree-Fock + 0.0800 Slater + 0.7200 B88
 Correlation:  0.1900 VWN1RPA + 0.8100 LYP
 Using SG-1 standard quadrature grid
 Dispersion:   Grimme D3
 SCF converges when DIIS error is below 1.0E-08
 Geometry optimization detected.  Setting ReadMinima to 0
 Setting SaveMinima to 0
 using 48 threads for integral computing
 -------------------------------------------------------
 OpenMP Integral computing Module                
 Release: version 1.0, May 2013, Q-Chem Inc. Pittsburgh 
 -------------------------------------------------------
 -------------------------------------------------------
 OpenMP BLAS3 based DFT computing Module                
 Release: version 1.0, May 2013, Q-Chem Inc. Pittsburgh 
 -------------------------------------------------------
 ---------------------------------------
  Cycle       Energy         DIIS Error
 ---------------------------------------
    1   -1510.1719558563      4.46E-03
    2   -1510.2679622277      3.76E-04
    3   -1510.2680217963      4.64E-04
    4   -1510.2688694486      1.80E-04
    5   -1510.2689899504      7.60E-05
    6   -1510.2690157552      1.63E-05
    7   -1510.2690170899      3.27E-06
    8   -1510.2690171231      2.48E-06
    9   -1510.2690171498      6.41E-07
   10   -1510.2690171518      2.26E-07
   11   -1510.2690171521      5.26E-08
   12   -1510.2690171521      3.29E-08
   13   -1510.2690171521      1.45E-08
   14   -1510.2690171522      1.99E-09 Convergence criterion met
 ---------------------------------------
 SCF time:  CPU 97.13 s  wall 2.03 s
 SCF   energy in the final basis set = -1510.26901715
 Total energy in the final basis set = -1510.26901715
 
 --------------------------------------------------------------
 
                    Orbital Energies (a.u.)
 --------------------------------------------------------------
 
 Alpha MOs
 -- Occupied --
-18.940 -18.929 -18.923 -18.920 -18.897 -18.889 -18.885 -18.884
-18.868 -18.862 -10.110 -10.106 -10.095 -10.090 -10.076 -10.075
-10.063 -10.059 -10.058 -10.058 -10.056 -10.055 -10.043 -10.042
-10.035 -10.034 -10.022 -10.022 -10.020 -10.020  -1.021  -1.017
 -1.002  -0.998  -0.971  -0.970  -0.947  -0.941  -0.928  -0.924
 -0.764  -0.763  -0.729  -0.723  -0.714  -0.705  -0.695  -0.656
 -0.655  -0.618  -0.598  -0.582  -0.547  -0.545  -0.538  -0.538
 -0.514  -0.510  -0.488  -0.478  -0.459  -0.457  -0.453  -0.451
 -0.433  -0.432  -0.424  -0.409  -0.407  -0.405  -0.402  -0.402
 -0.395  -0.389  -0.372  -0.367  -0.364  -0.358  -0.352  -0.346
 -0.341  -0.338  -0.336  -0.333  -0.332  -0.328  -0.323  -0.318
 -0.311  -0.309  -0.307  -0.303  -0.298  -0.279  -0.278  -0.277
 -0.273  -0.256  -0.253  -0.247  -0.245  -0.235  -0.234  -0.185
 -0.176  -0.171  -0.167  -0.163  -0.157  -0.147  -0.145  -0.144
 -0.142
 -- Virtual --
  0.079   0.093   0.110   0.114   0.214   0.238   0.241   0.250
  0.265   0.271   0.281   0.285   0.298   0.315   0.327   0.331
  0.333   0.338   0.342   0.348   0.352   0.353   0.362   0.370
  0.372   0.380   0.383   0.388   0.397   0.405   0.411   0.411
  0.417   0.419   0.423   0.426   0.427   0.431   0.432   0.433
  0.438   0.438   0.440   0.440   0.443   0.447   0.450   0.450
  0.466   0.466   0.486   0.488   0.492   0.504   0.511   0.534
  0.540   0.551   0.555   0.629   0.630   0.651   0.659
 --------------------------------------------------------------
 
          Ground-State Mulliken Net Atomic Charges

     Atom                 Charge (a.u.)
  ----------------------------------------
      1 O                    -0.213744
      2 C                     0.214818
      3 C                    -0.081579
      4 C                    -0.078436
      5 C                     0.216977
      6 O                    -0.182160
      7 C                    -0.052219
      8 C                    -0.050946
      9 O                    -0.171962
     10 C                     0.213775
     11 C                    -0.074149
     12 C                    -0.081367
     13 C                     0.214460
     14 O                    -0.215571
     15 O                    -0.176740
     16 O                    -0.172594
     17 O                    -0.210345
     18 C                    -0.127654
     19 C                     0.022137
     20 C                    -0.146040
     21 C                    -0.141303
     22 C                     0.021818
     23 O                    -0.192977
     24 H                     0.087197
     25 H                     0.083003
     26 H                     0.091417
     27 H                     0.078219
     28 H                     0.072909
     29 H                     0.078137
     30 H                     0.073271
     31 H                     0.090744
     32 O                    -0.195166
     33 C                    -0.128775
     34 C                     0.025765
     35 C                    -0.144437
     36 C                    -0.143375
     37 C                     0.025925
     38 O                    -0.186676
     39 H                     0.083882
     40 H                     0.085555
     41 H                     0.092302
     42 H                     0.088380
     43 H                     0.078451
     44 H                     0.073313
     45 H                     0.078738
     46 H                     0.073491
     47 H                     0.086090
     48 H                     0.086925
     49 H                     0.085764
     50 H                     0.086865
     51 H                     0.088046
     52 H                     0.091575
     53 H                     0.100438
     54 H                     0.096848
     55 H                     0.098172
     56 H                     0.082806
  ----------------------------------------
  Sum of atomic charges =    -0.000000

 -----------------------------------------------------------------
                    Cartesian Multipole Moments
 -----------------------------------------------------------------
    Charge (ESU x 10^10)
                -0.0000
    Dipole Moment (Debye)
         X       0.5327      Y      -1.5798      Z      -4.5165
       Tot       4.8144
    Quadrupole Moments (Debye-Ang)
        XX    -160.4229     XY       3.7597     YY    -153.5188
        XZ       0.9609     YZ      -1.7488     ZZ    -163.7951
    Octopole Moments (Debye-Ang^2)
       XXX      16.9007    XXY     -57.6779    XYY     -10.1619
       YYY      66.5232    XXZ    -130.6804    XYZ       6.3530
       YYZ      -7.9632    XZZ       5.4464    YZZ       1.6588
       ZZZ      17.3837
    Hexadecapole Moments (Debye-Ang^3)
      XXXX  -20859.6834   XXXY      57.5848   XXYY   -4051.6113
      XYYY      73.1866   YYYY   -3312.2727   XXXZ       5.1071
      XXYZ     -60.4777   XYYZ     -19.4069   YYYZ     -51.2870
      XXZZ   -3833.9935   XYZZ      11.0643   YYZZ    -726.2934
      XZZZ     -40.5966   YZZZ      -0.9536   ZZZZ    -688.5383
 -----------------------------------------------------------------
 Calculating analytic gradient of the SCF energy
 Gradient of SCF Energy
            1           2           3           4           5           6
    1   0.0014326  -0.0019818   0.0012937  -0.0013869  -0.0015814   0.0040419
    2  -0.0002067   0.0001722   0.0005174   0.0017570  -0.0006932   0.0010093
    3   0.0006810  -0.0005408  -0.0016371  -0.0019773  -0.0019693   0.0094649
            7           8           9          10          11          12
    1  -0.0024145   0.0008437   0.0001955  -0.0001304  -0.0007341   0.0018576
    2  -0.0018377   0.0013999  -0.0015292  -0.0006142   0.0052883  -0.0044905
    3  -0.0067488  -0.0002734   0.0027592   0.0003384  -0.0072260   0.0066287
           13          14          15          16          17          18
    1  -0.0041395   0.0044493  -0.0003998  -0.0010724  -0.0010690  -0.0001686
    2  -0.0018323   0.0023448   0.0000973   0.0002863   0.0002166  -0.0001688
    3   0.0011872  -0.0027051  -0.0001751   0.0005220  -0.0010442   0.0000213
           19          20          21          22          23          24
    1  -0.0000195   0.0000755   0.0000233  -0.0007283  -0.0002584   0.0005086
    2  -0.0007786   0.0001753   0.0000295  -0.0000955  -0.0001490   0.0003687
    3  -0.0000885   0.0000611  -0.0002163  -0.0001034  -0.0003762   0.0001155
           25          26          27          28          29          30
    1   0.0005508   0.0001772  -0.0000451   0.0001347   0.0000232   0.0000597
    2   0.0001408  -0.0000097   0.0000015  -0.0001587  -0.0000031  -0.0000095
    3   0.0004887   0.0000429  -0.0000059  -0.0000774   0.0000037   0.0002358
           31          32          33          34          35          36
    1   0.0000610  -0.0008445  -0.0000285  -0.0003996   0.0001050  -0.0000470
    2   0.0000928  -0.0017897   0.0000801  -0.0001095  -0.0000995  -0.0001603
    3  -0.0000926   0.0034439  -0.0000538   0.0000716  -0.0002006   0.0003245
           37          38          39          40          41          42
    1  -0.0002224   0.0000421   0.0001983   0.0008171  -0.0000214  -0.0000608
    2   0.0000876   0.0000739  -0.0000335   0.0002438  -0.0000179  -0.0000227
    3  -0.0007413  -0.0000802  -0.0000678   0.0002800  -0.0000174   0.0000559
           43          44          45          46          47          48
    1   0.0000461  -0.0000004  -0.0000193  -0.0000752  -0.0000095   0.0000083
    2   0.0001379  -0.0000432  -0.0000413  -0.0001980  -0.0000089   0.0000195
    3   0.0000831   0.0000643  -0.0000445  -0.0000317  -0.0000673  -0.0000241
           49          50          51          52          53          54
    1  -0.0000304  -0.0000391   0.0000472   0.0000033   0.0001948  -0.0001549
    2  -0.0000241   0.0000127  -0.0000059   0.0001690   0.0001115   0.0001404
    3  -0.0000058   0.0000006  -0.0000322  -0.0000709  -0.0000307   0.0001132
           55          56
    1   0.0007245   0.0001678
    2   0.0000863   0.0000710
    3   0.0001050  -0.0003666
 Max gradient component =       9.465E-03
 RMS gradient           =       1.600E-03
 Gradient time:  CPU 28.45 s  wall 0.61 s
 Geometry Optimization Parameters
   NAtoms,    NIC,     NZ,  NCons,   NDum,   NFix, NCnnct, MaxDiis
       56     458       0       0       0       0       0       0

 Cartesian Hessian Update
 Hessian Updated using BFGS Update


** GEOMETRY OPTIMIZATION IN DELOCALIZED INTERNAL COORDINATES **
   Searching for a Minimum

   Optimization Cycle:   2

                       Coordinates (Angstroms)
     ATOM                X               Y               Z
      1  O        -5.5087927250    2.1142490368    0.7764396913
      2  C        -5.0650731900    1.5976650792   -0.2701853260
      3  C        -5.2236952369    0.1046301813   -0.7453674321
      4  C        -3.9877936671   -0.8292503010   -0.4148144290
      5  C        -2.7931799308   -0.0807007706    0.2702255140
      6  O        -1.6598769801   -0.9696656950    0.3914750706
      7  C        -0.4016927168   -0.2261555240    0.1445533878
      8  C         0.7469051717   -0.8892296022    1.0007804052
      9  O         1.9064384129   -1.2601188317    0.1576140601
     10  C         2.8221995107   -0.1600798332    0.0599311369
     11  C         4.0439075371   -0.5824009010   -0.8494013940
     12  C         5.3718995505    0.1525097173   -0.4101771775
     13  C         5.1940324160    1.5642964718    0.2545020748
     14  O         5.7565760014    1.9948590563    1.2840329764
     15  O        -4.4012740270    2.3210651227   -1.3178069042
     16  O         4.4375584834    2.3791163713   -0.6534665717
     17  O         2.6546450549    0.9215480989    0.6643440712
     18  C         4.2237585394    3.7209447212   -0.0699378295
     19  C         4.4289425193   -2.0706921583   -0.4567192177
     20  C         5.6760667022   -2.5694125938   -1.2910453009
     21  C         6.8680870355   -1.8925345565   -0.5157867451
     22  C         6.0689130143   -0.9646496400    0.4770750956
     23  O         4.9623279208   -1.8518828419    0.9130992740
     24  H         3.8040449098   -0.4302634421   -1.9172608506
     25  H         5.9886452059    0.3359338749   -1.3107480248
     26  H         3.5660468161   -2.7623632041   -0.4297144140
     27  H         5.7438071286   -3.6683540149   -1.2663494470
     28  H         5.6192582705   -2.2452678485   -2.3428808500
     29  H         7.4549163867   -2.6380367887    0.0448088446
     30  H         7.5469744229   -1.3277803396   -1.1745212629
     31  H         6.6312869517   -0.5755015668    1.3482010210
     32  O        -2.7875843007    1.1019384731    0.6771343094
     33  C        -4.1738565246    3.7193690062   -0.8910040993
     34  C        -6.3710492061   -0.6226792770    0.0755731686
     35  C        -6.7735213960   -1.9491751141   -0.6801701640
     36  C        -5.5441978984   -2.8743097933   -0.3464840456
     37  C        -4.6675374998   -1.9063172990    0.5416665596
     38  O        -5.6677160053   -1.1114530199    1.2855815178
     39  H        -5.4247307408    0.1068967982   -1.8313623260
     40  H        -3.5855430255   -1.3115914575   -1.3242581697
     41  H        -3.5060218131    3.7644433831   -0.0063897102
     42  H        -7.2110031563    0.0384385956    0.3638619080
     43  H        -7.7096808875   -2.3580729033   -0.2679945140
     44  H        -6.9043921014   -1.7883037655   -1.7622081000
     45  H        -5.8495067244   -3.7573602942    0.2370572817
     46  H        -5.0080689610   -3.2138569931   -1.2469848151
     47  H        -3.9653861809   -2.4072057723    1.2362459945
     48  H        -5.1250734585    4.2325700301   -0.6415267107
     49  H        -3.6920135962    4.2279490959   -1.7463379415
     50  H         3.7442866341    4.3272702778   -0.8603871706
     51  H         5.1796953142    4.1928265045    0.2363138407
     52  H         3.5539381028    3.6696030462    0.8128168969
     53  H         1.0696848195   -0.2043404116    1.8120180883
     54  H         0.3673897202   -1.8368911521    1.4351914117
     55  H        -0.5201415251    0.8464207174    0.4076109859
     56  H        -0.1399887295   -0.3046224034   -0.9360287252
   Point Group: c1    Number of degrees of freedom:   162


   Energy is  -1510.269017152

 Hessian Updated using BFGS Update

149 Hessian modes will be used to form the next step
  Hessian Eigenvalues:
     0.001679    0.002013    0.002680    0.002861    0.003704    0.004267
     0.004345    0.004775    0.004974    0.005121    0.005228    0.005858
     0.006779    0.006801    0.010909    0.010953    0.011032    0.021274
     0.021697    0.024932    0.025817    0.029908    0.030819    0.031316
     0.035223    0.035580    0.037374    0.041010    0.041718    0.041991
     0.044191    0.045817    0.047317    0.047606    0.048480    0.050374
     0.050902    0.051214    0.053303    0.053869    0.054509    0.054739
     0.055630    0.056506    0.057097    0.057631    0.059163    0.060388
     0.060605    0.062511    0.062849    0.063961    0.064069    0.064805
     0.070061    0.070548    0.072960    0.073847    0.090112    0.092491
     0.092645    0.093241    0.096139    0.096999    0.097083    0.098091
     0.102630    0.102770    0.109278    0.110428    0.112324    0.112998
     0.121578    0.122818    0.135569    0.137856    0.156783    0.158372
     0.159999    0.160045    0.163795    0.165554    0.218225    0.219095
     0.220421    0.221620    0.228944    0.230668    0.238432    0.238492
     0.239809    0.239934    0.245427    0.245533    0.246491    0.249333
     0.249462    0.249576    0.249957    0.251791    0.253380    0.253469
     0.253523    0.256423    0.257709    0.259928    0.265338    0.289502
     0.292915    0.304551    0.307856    0.321284    0.325266    0.326357
     0.326617    0.326723    0.326735    0.326790    0.326864    0.328661
     0.328767    0.329080    0.329498    0.330025    0.330654    0.330697
     0.331084    0.331388    0.331966    0.334467    0.334596    0.334905
     0.334971    0.335045    0.335064    0.335067    0.335384    0.343185
     0.344708    0.346198    0.347132    0.392954    0.401716    0.402364
     0.403474    0.830023    0.831253    0.833731    0.837281

 Minimum Search - Taking Simple RFO Step
 Searching for Lamda that Minimizes Along All modes
 Value Taken    Lamda =  -0.01544949
 Calculated Step too Large.  Step scaled by  0.332497
 Step Taken.  Stepsize is  0.300000

                             Maximum     Tolerance    Cnvgd?
         Gradient           0.006072      0.000300      NO
         Displacement       0.089465      0.001200      NO
         Energy change     -0.005627      0.000001      NO


 New Cartesian Coordinates Obtained by Inverse Iteration

 Displacement from previous Coordinates is:  2.698639
 Adding empirical dispersion correction 
 ----------------------------------------------------------------
 Doing -D3(op) with
 s6 =   1.00000
 s8 =   0.78311
 a1 =   0.30000
 a2 =   4.25000
 n  =  10.00000
 -D3 energy without 3body term =     -0.0639166642 hartrees
 ----------------------------------------------------------------
             Standard Nuclear Orientation (Angstroms)
    I     Atom           X                Y                Z
 ----------------------------------------------------------------
    1      O      -5.3873303709     2.1993010584     0.6894851289
    2      C      -5.0268968808     1.6152388913    -0.3536553737
    3      C      -5.2631065821     0.1064403653    -0.7381332651
    4      C      -4.0293553338    -0.8452089514    -0.4579484210
    5      C      -2.7712314682    -0.0945257044     0.0950099250
    6      O      -1.6575927770    -1.0093233292     0.1754322293
    7      C      -0.3811991206    -0.2699499602     0.0307345036
    8      C       0.7313681784    -1.0242991990     0.8580863856
    9      O       1.9152375941    -1.3257954899     0.0207807485
   10      C       2.8299622817    -0.2212226608     0.0404819214
   11      C       4.0795822976    -0.5700941544    -0.8594725638
   12      C       5.3748966547     0.1825092210    -0.3597177325
   13      C       5.1322050265     1.5423934172     0.3866140516
   14      O       5.6136282470     1.9048508488     1.4811872935
   15      O      -4.4082225344     2.2608610463    -1.4769454400
   16      O       4.4069351139     2.4025813409    -0.5042135180
   17      O       2.6382398420     0.8129506698     0.7166561790
   18      C       4.1219241643     3.6920938618     0.1610964356
   19      C       4.4958998039    -2.0648501901    -0.5369119390
   20      C       5.7721645201    -2.4849566100    -1.3700146040
   21      C       6.9292732030    -1.8150057194    -0.5373777719
   22      C       6.0847138991    -0.9616362072     0.4845674831
   23      O       4.9967665465    -1.9013568626     0.8525354160
   24      H       3.8567397361    -0.3650336155    -1.9223173007
   25      H       6.0086060534     0.4332154275    -1.2319479257
   26      H       3.6518108330    -2.7795600027    -0.5629919307
   27      H       5.8713417973    -3.5813762149    -1.4001800110
   28      H       5.7252634084    -2.1081579021    -2.4046232842
   29      H       7.5268274820    -2.5715373317    -0.0035605180
   30      H       7.6034759066    -1.1985537442    -1.1533574880
   31      H       6.6173913556    -0.6030810856     1.3869421134
   32      O      -2.7045486544     1.1092881152     0.4284466041
   33      C      -4.1071744123     3.6692173812    -1.1379135182
   34      C      -6.3612145493    -0.5448029444     0.2038531779
   35      C      -6.8537819529    -1.8950739291    -0.4492627242
   36      C      -5.6248793016    -2.8367745646    -0.1632134309
   37      C      -4.6584728146    -1.8516647737     0.6047169791
   38      O      -5.5782665937    -0.9925531099     1.3804057538
   39      H      -5.5464672072     0.0615544589    -1.8046428692
   40      H      -3.7135357731    -1.3854222112    -1.3690172033
   41      H      -3.3824529227     3.7334320605    -0.3004949181
   42      H      -7.1592490019     0.1541183593     0.5205008704
   43      H      -7.7649166294    -2.2569118126     0.0532295590
   44      H      -7.0640052593    -1.7842150043    -1.5251120294
   45      H      -5.9052302421    -3.6811427299     0.4863551604
   46      H      -5.1681078198    -3.2345772191    -1.0833475193
   47      H      -3.9168540683    -2.3368622303     1.2688165697
   48      H      -5.0226935763     4.2284245283    -0.8558884555
   49      H      -3.6648379978     4.1171331018    -2.0468557837
   50      H       3.6714501724     4.3434284090    -0.6103530534
   51      H       5.0446476333     4.1631440284     0.5572043922
   52      H       3.4043230163     3.5584624098     0.9964765492
   53      H       1.0336821412    -0.4181743757     1.7369387230
   54      H       0.3314366936    -2.0032565880     1.1935651749
   55      H      -0.4969617418     0.7766111280     0.3841419897
   56      H      -0.0873676677    -0.2562701508    -1.0439558072
 ----------------------------------------------------------------
 Molecular Point Group                 C1    NOp =  1
 Largest Abelian Subgroup              C1    NOp =  1
 Nuclear Repulsion Energy =  2973.6425727013 hartrees
 There are      113 alpha and      113 beta electrons
 Applying Cartesian multipole field
    Component          Value
    ---------          -----
     (2,0,0)        1.00000E-12
     (0,2,0)        2.00000E-11
     (0,0,2)       -3.00000E-11
 Nucleus-field energy     =     0.0000000578 hartrees
 Requested basis set is STO-3G
 There are 86 shells and 176 basis functions
 A cutoff of  1.0D-12 yielded   1930 shell pairs
 There are      8944 function pairs
 Smallest overlap matrix eigenvalue = 2.13E-01
 Guess MOs from SCF MO coefficient file
 Reading MOs from coefficient file
 Reading MOs from coefficient file
 A restricted hybrid HF-DFT SCF calculation will be
 performed using Pulay DIIS extrapolation
 Exchange:     0.2000 Hartree-Fock + 0.0800 Slater + 0.7200 B88
 Correlation:  0.1900 VWN1RPA + 0.8100 LYP
 Using SG-1 standard quadrature grid
 Dispersion:   Grimme D3
 SCF converges when DIIS error is below 1.0E-08
 Geometry optimization detected.  Setting ReadMinima to 0
 Setting SaveMinima to 0
 using 48 threads for integral computing
 -------------------------------------------------------
 OpenMP Integral computing Module                
 Release: version 1.0, May 2013, Q-Chem Inc. Pittsburgh 
 -------------------------------------------------------
 -------------------------------------------------------
 OpenMP BLAS3 based DFT computing Module                
 Release: version 1.0, May 2013, Q-Chem Inc. Pittsburgh 
 -------------------------------------------------------
 ---------------------------------------
  Cycle       Energy         DIIS Error
 ---------------------------------------
    1   -1510.1754672493      4.65E-03
    2   -1510.2726781409      3.76E-04
    3   -1510.2726079243      4.91E-04
    4   -1510.2735775220      1.89E-04
    5   -1510.2737129688      7.60E-05
    6   -1510.2737382045      1.55E-05
    7   -1510.2737392605      5.99E-06
    8   -1510.2737393824      3.08E-06
    9   -1510.2737394261      4.85E-07
   10   -1510.2737394274      2.39E-07
   11   -1510.2737394277      1.07E-07
   12   -1510.2737394277      4.52E-08
   13   -1510.2737394278      9.38E-09 Convergence criterion met
 ---------------------------------------
 SCF time:  CPU 90.23 s  wall 1.88 s
 SCF   energy in the final basis set = -1510.27373943
 Total energy in the final basis set = -1510.27373943
 
 --------------------------------------------------------------
 
                    Orbital Energies (a.u.)
 --------------------------------------------------------------
 
 Alpha MOs
 -- Occupied --
-18.941 -18.934 -18.922 -18.919 -18.895 -18.888 -18.886 -18.885
-18.867 -18.861 -10.110 -10.106 -10.094 -10.090 -10.076 -10.075
-10.063 -10.060 -10.058 -10.057 -10.056 -10.054 -10.043 -10.042
-10.034 -10.034 -10.022 -10.022 -10.020 -10.020  -1.022  -1.018
 -1.001  -0.997  -0.971  -0.970  -0.948  -0.942  -0.928  -0.924
 -0.765  -0.763  -0.730  -0.723  -0.714  -0.705  -0.695  -0.656
 -0.654  -0.619  -0.597  -0.582  -0.547  -0.545  -0.538  -0.538
 -0.514  -0.510  -0.488  -0.478  -0.459  -0.457  -0.453  -0.451
 -0.433  -0.432  -0.424  -0.409  -0.407  -0.405  -0.402  -0.401
 -0.394  -0.390  -0.372  -0.367  -0.364  -0.358  -0.353  -0.346
 -0.341  -0.338  -0.337  -0.333  -0.332  -0.328  -0.323  -0.317
 -0.311  -0.309  -0.307  -0.302  -0.299  -0.279  -0.278  -0.277
 -0.273  -0.257  -0.254  -0.246  -0.245  -0.235  -0.234  -0.186
 -0.179  -0.170  -0.166  -0.163  -0.158  -0.146  -0.145  -0.144
 -0.141
 -- Virtual --
  0.083   0.092   0.111   0.115   0.213   0.239   0.241   0.250
  0.265   0.272   0.281   0.285   0.298   0.315   0.327   0.332
  0.333   0.338   0.341   0.348   0.352   0.353   0.363   0.370
  0.371   0.380   0.383   0.388   0.398   0.405   0.411   0.412
  0.417   0.419   0.423   0.426   0.428   0.432   0.432   0.433
  0.439   0.439   0.440   0.441   0.443   0.447   0.450   0.451
  0.466   0.466   0.486   0.488   0.491   0.505   0.511   0.535
  0.540   0.551   0.555   0.630   0.631   0.653   0.659
 --------------------------------------------------------------
 
          Ground-State Mulliken Net Atomic Charges

     Atom                 Charge (a.u.)
  ----------------------------------------
      1 O                    -0.214521
      2 C                     0.215247
      3 C                    -0.081465
      4 C                    -0.078250
      5 C                     0.215561
      6 O                    -0.178153
      7 C                    -0.053811
      8 C                    -0.050820
      9 O                    -0.171718
     10 C                     0.214569
     11 C                    -0.074192
     12 C                    -0.081537
     13 C                     0.214814
     14 O                    -0.215940
     15 O                    -0.176724
     16 O                    -0.173643
     17 O                    -0.209735
     18 C                    -0.127801
     19 C                     0.022224
     20 C                    -0.145894
     21 C                    -0.141360
     22 C                     0.021834
     23 O                    -0.193094
     24 H                     0.087265
     25 H                     0.082898
     26 H                     0.091099
     27 H                     0.078247
     28 H                     0.073066
     29 H                     0.078109
     30 H                     0.073209
     31 H                     0.090675
     32 O                    -0.199223
     33 C                    -0.128633
     34 C                     0.025691
     35 C                    -0.144353
     36 C                    -0.143439
     37 C                     0.025832
     38 O                    -0.186875
     39 H                     0.083916
     40 H                     0.086203
     41 H                     0.092298
     42 H                     0.088585
     43 H                     0.078408
     44 H                     0.073341
     45 H                     0.078630
     46 H                     0.073498
     47 H                     0.085667
     48 H                     0.086680
     49 H                     0.085561
     50 H                     0.086675
     51 H                     0.088025
     52 H                     0.091706
     53 H                     0.100221
     54 H                     0.096640
     55 H                     0.100949
     56 H                     0.083843
  ----------------------------------------
  Sum of atomic charges =    -0.000000

 -----------------------------------------------------------------
                    Cartesian Multipole Moments
 -----------------------------------------------------------------
    Charge (ESU x 10^10)
                 0.0000
    Dipole Moment (Debye)
         X       0.4218      Y      -1.6565      Z      -4.3827
       Tot       4.7043
    Quadrupole Moments (Debye-Ang)
        XX    -157.5578     XY       5.2573     YY    -153.9363
        XZ      -0.2106     YZ      -2.1509     ZZ    -164.1226
    Octopole Moments (Debye-Ang^2)
       XXX       7.1733    XXY     -56.0195    XYY      -9.1739
       YYY      66.3365    XXZ    -122.1188    XYZ       9.4523
       YYZ      -5.6870    XZZ       1.9367    YZZ       2.1461
       ZZZ      20.1157
    Hexadecapole Moments (Debye-Ang^3)
      XXXX  -20653.7380   XXXY     140.8150   XXYY   -4048.0200
      XYYY     119.1002   YYYY   -3256.7822   XXXZ     -63.5701
      XXYZ     -54.2255   XYYZ     -15.2626   YYYZ     -37.3854
      XXZZ   -3841.3746   XYZZ      16.6946   YYZZ    -713.5802
      XZZZ     -71.5224   YZZZ       5.4403   ZZZZ    -723.1824
 -----------------------------------------------------------------
 Calculating analytic gradient of the SCF energy
 Gradient of SCF Energy
            1           2           3           4           5           6
    1   0.0013010  -0.0019246   0.0008949  -0.0014426  -0.0027513   0.0049646
    2  -0.0002325   0.0000652  -0.0001662   0.0024101   0.0001967  -0.0007343
    3   0.0004903  -0.0004333  -0.0008739  -0.0025017  -0.0014199   0.0084470
            7           8           9          10          11          12
    1  -0.0031489   0.0009476  -0.0002358   0.0001427  -0.0001202   0.0006024
    2  -0.0010079   0.0003850  -0.0012867  -0.0000394   0.0030320  -0.0029983
    3  -0.0064072  -0.0001590   0.0021921   0.0009111  -0.0045808   0.0045211
           13          14          15          16          17          18
    1  -0.0027155   0.0036839  -0.0001207  -0.0012203  -0.0014670   0.0000253
    2  -0.0011994   0.0021146  -0.0001264  -0.0001288   0.0000581  -0.0000078
    3  -0.0001301  -0.0018854   0.0001314   0.0008229  -0.0011687   0.0000345
           19          20          21          22          23          24
    1  -0.0001739  -0.0000183  -0.0001196  -0.0008912  -0.0005364   0.0007370
    2  -0.0011379   0.0004133   0.0000568  -0.0001471  -0.0003042   0.0011085
    3  -0.0006699   0.0001884  -0.0001344  -0.0001512  -0.0003653   0.0002938
           25          26          27          28          29          30
    1   0.0014259   0.0002985  -0.0000788   0.0001116   0.0000133   0.0001863
    2   0.0003393  -0.0000090  -0.0000119  -0.0000665  -0.0000147  -0.0000914
    3   0.0005243   0.0000134   0.0000077  -0.0000298  -0.0000491   0.0001967
           31          32          33          34          35          36
    1  -0.0000269  -0.0006026   0.0000661  -0.0001858  -0.0001162   0.0001913
    2   0.0001106  -0.0013530   0.0001447   0.0002377   0.0001997   0.0000142
    3  -0.0000283   0.0023870   0.0000495  -0.0000612  -0.0000918   0.0001701
           37          38          39          40          41          42
    1  -0.0005102   0.0000862   0.0004623   0.0006641  -0.0000435   0.0000153
    2  -0.0004294   0.0001109  -0.0001516  -0.0000374   0.0000185  -0.0000410
    3  -0.0000713  -0.0002095  -0.0000831   0.0000538  -0.0000046   0.0000637
           43          44          45          46          47          48
    1  -0.0000869  -0.0000421   0.0000978  -0.0000796   0.0000671   0.0000356
    2  -0.0000151  -0.0000636   0.0000620  -0.0000274  -0.0000044  -0.0000108
    3  -0.0000114  -0.0000193   0.0000377   0.0000765  -0.0000312  -0.0000238
           49          50          51          52          53          54
    1  -0.0000126  -0.0000104   0.0000418  -0.0000597   0.0004617  -0.0002981
    2  -0.0000067  -0.0000352  -0.0000139   0.0000726   0.0003120   0.0002220
    3  -0.0000426  -0.0000122  -0.0000404  -0.0000918  -0.0003442   0.0003762
           55          56
    1   0.0010430   0.0004726
    2   0.0000360   0.0001796
    3   0.0005057  -0.0003685
 Max gradient component =       8.447E-03
 RMS gradient           =       1.345E-03
 Gradient time:  CPU 29.95 s  wall 0.64 s
 Geometry Optimization Parameters
   NAtoms,    NIC,     NZ,  NCons,   NDum,   NFix, NCnnct, MaxDiis
       56     458       0       0       0       0       0       0

 Cartesian Hessian Update
 Hessian Updated using BFGS Update


** GEOMETRY OPTIMIZATION IN DELOCALIZED INTERNAL COORDINATES **
   Searching for a Minimum

   Optimization Cycle:   3

                       Coordinates (Angstroms)
     ATOM                X               Y               Z
      1  O        -5.3873303709    2.1993010584    0.6894851289
      2  C        -5.0268968808    1.6152388913   -0.3536553737
      3  C        -5.2631065821    0.1064403653   -0.7381332651
      4  C        -4.0293553338   -0.8452089514   -0.4579484210
      5  C        -2.7712314682   -0.0945257044    0.0950099250
      6  O        -1.6575927770   -1.0093233292    0.1754322293
      7  C        -0.3811991206   -0.2699499602    0.0307345036
      8  C         0.7313681784   -1.0242991990    0.8580863856
      9  O         1.9152375941   -1.3257954899    0.0207807485
     10  C         2.8299622817   -0.2212226608    0.0404819214
     11  C         4.0795822976   -0.5700941544   -0.8594725638
     12  C         5.3748966547    0.1825092210   -0.3597177325
     13  C         5.1322050265    1.5423934172    0.3866140516
     14  O         5.6136282470    1.9048508488    1.4811872935
     15  O        -4.4082225344    2.2608610463   -1.4769454400
     16  O         4.4069351139    2.4025813409   -0.5042135180
     17  O         2.6382398420    0.8129506698    0.7166561790
     18  C         4.1219241643    3.6920938618    0.1610964356
     19  C         4.4958998039   -2.0648501901   -0.5369119390
     20  C         5.7721645201   -2.4849566100   -1.3700146040
     21  C         6.9292732030   -1.8150057194   -0.5373777719
     22  C         6.0847138991   -0.9616362072    0.4845674831
     23  O         4.9967665465   -1.9013568626    0.8525354160
     24  H         3.8567397361   -0.3650336155   -1.9223173007
     25  H         6.0086060534    0.4332154275   -1.2319479257
     26  H         3.6518108330   -2.7795600027   -0.5629919307
     27  H         5.8713417973   -3.5813762149   -1.4001800110
     28  H         5.7252634084   -2.1081579021   -2.4046232842
     29  H         7.5268274820   -2.5715373317   -0.0035605180
     30  H         7.6034759066   -1.1985537442   -1.1533574880
     31  H         6.6173913556   -0.6030810856    1.3869421134
     32  O        -2.7045486544    1.1092881152    0.4284466041
     33  C        -4.1071744123    3.6692173812   -1.1379135182
     34  C        -6.3612145493   -0.5448029444    0.2038531779
     35  C        -6.8537819529   -1.8950739291   -0.4492627242
     36  C        -5.6248793016   -2.8367745646   -0.1632134309
     37  C        -4.6584728146   -1.8516647737    0.6047169791
     38  O        -5.5782665937   -0.9925531099    1.3804057538
     39  H        -5.5464672072    0.0615544589   -1.8046428692
     40  H        -3.7135357731   -1.3854222112   -1.3690172033
     41  H        -3.3824529227    3.7334320605   -0.3004949181
     42  H        -7.1592490019    0.1541183593    0.5205008704
     43  H        -7.7649166294   -2.2569118126    0.0532295590
     44  H        -7.0640052593   -1.7842150043   -1.5251120294
     45  H        -5.9052302421   -3.6811427299    0.4863551604
     46  H        -5.1681078198   -3.2345772191   -1.0833475193
     47  H        -3.9168540683   -2.3368622303    1.2688165697
     48  H        -5.0226935763    4.2284245283   -0.8558884555
     49  H        -3.6648379978    4.1171331018   -2.0468557837
     50  H         3.6714501724    4.3434284090   -0.6103530534
     51  H         5.0446476333    4.1631440284    0.5572043922
     52  H         3.4043230163    3.5584624098    0.9964765492
     53  H         1.0336821412   -0.4181743757    1.7369387230
     54  H         0.3314366936   -2.0032565880    1.1935651749
     55  H        -0.4969617418    0.7766111280    0.3841419897
     56  H        -0.0873676677   -0.2562701508   -1.0439558072
   Point Group: c1    Number of degrees of freedom:   162


   Energy is  -1510.273739428

 Hessian Updated using BFGS Update

152 Hessian modes will be used to form the next step
  Hessian Eigenvalues:
     0.001836    0.002005    0.002331    0.002679    0.002809    0.004118
     0.004298    0.004621    0.004904    0.005121    0.005225    0.005565
     0.006686    0.006796    0.010315    0.010910    0.010965    0.012059
     0.021045    0.021694    0.022747    0.025650    0.027535    0.030729
     0.030850    0.035270    0.035625    0.037257    0.041042    0.041709
     0.042008    0.044106    0.045848    0.047554    0.048048    0.049096
     0.050669    0.050973    0.051251    0.053364    0.053872    0.054523
     0.054783    0.055699    0.056522    0.057113    0.057813    0.059593
     0.060389    0.060608    0.062720    0.063148    0.063963    0.064086
     0.064804    0.070103    0.070565    0.072967    0.073927    0.090145
     0.092493    0.092677    0.093390    0.096917    0.097006    0.097083
     0.098107    0.102631    0.102775    0.109537    0.110423    0.112850
     0.113039    0.121944    0.122804    0.135387    0.137931    0.156689
     0.158900    0.159998    0.160004    0.160137    0.163802    0.166349
     0.218158    0.219393    0.220573    0.221602    0.230086    0.230613
     0.238453    0.238474    0.239866    0.240075    0.245398    0.245553
     0.246491    0.249336    0.249433    0.249554    0.249913    0.251759
     0.253323    0.253413    0.253521    0.255352    0.256422    0.259836
     0.262566    0.264154    0.289669    0.292898    0.304550    0.307909
     0.321256    0.325269    0.326361    0.326619    0.326723    0.326734
     0.326791    0.326863    0.328661    0.328771    0.329083    0.329833
     0.330063    0.330657    0.330699    0.331151    0.331387    0.331972
     0.334467    0.334596    0.334910    0.334970    0.335045    0.335064
     0.335127    0.335385    0.343254    0.344806    0.346220    0.347133
     0.393205    0.401743    0.402461    0.403440    0.829946    0.831283
     0.833653    0.837283

 Minimum Search - Taking Simple RFO Step
 Searching for Lamda that Minimizes Along All modes
 Value Taken    Lamda =  -0.01148562
 Calculated Step too Large.  Step scaled by  0.376760
 Step Taken.  Stepsize is  0.300000

                             Maximum     Tolerance    Cnvgd?
         Gradient           0.004575      0.000300      NO
         Displacement       0.084302      0.001200      NO
         Energy change     -0.004722      0.000001      NO


 New Cartesian Coordinates Obtained by Inverse Iteration

 Displacement from previous Coordinates is:  2.148109
 Adding empirical dispersion correction 
 ----------------------------------------------------------------
 Doing -D3(op) with
 s6 =   1.00000
 s8 =   0.78311
 a1 =   0.30000
 a2 =   4.25000
 n  =  10.00000
 -D3 energy without 3body term =     -0.0639557117 hartrees
 ----------------------------------------------------------------
             Standard Nuclear Orientation (Angstroms)
    I     Atom           X                Y                Z
 ----------------------------------------------------------------
    1      O      -5.3124195882     2.2597665483     0.6511984583
    2      C      -5.0261799948     1.6451694837    -0.3974369014
    3      C      -5.2918931031     0.1262920935    -0.7193619470
    4      C      -4.0387597706    -0.8210532553    -0.5181623103
    5      C      -2.7423077454    -0.0612592326    -0.0834199655
    6      O      -1.6470405428    -0.9928144743    -0.0503335225
    7      C      -0.3537432171    -0.2684407307    -0.0748101712
    8      C       0.7087099922    -1.1121978043     0.7306893966
    9      O       1.9191702216    -1.3694138734    -0.0844056637
   10      C       2.8432304312    -0.2799811831     0.0328282095
   11      C       4.1086604634    -0.5875231154    -0.8542476571
   12      C       5.3773615290     0.1800465456    -0.3154194978
   13      C       5.0764991777     1.4955314058     0.4866596256
   14      O       5.4876206567     1.8017326466     1.6258667823
   15      O      -4.5185505046     2.2617224849    -1.5907760533
   16      O       4.3899022076     2.3927810651    -0.3980344111
   17      O       2.6459557278     0.7169941277     0.7616574412
   18      C       4.0438184321     3.6386886960     0.3194307056
   19      C       4.5483348527    -2.0807909395    -0.5658841085
   20      C       5.8406758062    -2.4536113748    -1.3971310920
   21      C       6.9758943013    -1.7803824548    -0.5362864277
   22      C       6.1042569872    -0.9745616248     0.5018020344
   23      O       5.0334422680    -1.9462806080     0.8324510848
   24      H       3.8946523748    -0.3565742997    -1.9139682948
   25      H       6.0159625300     0.4765395312    -1.1685325970
   26      H       3.7174560481    -2.8098235613    -0.6200235200
   27      H       5.9635564112    -3.5464912960    -1.4553344500
   28      H       5.7945807330    -2.0502192798    -2.4216905006
   29      H       7.5859692049    -2.5378227764    -0.0181165184
   30      H       7.6401319105    -1.1319949483    -1.1300294983
   31      H       6.6191094979    -0.6319205765     1.4205638123
   32      O      -2.6437605334     1.1478050567     0.2238359896
   33      C      -4.2092630269     3.6832948285    -1.3228627640
   34      C      -6.3087611257    -0.5003153809     0.3249190329
   35      C      -6.8520554129    -1.8648452885    -0.2541283622
   36      C      -5.6038896715    -2.8013054106    -0.0476282557
   37      C      -4.5786625687    -1.7997352147     0.6164955032
   38      O      -5.4326354932    -0.9214049741     1.4443226320
   39      H      -5.6631869547     0.0547000711    -1.7570875642
   40      H      -3.8005963828    -1.3848173812    -1.4382187304
   41      H      -3.4138697952     3.7821825116    -0.5558743510
   42      H      -7.0788045331     0.2072173771     0.6883815168
   43      H      -7.7189457550    -2.2136554542     0.3291385100
   44      H      -7.1489805473    -1.7781660070    -1.3115714032
   45      H      -5.8309987597    -3.6303602859     0.6414052648
   46      H      -5.2227611545    -3.2204986344    -0.9925186931
   47      H      -3.7855296729    -2.2702810800     1.2295873673
   48      H      -5.1042023031     4.2402262766    -0.9772148124
   49      H      -3.8558562779     4.1076918563    -2.2806691309
   50      H       3.6251348797     4.3252853803    -0.4392800410
   51      H       4.9335859486     4.1012805874     0.7932110835
   52      H       3.2835173088     3.4467099911     1.1042117969
   53      H       0.9822726853    -0.5881417359     1.6696289575
   54      H       0.2809174642    -2.1084616644     0.9656528892
   55      H      -0.4780966717     0.7466573281     0.3580767662
   56      H      -0.0147885968    -0.1691464226    -1.1307207263
 ----------------------------------------------------------------
 Molecular Point Group                 C1    NOp =  1
 Largest Abelian Subgroup              C1    NOp =  1
 Nuclear Repulsion Energy =  2975.6367870593 hartrees
 There are      113 alpha and      113 beta electrons
 Applying Cartesian multipole field
    Component          Value
    ---------          -----
     (2,0,0)        1.00000E-12
     (0,2,0)        2.00000E-11
     (0,0,2)       -3.00000E-11
 Nucleus-field energy     =     0.0000000562 hartrees
 Requested basis set is STO-3G
 There are 86 shells and 176 basis functions
 A cutoff of  1.0D-12 yielded   1933 shell pairs
 There are      8947 function pairs
 Smallest overlap matrix eigenvalue = 2.13E-01
 Guess MOs from SCF MO coefficient file
 Reading MOs from coefficient file
 Reading MOs from coefficient file
 A restricted hybrid HF-DFT SCF calculation will be
 performed using Pulay DIIS extrapolation
 Exchange:     0.2000 Hartree-Fock + 0.0800 Slater + 0.7200 B88
[...]
      6  O        -1.8271415940   -1.3420600236   -2.0153676111
      7  C        -0.3509929901   -1.4259679834   -2.1603028280
      8  C         0.3224110448   -2.1794045755   -0.9544280499
      9  O         1.7916799392   -2.1156570803   -1.1307701472
     10  C         2.3683905050   -1.2616061213   -0.1256487731
     11  C         3.8972991328   -1.1288149268   -0.4211105456
     12  C         4.3645105527    0.3757356406   -0.6163196712
     13  C         3.2061649722    1.4245874077   -0.4632571339
     14  O         3.1853446180    2.4148024586    0.2991704596
     15  O        -2.9176327976    2.6436752543   -0.1576166421
     16  O         2.1548036413    1.0734541523   -1.3702940889
     17  O         1.7251198895   -0.7657289313    0.8248656567
     18  C         0.9933014437    1.9819299500   -1.1951407422
     19  C         4.7715590856   -1.5433840462    0.8417285936
     20  C         6.2639250194   -1.7483836043    0.3642879362
     21  C         6.7276999126   -0.2571419863    0.1672361241
     22  C         5.4143173083    0.5248374135    0.5602880855
     23  O         4.8282864114   -0.3010223137    1.6425618789
     24  H         4.1333132787   -1.7444651468   -1.3063748438
     25  H         4.8325348706    0.5121226345   -1.6086558481
     26  H         4.3471681401   -2.3724236590    1.4404350823
     27  H         6.8509328563   -2.2542736275    1.1472040473
     28  H         6.3254302152   -2.3410159481   -0.5625197699
     29  H         7.5496865230    0.0032120848    0.8528584043
     30  H         7.0479284848   -0.0421849333   -0.8648683950
     31  H         5.5524289467    1.5684169085    0.9038323347
     32  O        -1.3965639629    0.3379064433   -0.3900316508
     33  C        -1.9080926505    3.5604624144    0.4178227888
     34  C        -4.9348421684   -0.3080411346    1.2364978678
     35  C        -6.3129338574   -0.8406157081    0.6812572056
     36  C        -5.8218877272   -1.8486827608   -0.4230920468
     37  C        -4.2541361995   -1.7502339005   -0.2545479286
     38  O        -4.0646771104   -1.5080042963    1.1921522524
     39  H        -5.0714504424    1.3026531384   -0.3161617453
     40  H        -4.1991233294   -0.2330304611   -1.9078859947
     41  H        -1.0218025190    3.0076893839    0.7881774698
     42  H        -4.9534586044    0.1136000447    2.2600946150
     43  H        -6.8749779170   -1.3563104256    1.4760983035
     44  H        -6.9386906737   -0.0312024604    0.2726365427
     45  H        -6.1665486502   -2.8747655912   -0.2182479891
     46  H        -6.1472095246   -1.5630310323   -1.4363672514
     47  H        -3.6843678537   -2.6406355090   -0.5846204786
     48  H        -2.3288429402    4.1519514752    1.2570549959
     49  H        -1.6088445049    4.2430008838   -0.3987158714
     50  H         0.7674424642    2.4546980099   -2.1705931668
     51  H         1.2505180347    2.7583637116   -0.4485032438
     52  H         0.1187330749    1.3829922356   -0.8508687174
     53  H         0.0612181611   -1.6798447528    0.0045862362
     54  H         0.0125752137   -3.2440297528   -0.9346316986
     55  H         0.1019041204   -0.4166573861   -2.2513118673
     56  H        -0.1831681959   -1.9825298043   -3.1038947877
   Point Group: c1    Number of degrees of freedom:   162


   Energy is  -1510.292891646

 Hessian Updated using BFGS Update

162 Hessian modes will be used to form the next step
  Hessian Eigenvalues:
     0.001008    0.001882    0.002478    0.003349    0.003460    0.004034
     0.005386    0.005849    0.007255    0.008014    0.013789    0.015044
     0.017098    0.020030    0.021168    0.021707    0.023176    0.024699
     0.026746    0.029470    0.031198    0.032076    0.032297    0.036343
     0.036943    0.037244    0.038291    0.041306    0.042321    0.043116
     0.043856    0.044773    0.047539    0.049429    0.050540    0.051330
     0.051868    0.052544    0.052866    0.054527    0.055136    0.056050
     0.056302    0.056369    0.057581    0.058746    0.059689    0.062242
     0.063020    0.063424    0.064231    0.064365    0.064589    0.065600
     0.069236    0.070299    0.072592    0.073349    0.074309    0.080268
     0.090940    0.092785    0.093160    0.096757    0.097213    0.099985
     0.100523    0.101837    0.102292    0.105586    0.110556    0.111553
     0.115362    0.116196    0.133434    0.135609    0.142222    0.143481
     0.157203    0.159203    0.160260    0.161020    0.161894    0.163236
     0.167048    0.169724    0.171523    0.184448    0.208409    0.216552
     0.220438    0.226890    0.231342    0.233832    0.237076    0.239652
     0.240531    0.241630    0.242838    0.246177    0.247857    0.248239
     0.248640    0.251968    0.252548    0.253033    0.253902    0.255890
     0.256758    0.260083    0.264327    0.271052    0.275249    0.283783
     0.289866    0.294362    0.296967    0.304844    0.308314    0.321168
     0.323570    0.326352    0.326535    0.326711    0.326962    0.327085
     0.327779    0.328667    0.328969    0.329158    0.329769    0.330177
     0.330667    0.331198    0.331671    0.332257    0.332367    0.332763
     0.334502    0.334709    0.335044    0.335144    0.335266    0.335393
     0.335592    0.336019    0.347467    0.350802    0.354397    0.362557
     0.383400    0.401653    0.405682    0.423883    0.474292    0.549910
     0.826878    0.829859    0.834220    0.840474    0.919477    2.345983

 Minimum Search - Taking Simple RFO Step
 Searching for Lamda that Minimizes Along All modes
 Value Taken    Lamda =   0.00000000
 Step Taken.  Stepsize is  0.003059

                             Maximum     Tolerance    Cnvgd?
         Gradient           0.000098      0.000300     YES
         Displacement       0.000767      0.001200     YES
         Energy change     -0.000003      0.000001      NO

 Final energy is   -1510.29289164588     


 ******************************
 **  OPTIMIZATION CONVERGED  **
 ******************************

                       Coordinates (Angstroms)
     ATOM                X               Y               Z
      1  O        -2.7602857829    1.5543724031    1.9492886966
      2  C        -3.2129344891    1.6031449924    0.7863429643
      3  C        -4.3025446418    0.6608522073    0.1498526658
      4  C        -3.7594060834   -0.3854151586   -0.9055499754
      5  C        -2.2002303022   -0.3738726568   -1.0377967860
      6  O        -1.8271415940   -1.3420600236   -2.0153676111
      7  C        -0.3509929901   -1.4259679834   -2.1603028280
      8  C         0.3224110448   -2.1794045755   -0.9544280499
      9  O         1.7916799392   -2.1156570803   -1.1307701472
     10  C         2.3683905050   -1.2616061213   -0.1256487731
     11  C         3.8972991328   -1.1288149268   -0.4211105456
     12  C         4.3645105527    0.3757356406   -0.6163196712
     13  C         3.2061649722    1.4245874077   -0.4632571339
     14  O         3.1853446180    2.4148024586    0.2991704596
     15  O        -2.9176327976    2.6436752543   -0.1576166421
     16  O         2.1548036413    1.0734541523   -1.3702940889
     17  O         1.7251198895   -0.7657289313    0.8248656567
     18  C         0.9933014437    1.9819299500   -1.1951407422
     19  C         4.7715590856   -1.5433840462    0.8417285936
     20  C         6.2639250194   -1.7483836043    0.3642879362
     21  C         6.7276999126   -0.2571419863    0.1672361241
     22  C         5.4143173083    0.5248374135    0.5602880855
     23  O         4.8282864114   -0.3010223137    1.6425618789
     24  H         4.1333132787   -1.7444651468   -1.3063748438
     25  H         4.8325348706    0.5121226345   -1.6086558481
     26  H         4.3471681401   -2.3724236590    1.4404350823
     27  H         6.8509328563   -2.2542736275    1.1472040473
     28  H         6.3254302152   -2.3410159481   -0.5625197699
     29  H         7.5496865230    0.0032120848    0.8528584043
     30  H         7.0479284848   -0.0421849333   -0.8648683950
     31  H         5.5524289467    1.5684169085    0.9038323347
     32  O        -1.3965639629    0.3379064433   -0.3900316508
     33  C        -1.9080926505    3.5604624144    0.4178227888
     34  C        -4.9348421684   -0.3080411346    1.2364978678
     35  C        -6.3129338574   -0.8406157081    0.6812572056
     36  C        -5.8218877272   -1.8486827608   -0.4230920468
     37  C        -4.2541361995   -1.7502339005   -0.2545479286
     38  O        -4.0646771104   -1.5080042963    1.1921522524
     39  H        -5.0714504424    1.3026531384   -0.3161617453
     40  H        -4.1991233294   -0.2330304611   -1.9078859947
     41  H        -1.0218025190    3.0076893839    0.7881774698
     42  H        -4.9534586044    0.1136000447    2.2600946150
     43  H        -6.8749779170   -1.3563104256    1.4760983035
     44  H        -6.9386906737   -0.0312024604    0.2726365427
     45  H        -6.1665486502   -2.8747655912   -0.2182479891
     46  H        -6.1472095246   -1.5630310323   -1.4363672514
     47  H        -3.6843678537   -2.6406355090   -0.5846204786
     48  H        -2.3288429402    4.1519514752    1.2570549959
     49  H        -1.6088445049    4.2430008838   -0.3987158714
     50  H         0.7674424642    2.4546980099   -2.1705931668
     51  H         1.2505180347    2.7583637116   -0.4485032438
     52  H         0.1187330749    1.3829922356   -0.8508687174
     53  H         0.0612181611   -1.6798447528    0.0045862362
     54  H         0.0125752137   -3.2440297528   -0.9346316986
     55  H         0.1019041204   -0.4166573861   -2.2513118673
     56  H        -0.1831681959   -1.9825298043   -3.1038947877

Z-matrix Print:
$molecule
0 1
O 
C  1 1.253838
O  2 1.425562 1 124.894772
C  3 1.485618 2 111.426344 1 1.025445 0
H  4 1.108283 3 105.182086 2 -165.268966 0
H  4 1.110003 3 111.226504 2 -47.448526 0
C  2 1.564817 1 126.811233 3 178.663776 0
H  7 1.105102 2 108.589909 1 126.777900 0
C  4 1.573300 3 112.182894 2 74.782271 0
H  9 1.108971 4 110.722170 3 65.531368 0
H  9 1.112425 4 110.194505 3 -57.017111 0
O  9 1.481186 4 108.222926 3 -175.429490 0
C  12 1.439537 9 109.865040 4 110.733625 0
O  13 1.250268 12 124.056341 9 6.550237 0
C  13 1.562848 12 108.079117 9 -175.354869 0
H  15 1.103821 13 108.264436 12 -1.377752 0
C  7 1.582261 2 113.173963 1 1.545142 0
H  17 1.104669 7 109.981739 2 126.931637 0
C  17 1.574892 7 115.323029 2 4.896372 0
O  19 1.248884 17 127.137681 7 -107.164375 0
O  19 1.435607 17 108.073619 7 79.091255 0
C  21 1.480135 19 109.487661 17 179.216832 0
H  22 1.105506 21 106.253398 19 171.658888 0
H  22 1.108256 21 111.495866 19 52.085395 0
H  22 1.109595 21 111.444108 19 -69.247206 0
C  17 1.587247 7 100.938344 2 -115.221065 0
H  26 1.107194 17 114.026321 7 152.715054 0
O  26 1.482925 17 103.870017 7 32.721994 0
C  28 1.479024 26 94.968631 17 -56.102818 0
H  29 1.107429 28 110.935344 26 -179.980320 0
C  26 1.578311 17 108.237820 7 -76.515473 0
H  31 1.101638 26 110.463095 17 -169.014729 0
H  31 1.101677 26 112.241821 17 -47.438755 0
C  31 1.573821 26 100.985395 17 72.952817 0
H  34 1.101634 31 111.623148 26 119.676770 0
H  34 1.101888 31 112.774404 26 -117.650057 0
C  15 1.587471 13 113.060149 12 122.719735 0
H  37 1.105613 15 110.601856 13 -122.005312 0
C  37 1.570122 15 113.828465 13 0.453421 0
O  39 1.249902 37 126.939485 15 125.844626 0
O  39 1.432261 37 108.423643 15 -54.966991 0
C  41 1.484956 39 110.455579 37 176.015744 0
H  42 1.107262 41 108.472690 39 123.634414 0
H  42 1.107464 41 109.073018 39 3.833723 0
H  42 1.114504 41 108.750515 39 -116.784439 0
C  37 1.583898 15 101.124444 13 119.196240 0
H  46 1.107319 37 113.694247 15 -154.987660 0
O  46 1.482158 37 103.174479 15 -35.454972 0
C  48 1.479194 46 95.038287 37 57.110931 0
H  49 1.107187 48 110.538373 46 -179.911864 0
C  46 1.578276 37 108.657859 15 74.030453 0
H  51 1.101601 46 110.416468 37 167.702920 0
H  51 1.101813 46 112.239478 37 46.294669 0
C  51 1.574077 46 101.129780 37 -74.193280 0
H  54 1.101572 51 111.533450 46 -117.619797 0
H  54 1.101802 51 112.818909 46 119.662228 0
$end

 
 --------------------------------------------------------------
 
                    Orbital Energies (a.u.)
 --------------------------------------------------------------
 
 Alpha MOs
 -- Occupied --
-18.951 -18.930 -18.926 -18.919 -18.898 -18.888 -18.885 -18.875
-18.874 -18.861 -10.117 -10.098 -10.096 -10.090 -10.078 -10.066
-10.064 -10.059 -10.057 -10.056 -10.053 -10.044 -10.038 -10.037
-10.036 -10.034 -10.022 -10.020 -10.019 -10.018  -1.028  -1.011
 -1.003  -0.998  -0.972  -0.968  -0.953  -0.935  -0.931  -0.924
 -0.765  -0.762  -0.729  -0.722  -0.714  -0.705  -0.696  -0.655
 -0.651  -0.621  -0.597  -0.581  -0.547  -0.543  -0.538  -0.536
 -0.513  -0.507  -0.485  -0.474  -0.462  -0.456  -0.456  -0.450
 -0.436  -0.431  -0.428  -0.412  -0.410  -0.407  -0.400  -0.397
 -0.393  -0.381  -0.377  -0.365  -0.361  -0.356  -0.355  -0.346
 -0.342  -0.338  -0.333  -0.332  -0.328  -0.326  -0.324  -0.317
 -0.310  -0.308  -0.304  -0.302  -0.292  -0.286  -0.277  -0.275
 -0.269  -0.262  -0.246  -0.244  -0.242  -0.236  -0.232  -0.197
 -0.174  -0.169  -0.164  -0.162  -0.158  -0.151  -0.146  -0.142
 -0.141
 -- Virtual --
  0.082   0.095   0.112   0.114   0.205   0.237   0.241   0.263
  0.265   0.278   0.284   0.286   0.303   0.318   0.327   0.333
  0.339   0.339   0.346   0.349   0.352   0.363   0.367   0.369
  0.375   0.383   0.386   0.392   0.403   0.403   0.410   0.412
  0.416   0.420   0.423   0.425   0.427   0.427   0.433   0.434
  0.439   0.441   0.442   0.442   0.445   0.450   0.464   0.466
  0.468   0.480   0.486   0.489   0.501   0.506   0.508   0.540
  0.543   0.551   0.553   0.636   0.645   0.654   0.657
 --------------------------------------------------------------
 
          Ground-State Mulliken Net Atomic Charges

     Atom                 Charge (a.u.)
  ----------------------------------------
      1 O                    -0.213654
      2 C                     0.215163
      3 C                    -0.081671
      4 C                    -0.077324
      5 C                     0.221406
      6 O                    -0.168750
      7 C                    -0.051053
      8 C                    -0.060297
      9 O                    -0.173959
     10 C                     0.213382
     11 C                    -0.078727
     12 C                    -0.077978
     13 C                     0.214767
     14 O                    -0.209345
     15 O                    -0.177234
     16 O                    -0.179363
     17 O                    -0.207785
     18 C                    -0.153453
     19 C                     0.025982
     20 C                    -0.143787
     21 C                    -0.144205
     22 C                     0.024582
     23 O                    -0.185379
     24 H                     0.086118
     25 H                     0.084296
     26 H                     0.083758
     27 H                     0.078236
     28 H                     0.073109
     29 H                     0.078394
     30 H                     0.072685
     31 H                     0.091335
     32 O                    -0.204125
     33 C                    -0.129384
     34 C                     0.024938
     35 C                    -0.143781
     36 C                    -0.143903
     37 C                     0.025052
     38 O                    -0.188745
     39 H                     0.083891
     40 H                     0.088050
     41 H                     0.096287
     42 H                     0.090812
     43 H                     0.078652
     44 H                     0.073559
     45 H                     0.078560
     46 H                     0.073529
     47 H                     0.084894
     48 H                     0.084490
     49 H                     0.085377
     50 H                     0.075709
     51 H                     0.097190
     52 H                     0.107387
     53 H                     0.108768
     54 H                     0.084440
     55 H                     0.097285
     56 H                     0.091819
  ----------------------------------------
  Sum of atomic charges =     0.000000

 -----------------------------------------------------------------
                    Cartesian Multipole Moments
 -----------------------------------------------------------------
    Charge (ESU x 10^10)
                 0.0000
    Dipole Moment (Debye)
         X      -0.8653      Y      -1.3079      Z      -4.3474
       Tot       4.6216
    Quadrupole Moments (Debye-Ang)
        XX    -135.0018     XY      -4.7639     YY    -155.1309
        XZ      -2.4005     YZ      -0.9041     ZZ    -166.0784
    Octopole Moments (Debye-Ang^2)
       XXX     -32.5611    XXY      -8.7798    XYY     -13.9818
       YYY      51.8946    XXZ     -16.4405    XYZ     -13.4558
       YYZ      16.6834    XZZ     -12.4045    YZZ      16.3931
       ZZZ      37.0514
    Hexadecapole Moments (Debye-Ang^3)
      XXXX  -13752.4539   XXXY      36.9671   XXYY   -2902.6434
      XYYY      39.5724   YYYY   -2522.7372   XXXZ     -56.1444
      XXYZ     -52.7302   XYYZ      13.8331   YYYZ    -137.7649
      XXZZ   -2709.6487   XYZZ      20.7195   YYZZ    -625.9278
      XZZZ      15.7384   YZZZ    -148.7180   ZZZZ   -1163.5317
 -----------------------------------------------------------------
Archival summary:
1\1\vega02.cac.cornell.edu\OPT\ProcedureUnspecified\STO-3G\102026\jj585\SunJan1419:36:392018SunJan1419:36:392018\0\\#,OPT,ProcedureUnspecified,STO-3G,\\0,1\O\C,1,1.25384\O,2,1.42556,1,124.895\C,3,1.48562,2,111.426,1,1.02545,0\H,4,1.10828,3,105.182,2,-165.269,0\H,4,1.11,3,111.227,2,-47.4485,0\C,2,1.56482,1,126.811,3,178.664,0\H,7,1.1051,2,108.59,1,126.778,0\C,4,1.5733,3,112.183,2,74.7823,0\H,9,1.10897,4,110.722,3,65.5314,0\H,9,1.11243,4,110.195,3,-57.0171,0\O,9,1.48119,4,108.223,3,-175.429,0\C,12,1.43954,9,109.865,4,110.734,0\O,13,1.25027,12,124.056,9,6.55024,0\C,13,1.56285,12,108.079,9,-175.355,0\H,15,1.10382,13,108.264,12,-1.37775,0\C,7,1.58226,2,113.174,1,1.54514,0\H,17,1.10467,7,109.982,2,126.932,0\C,17,1.57489,7,115.323,2,4.89637,0\O,19,1.24888,17,127.138,7,-107.164,0\O,19,1.43561,17,108.074,7,79.0913,0\C,21,1.48014,19,109.488,17,179.217,0\H,22,1.10551,21,106.253,19,171.659,0\H,22,1.10826,21,111.496,19,52.0854,0\H,22,1.10959,21,111.444,19,-69.2472,0\C,17,1.58725,7,100.938,2,-115.221,0\H,26,1.10719,17,114.026,7,152.715,0\O,26,1.48292,17,103.87,7,32.722,0\C,28,1.47902,26,94.9686,17,-56.1028,0\H,29,1.10743,28,110.935,26,-179.98,0\C,26,1.57831,17,108.238,7,-76.5155,0\H,31,1.10164,26,110.463,17,-169.015,0\H,31,1.10168,26,112.242,17,-47.4388,0\C,31,1.57382,26,100.985,17,72.9528,0\H,34,1.10163,31,111.623,26,119.677,0\H,34,1.10189,31,112.774,26,-117.65,0\C,15,1.58747,13,113.06,12,122.72,0\H,37,1.10561,15,110.602,13,-122.005,0\C,37,1.57012,15,113.828,13,0.453421,0\O,39,1.2499,37,126.939,15,125.845,0\O,39,1.43226,37,108.424,15,-54.967,0\C,41,1.48496,39,110.456,37,176.016,0\H,42,1.10726,41,108.473,39,123.634,0\H,42,1.10746,41,109.073,39,3.83372,0\H,42,1.1145,41,108.751,39,-116.784,0\C,37,1.5839,15,101.124,13,119.196,0\H,46,1.10732,37,113.694,15,-154.988,0\O,46,1.48216,37,103.174,15,-35.455,0\C,48,1.47919,46,95.0383,37,57.1109,0\H,49,1.10719,48,110.538,46,-179.912,0\C,46,1.57828,37,108.658,15,74.0305,0\H,51,1.1016,46,110.416,37,167.703,0\H,51,1.10181,46,112.239,37,46.2947,0\C,51,1.57408,46,101.13,37,-74.1933,0\H,54,1.10157,51,111.533,46,-117.62,0\H,54,1.1018,51,112.819,46,119.662,0\\\@

 Total job time:  124.63s(wall), 5940.34s(cpu) 
 Sun Jan 14 19:36:39 2018

        *************************************************************
        *                                                           *
        *  Thank you very much for using Q-Chem.  Have a nice day.  *
        *                                                           *
        *************************************************************


0 sent ACK to 0 
now end server 0 ... 
