mFile = /opt/software/qchem/qchem-5.0.1//bin/mpi/machines
Process 0 of 1 is on vega02.cac.cornell.edu - thread support 0
initial socket setup ...start
initial socket setup ...done 
now start server 0 ... 
vega02.cac.cornell.edu 10.84.3
Q-Chem Developer Version! Running on 10.84.3.*
                  Welcome to Q-Chem
     A Quantum Leap Into The Future Of Chemistry


 Q-Chem 5.0, Q-Chem, Inc., Pleasanton, CA (2017)

 Yihan Shao,  Zhengting Gan,  E. Epifanovsky,  A. T. B. Gilbert,  M. Wormit,  
 J. Kussmann,  A. W. Lange,  A. Behn,  Jia Deng,  Xintian Feng,  D. Ghosh,  
 M. Goldey,  P. R. Horn,  L. D. Jacobson,  I. Kaliman,  T. Kus,  A. Landau,  
 Jie Liu,  E. I. Proynov,  R. M. Richard,  R. P. Steele,  E. J. Sundstrom,  
 H. L. Woodcock III,  P. M. Zimmerman,  D. Zuev,  B. Albrecht,  E. Alguire,  
 S. A. Baeppler,  Z. Benda,  Y. A. Bernard,  E. J. Berquist,  K. B. Bravaya,  
 D. Casanova,  Chun-Min Chang,  Yunqing Chen,  A. Chien,  K. D. Closser,  
 M. P. Coons,  S. Dasgupta,  M. Diedenhofen,  Hainam Do,  R. G. Edgar,  
 Po-Tung Fang,  S. Fatehi,  Qingguo Feng,  Qinghui Ge,  A. Ghysels,  
 J. Gomes,  J. Gonthier,  A. Gunina,  M. W. D. Hanson-Heine,  
 P. H. P. Harbach,  A. W. Hauser,  J. E. Herr,  E. G. Hohenstein,  
 Z. C. Holden,  Kerwin Hui,  T.-C. Jagau,  Hyunjun Ji,  B. Kaduk,  
 K. Khistyaev,  Jaehoon Kim,  P. Klunzinger,  K. Koh,  D. Kosenkov,  
 T. Kowalczyk,  C. M. Krauter,  A. Kunitsa,  Ka Un Lao,  A. Laurent,  
 K. V. Lawler,  Joonho Lee,  D. Lefrancois,  S. Lehtola,  D. S. Levine,  
 Yi-Pei Li,  You-Sheng Lin,  Fenglai Liu,  E. Livshits,  A. Luenser,  
 P. Manohar,  E. Mansoor,  S. F. Manzer,  Shan-Ping Mao,  Yuezhi Mao,  
 N. Mardirossian,  A. V. Marenich,  L. A. Martinez-Martinez,  S. A. Maurer,  
 N. J. Mayhall,  S. C. McKenzie,  J.-M. Mewes,  A. F. Morrison,  K. Nanda,  
 T. S. Nguyen-Beck,  R. Olivares-Amaya,  J. A. Parkhill,  T. M. Perrine,  
 F. Plasser,  S. Prager,  A. Prociuk,  D. R. Rehn,  F. Rob,  M. Schneider,  
 N. Sergueev,  S. M. Sharada,  S. Sharma,  D. W. Small,  T. Stauch,  
 T. Stein,  Yu-Chuan Su,  A. J. W. Thom,  T. Tsuchimochi,  L. Vogt,  
 O. Vydrov,  M. A. Watson,  J. Wenzel,  M. de Wergifosse,  T. A. Wesolowski,  
 A. White,  J. Witte,  A. Yamada,  Jun Yang,  K. Yao,  S. Yeganeh,  
 S. R. Yost,  Zhi-Qiang You,  A. Zech,  Igor Ying Zhang,  Xing Zhang,  
 Yan Zhao,  Ying Zhu,  B. R. Brooks,  G. K. L. Chan,  C. J. Cramer,  
 M. S. Gordon,  W. J. Hehre,  A. Klamt,  M. W. Schmidt,  C. D. Sherrill,  
 D. G. Truhlar,  A. Aspuru-Guzik,  R. Baer,  A. T. Bell,  N. A. Besley,  
 Jeng-Da Chai,  A. Dreuw,  B. D. Dunietz,  T. R. Furlani,  Chao-Ping Hsu,  
 Yousung Jung,  Jing Kong,  D. S. Lambrecht,  WanZhen Liang,  C. Ochsenfeld,  
 V. A. Rassolov,  L. V. Slipchenko,  J. E. Subotnik,  T. Van Voorhis,  
 J. M. Herbert,  A. I. Krylov,  P. M. W. Gill,  M. Head-Gordon

 Contributors to earlier versions of Q-Chem not listed above: 
 R. D. Adamson,  B. Austin,  J. Baker,  G. J. O. Beran,  K. Brandhorst,  
 S. T. Brown,  E. F. C. Byrd,  A. K. Chakraborty,  C.-L. Cheng,  
 Siu Hung Chien,  D. M. Chipman,  D. L. Crittenden,  H. Dachsel,  
 R. A. DiStasio Jr.,  R. J. Doerksen,  A. D. Dutoi,  L. Fusti-Molnar,  
 W. A. Goddard III,  A. Golubeva-Zadorozhnaya,  S. R. Gwaltney,  G. Hawkins,  
 A. Heyden,  S. Hirata,  G. Kedziora,  F. J. Keil,  C. Kelley,  Jihan Kim,  
 R. A. King,  R. Z. Khaliullin,  P. P. Korambath,  W. Kurlancheek,  
 A. M. Lee,  M. S. Lee,  S. V. Levchenko,  Ching Yeh Lin,  D. Liotard,  
 R. C. Lochan,  I. Lotan,  P. E. Maslen,  N. Nair,  D. P. O'Neill,  
 D. Neuhauser,  E. Neuscamman,  C. M. Oana,  R. Olson,  B. Peters,  
 R. Peverati,  P. A. Pieniazek,  Y. M. Rhee,  J. Ritchie,  M. A. Rohrdanz,  
 E. Rosta,  N. J. Russ,  H. F. Schaefer III,  N. E. Schultz,  N. Shenvi,  
 A. C. Simmonett,  A. Sodt,  D. Stuck,  K. S. Thanthiriwatte,  V. Vanovschi,  
 Tao Wang,  A. Warshel,  C. F. Williams,  Q. Wu,  X. Xu,  W. Zhang

 Please cite Q-Chem as follows:
 Y. Shao et al., Mol. Phys. 113, 184-215 (2015)
 DOI: 10.1080/00268976.2014.952696

 Q-Chem 5.0.1 for Intel X86 EM64T Linux

 Parts of Q-Chem use Armadillo 5.200.1 (Boston Tea Smuggler).
 http://arma.sourceforge.net/

 Q-Chem begins on Sun Jan 14 19:42:16 2018  

Host: vega02.cac.cornell.edu
0

     Scratch files written to /scratch/jj585/SOT1001/0540c.save//
 Parallel job on  1  processors

Checking the input file for inconsistencies... 	...done.

--------------------------------------------------------------
User input:
--------------------------------------------------------------
$molecule
0  1
O -3.94934 -3.66094 2.70899
C -3.26408 -4.56952 2.26188
C -3.36658 -6.02376 2.66595
C -2.18719 -6.61935 3.45219
C -1.117 -5.649 3.90072
O -0.01643 -6.33646 4.32684
C 0.56031 -7.16237 3.30973
C 1.64201 -6.39305 2.55861
O 1.99959 -5.21045 3.29105
C 0.95945 -4.45188 3.71748
C 1.36995 -3.40219 4.72262
C 0.25706 -2.42542 5.12964
C -1.15382 -2.84263 4.76625
O -1.98567 -3.28353 5.54614
O -2.36849 -4.31361 1.27108
O -1.63254 -2.11791 3.72479
O 0.31281 -3.97555 2.78145
C -2.71293 -1.26124 3.84202
C 1.79284 -3.9687 6.0876
C 2.71554 -2.9721 6.78623
C 1.73357 -1.8683 7.12557
C 0.42108 -2.51416 6.66324
O 0.62789 -3.89171 6.87097
H 2.21824 -2.8438 4.26238
H 0.43236 -1.39045 4.7571
H 2.27571 -4.96801 6.02105
H 3.05364 -3.45126 7.73301
H 3.60433 -2.65167 6.20113
H 1.73604 -1.72536 8.229
H 1.91256 -0.89768 6.61426
H -0.43851 -2.06187 7.20555
O -1.57361 -5.25692 4.89729
C -2.23275 -3.11537 0.60313
C -4.52812 -6.34087 3.64342
C -4.97092 -7.79179 3.4586
C -3.78916 -8.52648 4.05754
C -2.96928 -7.34393 4.58939
O -3.9427 -6.38367 4.92261
H -3.58525 -6.56295 1.71369
H -1.81897 -7.34912 2.73186
H -1.92043 -2.31072 1.29072
H -5.40223 -5.66379 3.52777
H -5.85454 -7.94494 4.11943
H -5.23908 -8.08883 2.42194
H -4.15804 -9.16086 4.89384
H -3.20023 -9.14271 3.34462
H -2.2964 -7.67519 5.41055
H -3.19011 -2.84151 0.11116
H -1.45026 -3.22436 -0.17538
H -2.93927 -0.81094 2.85434
H -2.46336 -0.44327 4.55079
H -3.61257 -1.78816 4.22015
H 2.52659 -7.01433 2.30076
H 1.18748 -6.06055 1.59933
H 0.03294 -7.93816 2.73291
H 1.17979 -7.84203 3.93298
$end

$opt
CONSTRAINT
tors           1           2           3           4    -111.538
tors           3           4           5           6    -167.271
tors           4           5           6           7     +60.226
tors           5           6           7           8     +91.885
tors           6           7           8           9     +14.483
tors           7           8           9          10     -48.433
tors           8           9          10          11    +167.529
tors           9          10          11          12    +174.086
tors          11          12          13          14    +104.211
ENDCONSTRAINT
$end

$rem
JOBTYPE                   OPT
METHOD                    B3LYP
DFT_D                     d3_op
BASIS                     STO-3G
GEOM_OPT_MAX_CYCLES       100
GEOM_OPT_TOL_GRADIENT     300
GEOM_OPT_TOL_DISPLACEMENT 1200
GEOM_OPT_TOL_ENERGY       100
SYMMETRY                  False
THRESH                    12
SCF_CONVERGENCE           8
MAX_SUB_FILE_NUM          128
MEM_STATIC                400
MEM_TOTAL                 4000
$end
--------------------------------------------------------------
 Adding empirical dispersion correction 
 ----------------------------------------------------------------
 Doing -D3(op) with
 s6 =   1.00000
 s8 =   0.78311
 a1 =   0.30000
 a2 =   4.25000
 n  =  10.00000
 -D3 energy without 3body term =     -0.0806143030 hartrees
 ----------------------------------------------------------------
             Standard Nuclear Orientation (Angstroms)
    I     Atom           X                Y                Z
 ----------------------------------------------------------------
    1      O      -2.1994201154    -2.4591374284     0.1046368132
    2      C      -2.3198367009    -1.4251931668     0.7460924593
    3      C      -2.9868787265    -0.1607130548     0.2513826705
    4      C      -2.0849785605     1.0604157200     0.0079033827
    5      C      -0.5939244024     0.8297853022     0.1157552599
    6      O       0.0591311909     2.0285872812     0.1584874263
    7      C      -0.3255122552     2.8399500091     1.2733905840
    8      C       0.5995221617     2.5787249781     2.4575283368
    9      O       1.7679938635     1.8683055699     2.0183783435
   10      C       1.5326033230     0.7860962688     1.2357056588
   11      C       2.7802504971     0.2625357914     0.5649398865
   12      C       2.5939552840    -1.0452172048    -0.2182237362
   13      C       1.1610174833    -1.4392184100    -0.5151263470
   14      O       0.6066249899    -1.3321916129    -1.5994647963
   15      O      -1.8948446154    -1.3794613061     2.0370403051
   16      O       0.7593899709    -2.4735029491     0.2646054541
   17      O       0.9166803487    -0.0992279793     1.8340580505
   18      C       0.4222422603    -3.7129434463    -0.2501639984
   19      C       3.3477933539     1.1903780704    -0.5213122682
   20      C       4.8381841540     0.9087825689    -0.7005048001
   21      C       4.7904147391    -0.4555770407    -1.3593159228
   22      C       3.2760472650    -0.6231329881    -1.5385652645
   23      O       2.8070895053     0.6924623219    -1.7198212482
   24      H       3.5331988054     0.1184745597     1.3745888106
   25      H       3.1133240665    -1.9099795643     0.2541333025
   26      H       3.1759821012     2.2693268051    -0.3150034297
   27      H       5.2216517340     1.6479564390    -1.4400133455
   28      H       5.4505959039     0.9664079245     0.2250200380
   29      H       5.2994135670    -0.3851617357    -2.3462088184
   30      H       5.2249779463    -1.2875647484    -0.7638918775
   31      H       3.0663708271    -1.3351277572    -2.3672151232
   32      O      -0.3488190445     0.4446381720    -0.9552051665
   33      C      -1.4377810266    -2.4544878331     2.7690051196
   34      C      -3.6513299213    -0.2860643227    -1.1443154322
   35      C      -4.8075240473     0.7074404987    -1.2518441793
   36      C      -4.0489392970     2.0162371895    -1.3334261384
   37      C      -2.6068723019     1.4964528536    -1.3947381700
   38      O      -2.7243286182     0.2580201898    -2.0528945976
   39      H      -3.8050272513     0.0287472998     0.9862835468
   40      H      -2.4625356987     1.7393569065     0.7717849199
   41      H      -0.5157604615    -2.8713656344     2.3286911528
   42      H      -4.0150656766    -1.3116803817    -1.3716665721
   43      H      -5.3002280400     0.5223465246    -2.2336376974
   44      H      -5.5720701830     0.6509253176    -0.4474302662
   45      H      -4.3276811595     2.5243410782    -2.2831848137
   46      H      -4.1969435553     2.7069273315    -0.4755947147
   47      H      -1.9414990081     2.2505041372    -1.8695954846
   48      H      -2.2201836782    -3.2409950125     2.8221511221
   49      H      -1.2031999618    -2.1148272416     3.7984951132
   50      H       0.0930673198    -4.3800301746     0.5721199084
   51      H       1.3115951258    -4.1681380106    -0.7355137774
   52      H      -0.3859416213    -3.6350983024    -1.0056493126
   53      H       0.8531518935     3.4968736693     3.0299199661
   54      H       0.0469740333     1.9061026805     3.1500900307
   55      H      -1.3531143515     3.1465056634     1.5238863243
   56      H       0.0422478260     3.8317234555     0.9338737184
 ----------------------------------------------------------------
 Molecular Point Group                 C1    NOp =  1
 Largest Abelian Subgroup              C1    NOp =  1
 Nuclear Repulsion Energy =  3572.1790863225 hartrees
 There are      113 alpha and      113 beta electrons
 Requested basis set is STO-3G
 There are 86 shells and 176 basis functions

 Total QAlloc Memory Limit   4000 MB
 Mega-Array Size       392 MB
 MEM_STATIC part       400 MB
 A cutoff of  1.0D-12 yielded   2743 shell pairs
 There are     13315 function pairs
 
 -------------------------------------------------------
 OpenMP Integral Computing Module                       
 Release: version 1.0, May 2013, Q-Chem Inc. Pittsburgh 
 -------------------------------------------------------
 Integral Job Info:
 Integral job number is                      11
 Integral operator is                         1
 short-range coefficients                     0
 long-range coefficients              100000000
 Omega coefficients                           0
 if combine SR and LR in K                    0
 Integral screening is                        0
 Integral computing path is                   2
 max size of driver memory is            800000
 size of driver memory is                 45569
 size of scratch memory is              1046100
 max col of scratch BK array                289
 max len of scratch array in speh3           22
 max len of scratch index in speh4            8
 max int batch size is                      520
 min int batch size is                       52
 fixed nKL is                                52
 max L of basis functions is                  1
 order of int derivative is                   0
 number of shells is                         86
 number of basis is                         176
 number of cartesian basis is               176
 number of contracted shell pairs          2743
 number of primitive shell pairs          13216
 maxK2 (contraction) of shell pair            9
 max number of K2 of shell pair               1
 max number of CS2 of shell pair            444
 max number of PS2 of shell pair           1422
 mem total for path MDJ                   56394
 -------------------------------------------------------
 Smallest overlap matrix eigenvalue = 1.81E-01

 Scale SEOQF with 1.000000e-02/1.000000e-01/1.000000e-01

 Standard Electronic Orientation quadrupole field applied
 Nucleus-field energy     =     0.0000000051 hartrees
 Guess from superposition of atomic densities
 Warning:  Energy on first SCF cycle will be non-variational
 A restricted hybrid HF-DFT SCF calculation will be
 performed using Pulay DIIS extrapolation
 Exchange:     0.2000 Hartree-Fock + 0.0800 Slater + 0.7200 B88
 Correlation:  0.1900 VWN1RPA + 0.8100 LYP
 Using SG-1 standard quadrature grid
 Dispersion:   Grimme D3
 SCF converges when DIIS error is below 1.0E-08
 using 48 threads for integral computing
 -------------------------------------------------------
 OpenMP Integral computing Module                
 Release: version 1.0, May 2013, Q-Chem Inc. Pittsburgh 
 -------------------------------------------------------
 -------------------------------------------------------
 OpenMP BLAS3 based DFT computing Module                
 Release: version 1.0, May 2013, Q-Chem Inc. Pittsburgh 
 -------------------------------------------------------
 ---------------------------------------
  Cycle       Energy         DIIS Error
 ---------------------------------------
    1   -1509.6580073781      8.39E-02
    2   -1509.3051098489      1.10E-02
    3   -1506.5624553654      2.84E-02
    4   -1509.8303551856      3.95E-03
    5   -1509.8840130160      2.14E-03
    6   -1509.8988165853      1.06E-03
    7   -1509.9035402611      2.32E-04
    8   -1509.9037638697      7.90E-05
    9   -1509.9037856421      4.02E-05
   10   -1509.9037922722      1.15E-05
   11   -1509.9037928724      1.89E-06
   12   -1509.9037928854      9.38E-07
   13   -1509.9037928891      3.69E-07
   14   -1509.9037928897      7.60E-08
   15   -1509.9037928897      3.27E-08
   16   -1509.9037928898      9.03E-09 Convergence criterion met
 ---------------------------------------
 SCF time:  CPU 133.69 s  wall 2.84 s
 SCF   energy in the final basis set = -1509.90379289
 Total energy in the final basis set = -1509.90379289
 
 --------------------------------------------------------------
 
                    Orbital Energies (a.u.)
 --------------------------------------------------------------
 
 Alpha MOs
 -- Occupied --
-18.952 -18.921 -18.918 -18.900 -18.893 -18.892 -18.887 -18.864
-18.845 -18.839 -10.115 -10.106 -10.100 -10.096 -10.081 -10.074
-10.068 -10.065 -10.058 -10.058 -10.057 -10.054 -10.036 -10.029
-10.029 -10.028 -10.016 -10.012 -10.009 -10.006  -1.099  -1.042
 -1.029  -1.027  -1.015  -1.011  -0.977  -0.935  -0.934  -0.929
 -0.776  -0.771  -0.738  -0.736  -0.729  -0.714  -0.710  -0.672
 -0.662  -0.626  -0.606  -0.590  -0.555  -0.543  -0.535  -0.529
 -0.523  -0.518  -0.497  -0.481  -0.479  -0.471  -0.465  -0.458
 -0.449  -0.441  -0.437  -0.435  -0.425  -0.418  -0.411  -0.409
 -0.400  -0.396  -0.386  -0.380  -0.376  -0.366  -0.356  -0.350
 -0.346  -0.343  -0.339  -0.333  -0.326  -0.320  -0.317  -0.314
 -0.308  -0.301  -0.298  -0.292  -0.290  -0.285  -0.281  -0.270
 -0.266  -0.247  -0.231  -0.227  -0.222  -0.212  -0.204  -0.181
 -0.160  -0.153  -0.149  -0.145  -0.143  -0.136  -0.129  -0.125
 -0.123
 -- Virtual --
  0.041   0.088   0.101   0.129   0.240   0.245   0.262   0.276
  0.297   0.320   0.324   0.337   0.343   0.350   0.352   0.358
  0.365   0.369   0.385   0.390   0.396   0.399   0.401   0.405
  0.408   0.413   0.415   0.419   0.423   0.425   0.436   0.441
  0.442   0.443   0.457   0.460   0.462   0.465   0.467   0.468
  0.472   0.476   0.481   0.481   0.487   0.493   0.494   0.499
  0.500   0.512   0.519   0.537   0.539   0.556   0.560   0.566
  0.582   0.592   0.595   0.661   0.696   0.704   0.784
 --------------------------------------------------------------
 
          Ground-State Mulliken Net Atomic Charges

     Atom                 Charge (a.u.)
  ----------------------------------------
      1 O                    -0.234566
      2 C                     0.238492
      3 C                    -0.079035
      4 C                    -0.071354
      5 C                     0.217639
      6 O                    -0.166564
      7 C                    -0.065345
      8 C                    -0.037257
      9 O                    -0.202841
     10 C                     0.230427
     11 C                    -0.075191
     12 C                    -0.076953
     13 C                     0.243758
     14 O                    -0.188500
     15 O                    -0.212270
     16 O                    -0.227225
     17 O                    -0.235453
     18 C                    -0.098800
     19 C                     0.037630
     20 C                    -0.142537
     21 C                    -0.144966
     22 C                     0.042571
     23 O                    -0.205954
     24 H                     0.088902
     25 H                     0.085494
     26 H                     0.083791
     27 H                     0.072239
     28 H                     0.069361
     29 H                     0.075224
     30 H                     0.069159
     31 H                     0.085112
     32 O                    -0.166527
     33 C                    -0.099236
     34 C                     0.040929
     35 C                    -0.142482
     36 C                    -0.144987
     37 C                     0.040766
     38 O                    -0.198735
     39 H                     0.079404
     40 H                     0.074215
     41 H                     0.099459
     42 H                     0.089814
     43 H                     0.075632
     44 H                     0.070000
     45 H                     0.078388
     46 H                     0.068733
     47 H                     0.086594
     48 H                     0.078401
     49 H                     0.091083
     50 H                     0.087160
     51 H                     0.068866
     52 H                     0.096864
     53 H                     0.093030
     54 H                     0.080237
     55 H                     0.095007
     56 H                     0.082394
  ----------------------------------------
  Sum of atomic charges =    -0.000000

 -----------------------------------------------------------------
                    Cartesian Multipole Moments
 -----------------------------------------------------------------
    Charge (ESU x 10^10)
                 0.0000
    Dipole Moment (Debye)
         X      -0.5043      Y       1.8470      Z       3.3763
       Tot       3.8814
    Quadrupole Moments (Debye-Ang)
        XX    -143.4796     XY      -8.8434     YY    -147.2425
        XZ      -3.6158     YZ       2.0814     ZZ    -164.3907
    Octopole Moments (Debye-Ang^2)
       XXX      -7.7226    XXY      -6.7104    XYY      -0.0336
       YYY      -6.0928    XXZ      -3.6370    XYZ      10.0127
       YYZ      20.1521    XZZ      -6.9648    YZZ      -3.7857
       ZZZ      25.1480
    Hexadecapole Moments (Debye-Ang^3)
      XXXX   -6751.1033   XXXY      16.9194   XXYY   -1637.3644
      XYYY       9.9207   YYYY   -2747.2548   XXXZ       6.4506
      XXYZ     -14.8126   XYYZ     -24.9280   YYYZ      27.7436
      XXZZ   -1468.7608   XYZZ       8.0313   YYZZ    -737.0318
      XZZZ     -15.2318   YZZZ      -9.2325   ZZZZ   -1917.3932
 -----------------------------------------------------------------
 Calculating analytic gradient of the SCF energy
 Gradient of SCF Energy
            1           2           3           4           5           6
    1  -0.0008177  -0.0092547   0.0299473   0.0873390   0.1126946  -0.0463965
    2   0.0536495   0.0265898   0.0006987  -0.0167223  -0.0564770  -0.0901041
    3   0.0436329   0.0100727  -0.0236657  -0.0961653  -0.0755501  -0.0517022
            7           8           9          10          11          12
    1  -0.0331922   0.0255916  -0.0607204  -0.0356311  -0.0373376  -0.0247017
    2  -0.0972478   0.0379831  -0.1122073   0.0437322  -0.0136283   0.0042997
    3   0.0125737  -0.0490211  -0.0103080  -0.0410991  -0.0024115  -0.0260771
           13          14          15          16          17          18
    1  -0.0221704   0.0254681   0.0175552  -0.0079333   0.0885566   0.0149085
    2   0.0479480  -0.0228933  -0.1142783  -0.0085079   0.0723106   0.0355062
    3   0.0221991   0.0725962  -0.0341015  -0.1230235  -0.0066502   0.0396395
           19          20          21          22          23          24
    1  -0.0177142  -0.0432347  -0.0354372  -0.0037358   0.0484675   0.0070793
    2  -0.0513290  -0.0311220   0.0288104   0.0627359  -0.0350898  -0.0038872
    3  -0.0402207  -0.0087400   0.0092939   0.0331763   0.0642032   0.0028030
           25          26          27          28          29          30
    1   0.0067113   0.0101051  -0.0020416   0.0059566   0.0045337  -0.0004047
    2  -0.0066323   0.0043520   0.0035648   0.0000370   0.0100135  -0.0074004
    3  -0.0004587   0.0071978  -0.0106088   0.0059104  -0.0074732   0.0048269
           31          32          33          34          35          36
    1   0.0091883  -0.0865409  -0.0142394   0.0392320   0.0518241   0.0154165
    2  -0.0107994   0.1568048   0.0546357   0.0591853   0.0077936  -0.0443356
    3   0.0014353   0.2291220  -0.0117017  -0.0183588   0.0025500  -0.0045859
           37          38          39          40          41          42
    1  -0.0434846  -0.0370979  -0.0099108  -0.0042294  -0.0061385  -0.0139278
    2  -0.0563429   0.0317458  -0.0077808  -0.0164749   0.0074543   0.0001377
    3   0.0007279   0.0707904   0.0023305  -0.0043696   0.0015967   0.0055336
           43          44          45          46          47          48
    1   0.0018907  -0.0065182  -0.0078172   0.0029178  -0.0035917  -0.0028321
    2   0.0001216   0.0007379  -0.0035635   0.0041403   0.0117131   0.0076836
    3  -0.0112781   0.0047951  -0.0105281   0.0068154   0.0062760  -0.0023221
           49          50          51          52          53          54
    1   0.0017824   0.0009385  -0.0009503   0.0043200  -0.0067710   0.0004199
    2  -0.0031197  -0.0031932   0.0065445   0.0059141   0.0022403   0.0002157
    3   0.0012947  -0.0003991   0.0031691   0.0025584   0.0074131  -0.0089430
           55          56
    1   0.0125700  -0.0006409
    2   0.0286850  -0.0048480
    3  -0.0022212   0.0074502
 Max gradient component =       2.291E-01
 RMS gradient           =       4.161E-02
 Gradient time:  CPU 33.93 s  wall 0.72 s
 Geometry Optimization Parameters
   NAtoms,    NIC,     NZ,  NCons,   NDum,   NFix, NCnnct, MaxDiis
       56     458       0       9       0       0       0       0


** CONSTRAINED OPTIMIZATION IN DELOCALIZED INTERNAL COORDINATES **
   Searching for a Minimum

   Optimization Cycle:   1

                       Coordinates (Angstroms)
     ATOM                X               Y               Z
      1  O        -2.1994201154   -2.4591374284    0.1046368132
      2  C        -2.3198367009   -1.4251931668    0.7460924593
      3  C        -2.9868787265   -0.1607130548    0.2513826705
      4  C        -2.0849785605    1.0604157200    0.0079033827
      5  C        -0.5939244024    0.8297853022    0.1157552599
      6  O         0.0591311909    2.0285872812    0.1584874263
      7  C        -0.3255122552    2.8399500091    1.2733905840
      8  C         0.5995221617    2.5787249781    2.4575283368
      9  O         1.7679938635    1.8683055699    2.0183783435
     10  C         1.5326033230    0.7860962688    1.2357056588
     11  C         2.7802504971    0.2625357914    0.5649398865
     12  C         2.5939552840   -1.0452172048   -0.2182237362
     13  C         1.1610174833   -1.4392184100   -0.5151263470
     14  O         0.6066249899   -1.3321916129   -1.5994647963
     15  O        -1.8948446154   -1.3794613061    2.0370403051
     16  O         0.7593899709   -2.4735029491    0.2646054541
     17  O         0.9166803487   -0.0992279793    1.8340580505
     18  C         0.4222422603   -3.7129434463   -0.2501639984
     19  C         3.3477933539    1.1903780704   -0.5213122682
     20  C         4.8381841540    0.9087825689   -0.7005048001
     21  C         4.7904147391   -0.4555770407   -1.3593159228
     22  C         3.2760472650   -0.6231329881   -1.5385652645
     23  O         2.8070895053    0.6924623219   -1.7198212482
     24  H         3.5331988054    0.1184745597    1.3745888106
     25  H         3.1133240665   -1.9099795643    0.2541333025
     26  H         3.1759821012    2.2693268051   -0.3150034297
     27  H         5.2216517340    1.6479564390   -1.4400133455
     28  H         5.4505959039    0.9664079245    0.2250200380
     29  H         5.2994135670   -0.3851617357   -2.3462088184
     30  H         5.2249779463   -1.2875647484   -0.7638918775
     31  H         3.0663708271   -1.3351277572   -2.3672151232
     32  O        -0.3488190445    0.4446381720   -0.9552051665
     33  C        -1.4377810266   -2.4544878331    2.7690051196
     34  C        -3.6513299213   -0.2860643227   -1.1443154322
     35  C        -4.8075240473    0.7074404987   -1.2518441793
     36  C        -4.0489392970    2.0162371895   -1.3334261384
     37  C        -2.6068723019    1.4964528536   -1.3947381700
     38  O        -2.7243286182    0.2580201898   -2.0528945976
     39  H        -3.8050272513    0.0287472998    0.9862835468
     40  H        -2.4625356987    1.7393569065    0.7717849199
     41  H        -0.5157604615   -2.8713656344    2.3286911528
     42  H        -4.0150656766   -1.3116803817   -1.3716665721
     43  H        -5.3002280400    0.5223465246   -2.2336376974
     44  H        -5.5720701830    0.6509253176   -0.4474302662
     45  H        -4.3276811595    2.5243410782   -2.2831848137
     46  H        -4.1969435553    2.7069273315   -0.4755947147
     47  H        -1.9414990081    2.2505041372   -1.8695954846
     48  H        -2.2201836782   -3.2409950125    2.8221511221
     49  H        -1.2031999618   -2.1148272416    3.7984951132
     50  H         0.0930673198   -4.3800301746    0.5721199084
     51  H         1.3115951258   -4.1681380106   -0.7355137774
     52  H        -0.3859416213   -3.6350983024   -1.0056493126
     53  H         0.8531518935    3.4968736693    3.0299199661
     54  H         0.0469740333    1.9061026805    3.1500900307
     55  H        -1.3531143515    3.1465056634    1.5238863243
     56  H         0.0422478260    3.8317234555    0.9338737184
   Point Group: c1    Number of degrees of freedom:   162


   Energy is  -1509.903792890

              Constraints and their Current Values
                                        Value     Constraint
   Dihedral:        1   2   3   4     -111.539     -111.538
   Dihedral:        3   4   5   6     -167.272     -167.271
   Dihedral:        4   5   6   7       60.226       60.226
   Dihedral:        5   6   7   8       91.885       91.885
   Dihedral:        6   7   8   9       14.483       14.483
   Dihedral:        7   8   9  10      -48.432      -48.433
   Dihedral:        8   9  10  11      167.528      167.529
   Dihedral:        9  10  11  12      174.086      174.086
   Dihedral:       11  12  13  14      104.210      104.211

 Attempting to Generate Delocalized Internal Coordinates

   Using Lagrange Multiplier Algorithm


171 Hessian modes will be used to form the next step
  Hessian Eigenvalues:
    -0.977753   -0.977753   -0.977753   -0.977753   -0.977753   -0.977753
    -0.977753   -0.977753   -0.977753    0.045000    0.045000    0.045000
     0.045000    0.045050    0.045590    0.045601    0.048851    0.048862
     0.049175    0.052449    0.057268    0.059593    0.060133    0.060924
     0.063698    0.065079    0.065182    0.066362    0.067062    0.068226
     0.069171    0.071749    0.072542    0.074718    0.074882    0.075985
     0.076416    0.077607    0.080934    0.082451    0.082475    0.083606
     0.084448    0.084999    0.085260    0.085431    0.085826    0.086575
     0.086963    0.088344    0.088711    0.089002    0.089102    0.089284
     0.089420    0.089851    0.090228    0.093807    0.094128    0.096638
     0.096835    0.111548    0.111641    0.113636    0.113855    0.115632
     0.115984    0.116665    0.116667    0.117042    0.118610    0.119359
     0.122318    0.126797    0.131217    0.131975    0.140624    0.142180
     0.142469    0.160000    0.160000    0.160000    0.160000    0.160000
     0.160000    0.169761    0.171225    0.172288    0.172666    0.177242
     0.193680    0.218606    0.220248    0.233406    0.236408    0.241447
     0.249782    0.250000    0.250000    0.250000    0.250000    0.250000
     0.250000    0.250000    0.250000    0.258048    0.258922    0.266579
     0.267164    0.273528    0.278238    0.278771    0.284424    0.294833
     0.295123    0.298751    0.308055    0.310698    0.310871    0.313316
     0.319782    0.320767    0.321830    0.321950    0.322128    0.323208
     0.323249    0.323412    0.323501    0.323769    0.324048    0.324205
     0.324348    0.324638    0.324642    0.324701    0.324714    0.325033
     0.325231    0.325299    0.326886    0.327014    0.327238    0.332944
     0.335473    0.348697    0.368183    0.368402    0.383122    0.383584
     0.401013    0.407707    0.484163    0.493709    0.517905    0.529731
     0.537319    0.537419    0.896992    0.941950    0.942682    1.022753
     1.022753    1.022753    1.022753    1.022753    1.022753    1.022753
     1.022753    1.022753    1.250815

 Minimum Search - Taking P-RFO Step
 Searching for Lamda that Maximizes Along the Constraint modes Only
 Value Taken    Lamda =   0.02551891
 Searching for Lamda that Minimizes Along All other modes
 Value Taken    Lamda =  -0.49347852
 Calculated Step too Large.  Step scaled by  0.389300
 Step Taken.  Stepsize is  0.300000

                             Maximum     Tolerance    Cnvgd?
         Gradient            0.352496       0.000300      NO
         Displacement        0.187393       0.001200      NO
         Energy change     *********       0.000001      NO


 New Cartesian Coordinates Obtained by Inverse Iteration

 Displacement from previous Coordinates is:  8.743473
 Adding empirical dispersion correction 
 ----------------------------------------------------------------
 Doing -D3(op) with
 s6 =   1.00000
 s8 =   0.78311
 a1 =   0.30000
 a2 =   4.25000
 n  =  10.00000
 -D3 energy without 3body term =     -0.0712689230 hartrees
 ----------------------------------------------------------------
             Standard Nuclear Orientation (Angstroms)
    I     Atom           X                Y                Z
 ----------------------------------------------------------------
    1      O      -2.8457546597    -2.3052482075    -0.0261942599
    2      C      -2.8116769437    -1.2829622619     0.6614545940
    3      C      -3.4677254555     0.0423171184     0.3069733785
    4      C      -2.5277849797     1.2250353876    -0.0282420096
    5      C      -1.0351556875     0.8946322499    -0.1501087283
    6      O      -0.2583851045     2.0545168813    -0.1723224769
    7      C      -0.3866953706     2.8589235587     1.0109533680
    8      C       0.6368192724     2.5605531282     2.1320683161
    9      O       1.7843132415     1.7545047701     1.7626065074
   10      C       1.6563452033     0.5816370106     1.0524081582
   11      C       3.0329876016     0.1371677049     0.5561048331
   12      C       3.0976729031    -1.2425749812    -0.1490451245
   13      C       1.7718418448    -1.8539306202    -0.5859330160
   14      O       1.3543470615    -1.8885655189    -1.7463451819
   15      O      -2.2023393163    -1.2878331372     1.8874386828
   16      O       1.4044285003    -2.8850491909     0.2399956270
   17      O       1.0195247666    -0.3113394089     1.6480330040
   18      C       1.2963420106    -4.1954243441    -0.2313288958
   19      C       3.6230592941     1.0609779436    -0.5368418168
   20      C       5.1557638956     0.9508189743    -0.5265629411
   21      C       5.3441359646    -0.4556179026    -1.0815743581
   22      C       3.8843510615    -0.8229203284    -1.4204335051
   23      O       3.2843982985     0.4208382800    -1.7599703758
   24      H       3.6922566526     0.1321593845     1.4530066166
   25      H       3.6503528075    -2.0002113028     0.4481690378
   26      H       3.3069102056     2.1209457869    -0.4343825008
   27      H       5.5396846207     1.6821102184    -1.2703505090
   28      H       5.6399627735     1.1406635538     0.4531797863
   29      H       5.9563447457    -0.3898404001    -2.0054952056
   30      H       5.7951441995    -1.1857312090    -0.3782632364
   31      H       3.8606832259    -1.6067357032    -2.2080381165
   32      O      -0.9549986391     0.4925028304    -1.2750863803
   33      C      -1.7054905705    -2.4337499803     2.5022229143
   34      C      -4.3354540970     0.0026672694    -0.9850715538
   35      C      -5.4337103674     1.0744580374    -0.8885751405
   36      C      -4.6037502183     2.3463314904    -1.0452928510
   37      C      -3.2146584421     1.7405204556    -1.3378996046
   38      O      -3.5084620524     0.5264551680    -2.0133775698
   39      H      -4.1566429225     0.2539070698     1.1565230075
   40      H      -2.7451343142     1.9049822181     0.7986726439
   41      H      -0.8818709100    -2.8791404129     1.9141807556
   42      H      -4.7887900020    -0.9912750750    -1.1865668030
   43      H      -6.0764966339     0.9575876227    -1.7880194147
   44      H      -6.0723377890     1.0331182830     0.0174158772
   45      H      -4.9824909773     2.9069811519    -1.9255840444
   46      H      -4.5789984019     3.0101778632    -0.1568321638
   47      H      -2.5750022901     2.4656864478    -1.8856544669
   48      H      -2.5144062220    -3.1836128734     2.6398031376
   49      H      -1.3048184451    -2.1560234792     3.4983252354
   50      H       0.9529393035    -4.8538859260     0.5916277828
   51      H       2.2902181154    -4.5558642774    -0.5758788539
   52      H       0.5858337000    -4.2724341426    -1.0808714181
   53      H       0.9722579433     3.4888655091     2.6403648984
   54      H       0.0823177479     1.9522137808     2.8825011301
   55      H      -1.3529790468     3.2348050493     1.3851612616
   56      H       0.0120241585     3.8202037565     0.6173723748
 ----------------------------------------------------------------
 Molecular Point Group                 C1    NOp =  1
 Largest Abelian Subgroup              C1    NOp =  1
 Nuclear Repulsion Energy =  3365.4054071561 hartrees
 There are      113 alpha and      113 beta electrons
 Applying Cartesian multipole field
    Component          Value
    ---------          -----
     (2,0,0)        1.00000E-12
     (0,2,0)        2.00000E-11
     (0,0,2)       -3.00000E-11
 Nucleus-field energy     =     0.0000000207 hartrees
 Requested basis set is STO-3G
 There are 86 shells and 176 basis functions
 A cutoff of  1.0D-12 yielded   2478 shell pairs
 There are     12117 function pairs
 Smallest overlap matrix eigenvalue = 1.94E-01
 Guess MOs from SCF MO coefficient file
 Reading MOs from coefficient file
 Reading MOs from coefficient file
 A restricted hybrid HF-DFT SCF calculation will be
 performed using Pulay DIIS extrapolation
 Exchange:     0.2000 Hartree-Fock + 0.0800 Slater + 0.7200 B88
 Correlation:  0.1900 VWN1RPA + 0.8100 LYP
 Using SG-1 standard quadrature grid
 Dispersion:   Grimme D3
 SCF converges when DIIS error is below 1.0E-08
 Geometry optimization detected.  Setting ReadMinima to 0
 Setting SaveMinima to 0
 using 48 threads for integral computing
 -------------------------------------------------------
 OpenMP Integral computing Module                
 Release: version 1.0, May 2013, Q-Chem Inc. Pittsburgh 
 -------------------------------------------------------
 -------------------------------------------------------
 OpenMP BLAS3 based DFT computing Module                
 Release: version 1.0, May 2013, Q-Chem Inc. Pittsburgh 
 -------------------------------------------------------
 ---------------------------------------
  Cycle       Energy         DIIS Error
 ---------------------------------------
    1   -1509.5423970831      9.93E-03
    2   -1509.9783937693      1.72E-03
    3   -1509.9583554910      2.78E-03
    4   -1509.9919031014      7.57E-04
    5   -1509.9944932698      1.62E-04
    6   -1509.9945837430      9.00E-05
    7   -1509.9946148648      3.90E-05
    8   -1509.9946219515      6.34E-06
    9   -1509.9946221595      2.65E-06
   10   -1509.9946221841      1.86E-06
   11   -1509.9946222012      4.96E-07
   12   -1509.9946222025      2.01E-07
   13   -1509.9946222027      1.21E-07
   14   -1509.9946222028      2.25E-08
   15   -1509.9946222029      7.95E-09 Convergence criterion met
 ---------------------------------------
 SCF time:  CPU 111.16 s  wall 2.32 s
 SCF   energy in the final basis set = -1509.99462220
 Total energy in the final basis set = -1509.99462220
 
 --------------------------------------------------------------
 
                    Orbital Energies (a.u.)
 --------------------------------------------------------------
 
 Alpha MOs
 -- Occupied --
-18.948 -18.926 -18.921 -18.896 -18.895 -18.891 -18.889 -18.864
-18.861 -18.849 -10.108 -10.104 -10.099 -10.098 -10.085 -10.076
-10.068 -10.068 -10.065 -10.060 -10.059 -10.056 -10.041 -10.034
-10.033 -10.032 -10.019 -10.015 -10.012 -10.009  -1.067  -1.030
 -1.025  -1.021  -1.010  -1.004  -0.962  -0.934  -0.933  -0.928
 -0.775  -0.770  -0.735  -0.735  -0.728  -0.714  -0.709  -0.671
 -0.664  -0.627  -0.605  -0.590  -0.555  -0.544  -0.537  -0.530
 -0.523  -0.515  -0.494  -0.478  -0.473  -0.467  -0.459  -0.457
 -0.447  -0.441  -0.435  -0.429  -0.422  -0.414  -0.412  -0.409
 -0.406  -0.394  -0.381  -0.379  -0.376  -0.365  -0.358  -0.352
 -0.345  -0.342  -0.338  -0.334  -0.331  -0.322  -0.322  -0.310
 -0.307  -0.303  -0.298  -0.292  -0.291  -0.286  -0.280  -0.277
 -0.268  -0.251  -0.234  -0.231  -0.226  -0.217  -0.204  -0.189
 -0.163  -0.159  -0.151  -0.150  -0.145  -0.143  -0.135  -0.132
 -0.131
 -- Virtual --
  0.033   0.064   0.092   0.123   0.227   0.241   0.256   0.263
  0.290   0.308   0.310   0.328   0.336   0.341   0.346   0.353
  0.356   0.361   0.376   0.388   0.389   0.392   0.393   0.398
  0.402   0.406   0.410   0.411   0.413   0.419   0.419   0.432
  0.433   0.437   0.447   0.447   0.451   0.455   0.457   0.460
  0.460   0.463   0.468   0.468   0.476   0.483   0.484   0.492
  0.494   0.501   0.503   0.519   0.521   0.543   0.549   0.559
  0.570   0.578   0.582   0.627   0.677   0.687   0.720
 --------------------------------------------------------------
 
          Ground-State Mulliken Net Atomic Charges

     Atom                 Charge (a.u.)
  ----------------------------------------
      1 O                    -0.226341
      2 C                     0.230165
      3 C                    -0.079059
      4 C                    -0.070895
      5 C                     0.205204
      6 O                    -0.160487
      7 C                    -0.063831
      8 C                    -0.037643
      9 O                    -0.196770
     10 C                     0.216191
     11 C                    -0.073543
     12 C                    -0.077445
     13 C                     0.238277
     14 O                    -0.203594
     15 O                    -0.209080
     16 O                    -0.222624
     17 O                    -0.205623
     18 C                    -0.102935
     19 C                     0.034913
     20 C                    -0.142991
     21 C                    -0.145276
     22 C                     0.039685
     23 O                    -0.201535
     24 H                     0.089116
     25 H                     0.085973
     26 H                     0.084601
     27 H                     0.073399
     28 H                     0.070256
     29 H                     0.075998
     30 H                     0.069820
     31 H                     0.085556
     32 O                    -0.166909
     33 C                    -0.102686
     34 C                     0.038428
     35 C                    -0.142845
     36 C                    -0.145026
     37 C                     0.038687
     38 O                    -0.195208
     39 H                     0.080554
     40 H                     0.074611
     41 H                     0.098262
     42 H                     0.091228
     43 H                     0.076283
     44 H                     0.071038
     45 H                     0.079193
     46 H                     0.069805
     47 H                     0.086800
     48 H                     0.080925
     49 H                     0.092860
     50 H                     0.088858
     51 H                     0.072532
     52 H                     0.088703
     53 H                     0.094489
     54 H                     0.078368
     55 H                     0.090114
     56 H                     0.081454
  ----------------------------------------
  Sum of atomic charges =     0.000000

 -----------------------------------------------------------------
                    Cartesian Multipole Moments
 -----------------------------------------------------------------
    Charge (ESU x 10^10)
                -0.0000
    Dipole Moment (Debye)
         X       0.1251      Y       2.3616      Z       4.4172
       Tot       5.0104
    Quadrupole Moments (Debye-Ang)
        XX    -140.2175     XY     -11.2748     YY    -144.9986
        XZ      -4.1115     YZ       0.8868     ZZ    -166.7215
    Octopole Moments (Debye-Ang^2)
       XXX      11.6122    XXY       2.1545    XYY      12.7837
       YYY      -5.1287    XXZ      12.9663    XYZ      13.2680
       YYZ      24.5755    XZZ      -0.2803    YZZ       2.2187
       ZZZ      47.3182
    Hexadecapole Moments (Debye-Ang^3)
      XXXX   -8827.1800   XXXY     332.1030   XXYY   -2055.0517
      XYYY     351.4025   YYYY   -3062.5616   XXXZ      15.3004
      XXYZ     -11.9992   XYYZ     -16.8791   YYYZ      39.0387
      XXZZ   -1812.8311   XYZZ     143.4535   YYZZ    -767.2159
      XZZZ      19.3085   YZZZ       4.9485   ZZZZ   -1646.0542
 -----------------------------------------------------------------
 Calculating analytic gradient of the SCF energy
 Gradient of SCF Energy
            1           2           3           4           5           6
    1   0.0050937  -0.0047276   0.0210940   0.0567230   0.0609646  -0.0415805
    2   0.0355261   0.0330425   0.0013333  -0.0156787  -0.0641619  -0.0394683
    3   0.0308460   0.0175958  -0.0227868  -0.0967211  -0.0186179  -0.0512497
            7           8           9          10          11          12
    1  -0.0437449   0.0281540  -0.0422263  -0.0068137  -0.0247567  -0.0164260
    2  -0.0839327   0.0485240  -0.0940326   0.0448416  -0.0119441  -0.0066304
    3   0.0191906  -0.0394095   0.0133455  -0.0541004   0.0011028  -0.0268874
           13          14          15          16          17          18
    1  -0.0119631   0.0204906   0.0047194   0.0068326   0.0615888   0.0058126
    2   0.0373199  -0.0260257  -0.0984534  -0.0172900   0.0419913   0.0297332
    3   0.0317768   0.0483410  -0.0356417  -0.1054934   0.0140716   0.0337935
           19          20          21          22          23          24
    1  -0.0075436  -0.0299509  -0.0310742  -0.0142101   0.0346554   0.0053210
    2  -0.0442564  -0.0303287   0.0199935   0.0517979  -0.0201721  -0.0022672
    3  -0.0319365  -0.0080480   0.0019883   0.0211519   0.0558908   0.0033124
           25          26          27          28          29          30
    1   0.0056135   0.0086064  -0.0013002   0.0046823   0.0034298  -0.0004278
    2  -0.0049427   0.0050488   0.0017524   0.0011110   0.0092453  -0.0059615
    3   0.0001466   0.0079355  -0.0095203   0.0048787  -0.0060686   0.0042348
           31          32          33          34          35          36
    1   0.0100145  -0.0481041  -0.0107028   0.0347709   0.0407482   0.0100971
    2  -0.0088788   0.1413068   0.0489278   0.0454805   0.0021564  -0.0344002
    3   0.0039376   0.1511315  -0.0041597  -0.0196528  -0.0022656  -0.0071209
           37          38          39          40          41          42
    1  -0.0396540  -0.0208812  -0.0091965  -0.0076120  -0.0044081  -0.0121120
    2  -0.0432700   0.0247431  -0.0070548  -0.0149878   0.0072261   0.0009599
    3   0.0043167   0.0618114   0.0024743  -0.0033969   0.0019584   0.0072463
           43          44          45          46          47          48
    1   0.0005848  -0.0055610  -0.0083663   0.0039845  -0.0017248  -0.0027596
    2   0.0002761   0.0010621  -0.0028508   0.0032165   0.0106846   0.0059419
    3  -0.0096384   0.0042258  -0.0076571   0.0051836   0.0071958  -0.0007503
           49          50          51          52          53          54
    1   0.0016149   0.0012016  -0.0006128   0.0020006  -0.0052346   0.0010947
    2  -0.0033398  -0.0031826   0.0054277   0.0055841   0.0017927  -0.0030125
    3   0.0013092  -0.0010988   0.0022795   0.0028528   0.0060828  -0.0092496
           55          56
    1   0.0137533   0.0000284
    2   0.0249260  -0.0044495
    3  -0.0052872   0.0051500
 Max gradient component =       1.511E-01
 RMS gradient           =       3.270E-02
 Gradient time:  CPU 30.80 s  wall 0.65 s
 Geometry Optimization Parameters
   NAtoms,    NIC,     NZ,  NCons,   NDum,   NFix, NCnnct, MaxDiis
       56     458       0       9       0       0       0       0

 Cartesian Hessian Update
 Hessian Updated using BFGS Update


** CONSTRAINED OPTIMIZATION IN DELOCALIZED INTERNAL COORDINATES **
   Searching for a Minimum

   Optimization Cycle:   2

                       Coordinates (Angstroms)
     ATOM                X               Y               Z
      1  O        -2.8457546597   -2.3052482075   -0.0261942599
      2  C        -2.8116769437   -1.2829622619    0.6614545940
      3  C        -3.4677254555    0.0423171184    0.3069733785
      4  C        -2.5277849797    1.2250353876   -0.0282420096
      5  C        -1.0351556875    0.8946322499   -0.1501087283
      6  O        -0.2583851045    2.0545168813   -0.1723224769
      7  C        -0.3866953706    2.8589235587    1.0109533680
      8  C         0.6368192724    2.5605531282    2.1320683161
      9  O         1.7843132415    1.7545047701    1.7626065074
     10  C         1.6563452033    0.5816370106    1.0524081582
     11  C         3.0329876016    0.1371677049    0.5561048331
     12  C         3.0976729031   -1.2425749812   -0.1490451245
     13  C         1.7718418448   -1.8539306202   -0.5859330160
     14  O         1.3543470615   -1.8885655189   -1.7463451819
     15  O        -2.2023393163   -1.2878331372    1.8874386828
     16  O         1.4044285003   -2.8850491909    0.2399956270
     17  O         1.0195247666   -0.3113394089    1.6480330040
     18  C         1.2963420106   -4.1954243441   -0.2313288958
     19  C         3.6230592941    1.0609779436   -0.5368418168
     20  C         5.1557638956    0.9508189743   -0.5265629411
     21  C         5.3441359646   -0.4556179026   -1.0815743581
     22  C         3.8843510615   -0.8229203284   -1.4204335051
     23  O         3.2843982985    0.4208382800   -1.7599703758
     24  H         3.6922566526    0.1321593845    1.4530066166
     25  H         3.6503528075   -2.0002113028    0.4481690378
     26  H         3.3069102056    2.1209457869   -0.4343825008
     27  H         5.5396846207    1.6821102184   -1.2703505090
     28  H         5.6399627735    1.1406635538    0.4531797863
     29  H         5.9563447457   -0.3898404001   -2.0054952056
     30  H         5.7951441995   -1.1857312090   -0.3782632364
     31  H         3.8606832259   -1.6067357032   -2.2080381165
     32  O        -0.9549986391    0.4925028304   -1.2750863803
     33  C        -1.7054905705   -2.4337499803    2.5022229143
     34  C        -4.3354540970    0.0026672694   -0.9850715538
     35  C        -5.4337103674    1.0744580374   -0.8885751405
     36  C        -4.6037502183    2.3463314904   -1.0452928510
     37  C        -3.2146584421    1.7405204556   -1.3378996046
     38  O        -3.5084620524    0.5264551680   -2.0133775698
     39  H        -4.1566429225    0.2539070698    1.1565230075
     40  H        -2.7451343142    1.9049822181    0.7986726439
     41  H        -0.8818709100   -2.8791404129    1.9141807556
     42  H        -4.7887900020   -0.9912750750   -1.1865668030
     43  H        -6.0764966339    0.9575876227   -1.7880194147
     44  H        -6.0723377890    1.0331182830    0.0174158772
     45  H        -4.9824909773    2.9069811519   -1.9255840444
     46  H        -4.5789984019    3.0101778632   -0.1568321638
     47  H        -2.5750022901    2.4656864478   -1.8856544669
     48  H        -2.5144062220   -3.1836128734    2.6398031376
     49  H        -1.3048184451   -2.1560234792    3.4983252354
     50  H         0.9529393035   -4.8538859260    0.5916277828
     51  H         2.2902181154   -4.5558642774   -0.5758788539
     52  H         0.5858337000   -4.2724341426   -1.0808714181
     53  H         0.9722579433    3.4888655091    2.6403648984
     54  H         0.0823177479    1.9522137808    2.8825011301
     55  H        -1.3529790468    3.2348050493    1.3851612616
     56  H         0.0120241585    3.8202037565    0.6173723748
   Point Group: c1    Number of degrees of freedom:   162


   Energy is  -1509.994622203

              Constraints and their Current Values
                                        Value     Constraint
   Dihedral:        1   2   3   4     -111.509     -111.538
   Dihedral:        3   4   5   6     -167.485     -167.271
   Dihedral:        4   5   6   7       60.538       60.226
   Dihedral:        5   6   7   8       91.620       91.885
   Dihedral:        6   7   8   9       14.176       14.483
   Dihedral:        7   8   9  10      -47.943      -48.433
   Dihedral:        8   9  10  11      167.524      167.529
   Dihedral:        9  10  11  12      174.282      174.086
   Dihedral:       11  12  13  14      104.200      104.211
 Hessian Updated using BFGS Update

   Using Lagrange Multiplier Algorithm


159 Hessian modes will be used to form the next step
  Hessian Eigenvalues:
    -0.977756   -0.977753   -0.977753   -0.977753   -0.977753   -0.977753
    -0.977753   -0.977753   -0.916651    0.044941    0.045001    0.045046
     0.045596    0.045600    0.048846    0.048859    0.049036    0.052327
     0.056723    0.059569    0.060113    0.060917    0.063831    0.064918
     0.065177    0.066363    0.067060    0.068213    0.069078    0.071670
     0.072537    0.074531    0.074871    0.075912    0.076221    0.077171
     0.079750    0.082452    0.082470    0.083606    0.084100    0.084527
     0.085252    0.085432    0.085770    0.086410    0.087101    0.088172
     0.088719    0.088928    0.089118    0.089203    0.089473    0.089862
     0.090191    0.093819    0.094127    0.096645    0.096814    0.111550
     0.111616    0.113628    0.113854    0.115631    0.115984    0.116651
     0.116823    0.117044    0.118763    0.119346    0.122372    0.126862
     0.131236    0.131913    0.140936    0.142278    0.142599    0.159611
     0.160003    0.167632    0.171268    0.172074    0.172919    0.177095
     0.193618    0.218716    0.228941    0.234670    0.236154    0.236525
     0.241481    0.249784    0.257882    0.258774    0.266454    0.267100
     0.271914    0.274862    0.278405    0.282536    0.289776    0.294947
     0.296438    0.303239    0.308580    0.310702    0.312505    0.319746
     0.320731    0.321741    0.321918    0.322091    0.323094    0.323231
     0.323404    0.323484    0.323763    0.324036    0.324193    0.324299
     0.324561    0.324641    0.324675    0.324708    0.325010    0.325223
     0.325295    0.326885    0.326999    0.327238    0.332862    0.335433
     0.348242    0.356866    0.368183    0.368441    0.383270    0.398540
     0.406738    0.463312    0.487950    0.500216    0.527942    0.532279
     0.537013    0.859842    0.889239    0.926303    0.942281    1.022751
     1.022753    1.022753    1.022753    1.022753    1.022753    1.022753
     1.022753    1.109754    2.532381

 Minimum Search - Taking P-RFO Step
 Searching for Lamda that Maximizes Along the Constraint modes Only
 Value Taken    Lamda =   0.02340878
 Searching for Lamda that Minimizes Along All other modes
 Value Taken    Lamda =  -0.27117713
 Calculated Step too Large.  Step scaled by  0.400306
 Step Taken.  Stepsize is  0.300000

                             Maximum     Tolerance    Cnvgd?
         Gradient            0.114535       0.000300      NO
         Displacement        0.124050       0.001200      NO
         Energy change     -0.090829       0.000001      NO


 New Cartesian Coordinates Obtained by Inverse Iteration

 Displacement from previous Coordinates is:  2.562692
 Adding empirical dispersion correction 
 ----------------------------------------------------------------
 Doing -D3(op) with
 s6 =   1.00000
 s8 =   0.78311
 a1 =   0.30000
 a2 =   4.25000
 n  =  10.00000
 -D3 energy without 3body term =     -0.0728983425 hartrees
 ----------------------------------------------------------------
             Standard Nuclear Orientation (Angstroms)
    I     Atom           X                Y                Z
 ----------------------------------------------------------------
    1      O      -2.6069455004    -2.3528157706    -0.1405827971
    2      C      -2.6591247423    -1.3403985485     0.5826874502
    3      C      -3.3964760303    -0.0375445332     0.2511756637
    4      C      -2.5114395541     1.2192040436    -0.0227365427
    5      C      -0.9762729224     0.9607039871    -0.1213023265
    6      O      -0.1843995936     2.1561556315    -0.0881017020
    7      C      -0.3123420284     2.9640791129     1.1081125931
    8      C       0.7155526139     2.6564200419     2.2417489214
    9      O       1.8599603889     1.8482741705     1.8527095544
   10      C       1.6570870453     0.6681800827     1.1258782284
   11      C       3.0178387922     0.1786849155     0.5787305263
   12      C       2.9959551678    -1.2076898251    -0.1328503066
   13      C       1.6088903828    -1.7542741207    -0.5217667319
   14      O       1.1442643757    -1.7629883931    -1.6799905112
   15      O      -2.0778038823    -1.3105339065     1.8372949081
   16      O       1.2061896404    -2.7600754903     0.3541713540
   17      O       0.9593508872    -0.2100519025     1.7096941806
   18      C       0.9904492279    -4.0692588914    -0.1389263210
   19      C       3.6282957146     1.0891295253    -0.5321503512
   20      C       5.1667214793     0.8965923143    -0.5562565130
   21      C       5.2680421390    -0.5312057811    -1.1257139622
   22      C       3.7713114422    -0.8253452877    -1.4386095674
   23      O       3.2199731327     0.4649711994    -1.7668028507
   24      H       3.6972943231     0.1349100895     1.4559683291
   25      H       3.5246911619    -1.9893673605     0.4495223198
   26      H       3.3628611185     2.1605328156    -0.4205576469
   27      H       5.5737312942     1.6094006449    -1.3008634645
   28      H       5.6786508920     1.0552042467     0.4114792697
   29      H       5.8609771476    -0.4995959723    -2.0598256547
   30      H       5.6942599062    -1.2831728486    -0.4347192716
   31      H       3.6827800913    -1.6017476042    -2.2268253606
   32      O      -0.7907775585     0.5083098850    -1.2619221008
   33      C      -1.5112241910    -2.4738628285     2.4045411272
   34      C      -4.2334456472    -0.0985961367    -1.0703691482
   35      C      -5.3997948546     0.9185192966    -0.9630361930
   36      C      -4.6274749291     2.2515463660    -1.0679184818
   37      C      -3.1891623810     1.7272020064    -1.3524121405
   38      O      -3.4025509857     0.5034991367    -2.0773647048
   39      H      -4.1138851769     0.1132495154     1.0862373545
   40      H      -2.7817088545     1.8789863359     0.8109489384
   41      H      -0.6479477083    -2.8385620731     1.8116667580
   42      H      -4.6169172724    -1.1115665921    -1.3113373116
   43      H      -6.0190021242     0.7940048691    -1.8737175344
   44      H      -6.0491651324     0.8155485539    -0.0734273273
   45      H      -5.0159582493     2.8175674854    -1.9361172398
   46      H      -4.6559693792     2.8879323078    -0.1631338650
   47      H      -2.5733838202     2.4928542645    -1.8692981795
   48      H      -2.2672176993    -3.2857130608     2.4891204018
   49      H      -1.1474200225    -2.2202850828     3.4205807021
   50      H       0.6405631716    -4.7111068112     0.6939056425
   51      H       1.9402220448    -4.4958843964    -0.5332664351
   52      H       0.2376445637    -4.0945377407    -0.9568574990
   53      H       1.0564670037     3.5814005154     2.7497112881
   54      H       0.1654863999     2.0451132306     2.9964973792
   55      H      -1.2856325276     3.3296865188     1.4812030276
   56      H       0.0891824800     3.9276131207     0.7155945304
 ----------------------------------------------------------------
 Molecular Point Group                 C1    NOp =  1
 Largest Abelian Subgroup              C1    NOp =  1
 Nuclear Repulsion Energy =  3375.3157332256 hartrees
 There are      113 alpha and      113 beta electrons
 Applying Cartesian multipole field
    Component          Value
    ---------          -----
     (2,0,0)        1.00000E-12
     (0,2,0)        2.00000E-11
     (0,0,2)       -3.00000E-11
 Nucleus-field energy     =     0.0000000190 hartrees
 Requested basis set is STO-3G
 There are 86 shells and 176 basis functions
 A cutoff of  1.0D-12 yielded   2505 shell pairs
 There are     12303 function pairs
 Smallest overlap matrix eigenvalue = 2.03E-01
 Guess MOs from SCF MO coefficient file
 Reading MOs from coefficient file
 Reading MOs from coefficient file
 A restricted hybrid HF-DFT SCF calculation will be
 performed using Pulay DIIS extrapolation
 Exchange:     0.2000 Hartree-Fock + 0.0800 Slater + 0.7200 B88
 Correlation:  0.1900 VWN1RPA + 0.8100 LYP
 Using SG-1 standard quadrature grid
 Dispersion:   Grimme D3
 SCF converges when DIIS error is below 1.0E-08
 Geometry optimization detected.  Setting ReadMinima to 0
 Setting SaveMinima to 0
 using 48 threads for integral computing
 -------------------------------------------------------
 OpenMP Integral computing Module                
 Release: version 1.0, May 2013, Q-Chem Inc. Pittsburgh 
 -------------------------------------------------------
 -------------------------------------------------------
 OpenMP BLAS3 based DFT computing Module                
 Release: version 1.0, May 2013, Q-Chem Inc. Pittsburgh 
 -------------------------------------------------------
 ---------------------------------------
  Cycle       Energy         DIIS Error
 ---------------------------------------
    1   -1509.8887100044      4.70E-03
    2   -1510.0733212055      9.94E-04
    3   -1510.0642759240      1.80E-03
    4   -1510.0772938946      4.26E-04
    5   -1510.0781383830      1.11E-04
    6   -1510.0781859972      5.31E-05
    7   -1510.0781974175      2.18E-05
    8   -1510.0781996907      4.47E-06
    9   -1510.0781997776      1.98E-06
   10   -1510.0781997912      1.36E-06
   11   -1510.0781998000      3.22E-07
   12   -1510.0781998007      1.04E-07
   13   -1510.0781998007      7.03E-08
   14   -1510.0781998006      2.11E-08
   15   -1510.0781998007      6.14E-09 Convergence criterion met
 ---------------------------------------
 SCF time:  CPU 112.69 s  wall 2.35 s
 SCF   energy in the final basis set = -1510.07819980
 Total energy in the final basis set = -1510.07819980
 
 --------------------------------------------------------------
 
                    Orbital Energies (a.u.)
 --------------------------------------------------------------
 
 Alpha MOs
 -- Occupied --
-18.945 -18.925 -18.921 -18.896 -18.895 -18.888 -18.885 -18.864
-18.863 -18.849 -10.099 -10.097 -10.093 -10.093 -10.083 -10.075
-10.066 -10.061 -10.060 -10.058 -10.057 -10.055 -10.041 -10.033
-10.032 -10.031 -10.019 -10.014 -10.012 -10.010  -1.036  -1.017
 -1.015  -1.009  -0.996  -0.990  -0.944  -0.928  -0.926  -0.922
 -0.770  -0.765  -0.729  -0.729  -0.722  -0.709  -0.703  -0.664
 -0.659  -0.622  -0.600  -0.587  -0.551  -0.542  -0.536  -0.529
 -0.518  -0.510  -0.486  -0.472  -0.466  -0.461  -0.454  -0.454
 -0.441  -0.437  -0.432  -0.425  -0.414  -0.411  -0.407  -0.403
 -0.397  -0.389  -0.374  -0.373  -0.366  -0.361  -0.354  -0.349
 -0.341  -0.339  -0.335  -0.329  -0.328  -0.321  -0.320  -0.308
 -0.305  -0.301  -0.298  -0.290  -0.288  -0.281  -0.277  -0.273
 -0.266  -0.246  -0.234  -0.230  -0.226  -0.221  -0.207  -0.186
 -0.162  -0.158  -0.150  -0.149  -0.145  -0.141  -0.135  -0.133
 -0.131
 -- Virtual --
  0.032   0.063   0.089   0.120   0.224   0.241   0.252   0.261
  0.284   0.295   0.300   0.320   0.326   0.333   0.341   0.344
  0.353   0.354   0.369   0.378   0.382   0.383   0.385   0.390
  0.393   0.403   0.405   0.408   0.410   0.413   0.418   0.429
  0.429   0.436   0.436   0.439   0.444   0.448   0.451   0.451
  0.453   0.456   0.461   0.465   0.472   0.474   0.476   0.487
  0.489   0.492   0.494   0.501   0.504   0.529   0.540   0.554
  0.560   0.566   0.569   0.606   0.646   0.657   0.674
 --------------------------------------------------------------
 
          Ground-State Mulliken Net Atomic Charges

     Atom                 Charge (a.u.)
  ----------------------------------------
      1 O                    -0.221691
      2 C                     0.221552
      3 C                    -0.078804
      4 C                    -0.070786
      5 C                     0.190829
      6 O                    -0.155989
      7 C                    -0.063667
      8 C                    -0.040185
      9 O                    -0.191004
     10 C                     0.209198
     11 C                    -0.073672
     12 C                    -0.076700
     13 C                     0.228651
     14 O                    -0.194302
     15 O                    -0.198886
     16 O                    -0.214752
     17 O                    -0.201697
     18 C                    -0.108735
     19 C                     0.031680
     20 C                    -0.143598
     21 C                    -0.145683
     22 C                     0.035898
     23 O                    -0.194144
     24 H                     0.088796
     25 H                     0.085547
     26 H                     0.085157
     27 H                     0.074096
     28 H                     0.071075
     29 H                     0.076256
     30 H                     0.070293
     31 H                     0.085700
     32 O                    -0.158274
     33 C                    -0.110640
     34 C                     0.035136
     35 C                    -0.143633
     36 C                    -0.145198
     37 C                     0.035564
     38 O                    -0.189158
     39 H                     0.080889
     40 H                     0.074099
     41 H                     0.101835
     42 H                     0.091222
     43 H                     0.076260
     44 H                     0.071657
     45 H                     0.079180
     46 H                     0.070515
     47 H                     0.086520
     48 H                     0.078850
     49 H                     0.090992
     50 H                     0.087698
     51 H                     0.072479
     52 H                     0.091509
     53 H                     0.093883
     54 H                     0.078258
     55 H                     0.088469
     56 H                     0.081456
  ----------------------------------------
  Sum of atomic charges =     0.000000

 -----------------------------------------------------------------
                    Cartesian Multipole Moments
 -----------------------------------------------------------------
    Charge (ESU x 10^10)
                 0.0000
    Dipole Moment (Debye)
         X       0.0183      Y       2.1339      Z       4.2565
       Tot       4.7614
    Quadrupole Moments (Debye-Ang)
        XX    -139.6180     XY     -10.4656     YY    -144.3291
        XZ      -3.5417     YZ       1.5268     ZZ    -166.7386
    Octopole Moments (Debye-Ang^2)
       XXX       4.8293    XXY      -1.1782    XYY       8.7548
       YYY      -7.8013    XXZ       8.5942    XYZ      12.4450
       YYZ      25.5315    XZZ       0.9082    YZZ       1.0386
       ZZZ      43.0056
    Hexadecapole Moments (Debye-Ang^3)
      XXXX   -8483.1906   XXXY     258.7673   XXYY   -1993.1801
      XYYY     273.8099   YYYY   -3035.1554   XXXZ     -38.9414
      XXYZ     -14.9690   XYYZ     -35.5338   YYYZ      20.7487
      XXZZ   -1762.6552   XYZZ     105.9866   YYZZ    -764.5441
      XZZZ     -43.7465   YZZZ      -6.4643   ZZZZ   -1682.0939
 -----------------------------------------------------------------
 Calculating analytic gradient of the SCF energy
 Gradient of SCF Energy
            1           2           3           4           5           6
    1   0.0014306  -0.0073982   0.0142111   0.0384953   0.0463692  -0.0157983
    2   0.0144580   0.0362795   0.0044172  -0.0065768  -0.0517458  -0.0094047
    3   0.0138603   0.0224010  -0.0150042  -0.0755918   0.0531627  -0.0431326
            7           8           9          10          11          12
    1  -0.0380444   0.0311670  -0.0374489  -0.0031439  -0.0149003  -0.0108073
    2  -0.0712791   0.0477437  -0.0685390   0.0478502  -0.0105787  -0.0088163
    3   0.0195052  -0.0329939   0.0204809  -0.0645267   0.0034733  -0.0165836
           13          14          15          16          17          18
    1  -0.0047372   0.0102452   0.0102525   0.0004591   0.0402519   0.0073532
    2   0.0388097  -0.0219040  -0.0732752  -0.0164013   0.0127691   0.0217877
    3   0.0419079   0.0182500  -0.0298351  -0.0831207   0.0258051   0.0306679
           19          20          21          22          23          24
    1  -0.0094898  -0.0200279  -0.0180988  -0.0090718   0.0228056   0.0037206
    2  -0.0277314  -0.0177161   0.0120977   0.0366536  -0.0152947  -0.0030164
    3  -0.0235966  -0.0019329   0.0010883   0.0127274   0.0358508   0.0012899
           25          26          27          28          29          30
    1   0.0039265   0.0085329  -0.0018617   0.0040052   0.0023469  -0.0009575
    2  -0.0033675   0.0033872   0.0009389   0.0011991   0.0075917  -0.0044132
    3  -0.0006523   0.0074074  -0.0069887   0.0023637  -0.0039251   0.0023554
           31          32          33          34          35          36
    1   0.0088813  -0.0378028  -0.0118766   0.0254377   0.0250937   0.0084710
    2  -0.0084080   0.0841520   0.0394956   0.0310294   0.0008123  -0.0189407
    3   0.0041828   0.0477570   0.0002059  -0.0152298   0.0022804  -0.0053005
           37          38          39          40          41          42
    1  -0.0277523  -0.0174711  -0.0076151  -0.0083658  -0.0032887  -0.0109503
    2  -0.0315725   0.0141381  -0.0070016  -0.0127221   0.0023427   0.0004685
    3   0.0006246   0.0423057   0.0004558  -0.0025534   0.0023532   0.0065865
           43          44          45          46          47          48
    1   0.0017449  -0.0048748  -0.0063690   0.0034556  -0.0020394  -0.0023007
    2   0.0000969   0.0005966  -0.0034407   0.0026263   0.0090094   0.0027696
    3  -0.0069530   0.0017224  -0.0054129   0.0031752   0.0072836   0.0001504
           49          50          51          52          53          54
    1   0.0020181   0.0006315   0.0005447   0.0015249  -0.0053166   0.0010259
    2  -0.0033520  -0.0032778   0.0030451   0.0031490   0.0007438  -0.0041161
    3   0.0015298  -0.0010633   0.0010810   0.0008022   0.0061045  -0.0067274
           55          56
    1   0.0125712   0.0008359
    2   0.0245576  -0.0021244
    3  -0.0045309   0.0044569
 Max gradient component =       8.415E-02
 RMS gradient           =       2.374E-02
 Gradient time:  CPU 31.16 s  wall 0.65 s
 Geometry Optimization Parameters
   NAtoms,    NIC,     NZ,  NCons,   NDum,   NFix, NCnnct, MaxDiis
       56     458       0       9       0       0       0       0

 Cartesian Hessian Update
 Hessian Updated using BFGS Update


** CONSTRAINED OPTIMIZATION IN DELOCALIZED INTERNAL COORDINATES **
   Searching for a Minimum

   Optimization Cycle:   3

                       Coordinates (Angstroms)
     ATOM                X               Y               Z
      1  O        -2.6069455004   -2.3528157706   -0.1405827971
      2  C        -2.6591247423   -1.3403985485    0.5826874502
      3  C        -3.3964760303   -0.0375445332    0.2511756637
      4  C        -2.5114395541    1.2192040436   -0.0227365427
      5  C        -0.9762729224    0.9607039871   -0.1213023265
      6  O        -0.1843995936    2.1561556315   -0.0881017020
      7  C        -0.3123420284    2.9640791129    1.1081125931
      8  C         0.7155526139    2.6564200419    2.2417489214
      9  O         1.8599603889    1.8482741705    1.8527095544
     10  C         1.6570870453    0.6681800827    1.1258782284
     11  C         3.0178387922    0.1786849155    0.5787305263
     12  C         2.9959551678   -1.2076898251   -0.1328503066
     13  C         1.6088903828   -1.7542741207   -0.5217667319
     14  O         1.1442643757   -1.7629883931   -1.6799905112
     15  O        -2.0778038823   -1.3105339065    1.8372949081
     16  O         1.2061896404   -2.7600754903    0.3541713540
     17  O         0.9593508872   -0.2100519025    1.7096941806
     18  C         0.9904492279   -4.0692588914   -0.1389263210
     19  C         3.6282957146    1.0891295253   -0.5321503512
     20  C         5.1667214793    0.8965923143   -0.5562565130
     21  C         5.2680421390   -0.5312057811   -1.1257139622
     22  C         3.7713114422   -0.8253452877   -1.4386095674
     23  O         3.2199731327    0.4649711994   -1.7668028507
     24  H         3.6972943231    0.1349100895    1.4559683291
     25  H         3.5246911619   -1.9893673605    0.4495223198
     26  H         3.3628611185    2.1605328156   -0.4205576469
     27  H         5.5737312942    1.6094006449   -1.3008634645
     28  H         5.6786508920    1.0552042467    0.4114792697
     29  H         5.8609771476   -0.4995959723   -2.0598256547
     30  H         5.6942599062   -1.2831728486   -0.4347192716
     31  H         3.6827800913   -1.6017476042   -2.2268253606
     32  O        -0.7907775585    0.5083098850   -1.2619221008
     33  C        -1.5112241910   -2.4738628285    2.4045411272
     34  C        -4.2334456472   -0.0985961367   -1.0703691482
     35  C        -5.3997948546    0.9185192966   -0.9630361930
     36  C        -4.6274749291    2.2515463660   -1.0679184818
     37  C        -3.1891623810    1.7272020064   -1.3524121405
     38  O        -3.4025509857    0.5034991367   -2.0773647048
     39  H        -4.1138851769    0.1132495154    1.0862373545
     40  H        -2.7817088545    1.8789863359    0.8109489384
     41  H        -0.6479477083   -2.8385620731    1.8116667580
     42  H        -4.6169172724   -1.1115665921   -1.3113373116
     43  H        -6.0190021242    0.7940048691   -1.8737175344
     44  H        -6.0491651324    0.8155485539   -0.0734273273
     45  H        -5.0159582493    2.8175674854   -1.9361172398
     46  H        -4.6559693792    2.8879323078   -0.1631338650
     47  H        -2.5733838202    2.4928542645   -1.8692981795
     48  H        -2.2672176993   -3.2857130608    2.4891204018
     49  H        -1.1474200225   -2.2202850828    3.4205807021
     50  H         0.6405631716   -4.7111068112    0.6939056425
     51  H         1.9402220448   -4.4958843964   -0.5332664351
     52  H         0.2376445637   -4.0945377407   -0.9568574990
     53  H         1.0564670037    3.5814005154    2.7497112881
     54  H         0.1654863999    2.0451132306    2.9964973792
     55  H        -1.2856325276    3.3296865188    1.4812030276
     56  H         0.0891824800    3.9276131207    0.7155945304
   Point Group: c1    Number of degrees of freedom:   162


   Energy is  -1510.078199801

              Constraints and their Current Values
                                        Value     Constraint
   Dihedral:        1   2   3   4     -111.523     -111.538
   Dihedral:        3   4   5   6     -167.468     -167.271
   Dihedral:        4   5   6   7       60.384       60.226
   Dihedral:        5   6   7   8       92.003       91.885
   Dihedral:        6   7   8   9       14.429       14.483
   Dihedral:        7   8   9  10      -48.452      -48.433
   Dihedral:        8   9  10  11      167.586      167.529
   Dihedral:        9  10  11  12      173.919      174.086
   Dihedral:       11  12  13  14      104.297      104.211
 Hessian Updated using BFGS Update

   Using Lagrange Multiplier Algorithm


162 Hessian modes will be used to form the next step
  Hessian Eigenvalues:
    -0.977755   -0.977753   -0.977753   -0.977753   -0.977753   -0.977753
    -0.977753   -0.972767   -0.920894    0.044571    0.045000    0.045041
     0.045045    0.045591    0.045601    0.048849    0.048867    0.049346
     0.052372    0.057384    0.059679    0.060084    0.060958    0.063855
     0.065155    0.065321    0.066361    0.067066    0.068217    0.069246
     0.071798    0.072541    0.074765    0.074930    0.076009    0.076101
     0.077931    0.082085    0.082453    0.082529    0.083606    0.084518
     0.085159    0.085273    0.085681    0.086257    0.087060    0.087689
     0.088555    0.088861    0.089088    0.089145    0.089422    0.089862
     0.090125    0.093793    0.094125    0.094897    0.096642    0.096958
     0.111550    0.111743    0.113629    0.113850    0.115635    0.115978
     0.116640    0.116814    0.117034    0.118899    0.119208    0.122377
     0.126854    0.131237    0.132038    0.142024    0.142593    0.143704
     0.159596    0.160002    0.160605    0.170678    0.171144    0.171759
     0.173836    0.177291    0.193494    0.218996    0.228223    0.233609
     0.236439    0.239560    0.241495    0.249789    0.255458    0.258746
     0.259890    0.266706    0.267173    0.273535    0.278334    0.279856
     0.285842    0.294935    0.295671    0.297350    0.307278    0.310191
     0.312358    0.319708    0.320664    0.321556    0.321903    0.322070
     0.322893    0.323229    0.323397    0.323452    0.323758    0.324006
     0.324155    0.324239    0.324485    0.324641    0.324669    0.324707
     0.324958    0.325178    0.325278    0.326853    0.326922    0.327230
     0.331528    0.333775    0.335470    0.348727    0.368060    0.368411
     0.382759    0.387050    0.399498    0.411792    0.475135    0.490553
     0.523278    0.531508    0.536696    0.555564    0.860344    0.909579
     0.942140    0.950249    1.022752    1.022753    1.022753    1.022753
     1.022753    1.022753    1.022753    1.027708    1.246964    2.566654

 Minimum Search - Taking P-RFO Step
 Searching for Lamda that Maximizes Along the Constraint modes Only
 Value Taken    Lamda =   0.00112425
 Searching for Lamda that Minimizes Along All other modes
 Value Taken    Lamda =  -0.13034968
 Calculated Step too Large.  Step scaled by  0.457934
 Step Taken.  Stepsize is  0.300000

                             Maximum     Tolerance    Cnvgd?
         Gradient            0.069691       0.000300      NO
         Displacement        0.072415       0.001200      NO
         Energy change     -0.083578       0.000001      NO


 New Cartesian Coordinates Obtained by Inverse Iteration

 Displacement from previous Coordinates is:  2.774667
 Adding empirical dispersion correction 
 ----------------------------------------------------------------
 Doing -D3(op) with
 s6 =   1.00000
 s8 =   0.78311
 a1 =   0.30000
 a2 =   4.25000
 n  =  10.00000
 -D3 energy without 3body term =     -0.0761522635 hartrees
 ----------------------------------------------------------------
             Standard Nuclear Orientation (Angstroms)
    I     Atom           X                Y                Z
 ----------------------------------------------------------------
    1      O      -2.3196376135    -2.3499377868    -0.1930046091
    2      C      -2.4604365116    -1.3458391756     0.5374285325
    3      C      -3.3045491778    -0.0926035854     0.2214544866
    4      C      -2.4932659599     1.2231848748    -0.0297016271
    5      C      -0.9463010275     1.0148056960    -0.1200248802
    6      O      -0.1497072110     2.2217073081    -0.0635036875
    7      C      -0.2885617796     3.0150097089     1.1482436519
    8      C       0.7303021598     2.7027045224     2.3053432009
    9      O       1.8920873114     1.9017314483     1.9326671142
   10      C       1.6306541909     0.7260843746     1.1863212010
   11      C       2.9750876691     0.1875723801     0.6182670295
   12      C       2.8800433475    -1.1939302587    -0.1131885715
   13      C       1.4504630069    -1.6738901628    -0.4888831290
   14      O       0.9674125799    -1.6438079303    -1.6438245443
   15      O      -1.8743796037    -1.2419378699     1.7981959084
   16      O       0.9886883124    -2.6519681369     0.4177026819
   17      O       0.8441317862    -0.1163116408     1.7163627236
   18      C       0.6590010932    -3.9277392849    -0.1441954710
   19      C       3.6302133152     1.0872256859    -0.4878375527
   20      C       5.1648867909     0.8084960425    -0.5145867926
   21      C       5.1873750639    -0.6259473003    -1.1059443609
   22      C       3.6686780157    -0.8373500578    -1.4283432345
   23      O       3.1811776048     0.4968952826    -1.7429557724
   24      H       3.6519837344     0.0963802190     1.4919367206
   25      H       3.3690226558    -2.0048408155     0.4602378109
   26      H       3.4123089961     2.1672629948    -0.3667302333
   27      H       5.6148236422     1.5061908420    -1.2451734900
   28      H       5.6793008053     0.9254457091     0.4554983667
   29      H       5.7814828954    -0.6216586356    -2.0370115495
   30      H       5.5704778813    -1.4053137463    -0.4233687893
[...]
     15  O        -2.0566493258   -1.0297352110    1.8996909074
     16  O         1.3597373687   -2.8125296391    0.5038701869
     17  O         0.6812375010   -0.0965992257    1.0463490099
     18  C         0.3142685748   -3.7272090658   -0.0316387620
     19  C         3.8037999004    1.0694165309   -0.4310369851
     20  C         5.3659112028    0.8379499235   -0.4402745881
     21  C         5.4544882980   -0.5527082898   -1.1721486371
     22  C         3.9327904244   -0.8306918367   -1.4933701504
     23  O         3.3689624635    0.5188020370   -1.7314813666
     24  H         3.8147500255    0.0114182873    1.5288412119
     25  H         3.7833320480   -2.0502431744    0.3919266700
     26  H         3.4769762143    2.1213363489   -0.3178583925
     27  H         5.8671829219    1.6310641374   -1.0177367932
     28  H         5.7912740292    0.8163072370    0.5757080934
     29  H         6.0401968863   -0.4844289040   -2.1025118640
     30  H         5.8919374686   -1.3397313087   -0.5371282904
     31  H         3.7369117237   -1.4839201645   -2.3652347925
     32  O        -0.7379963650    0.0555665890   -0.8676436094
     33  C        -1.1087329164   -2.0755682245    2.3522926885
     34  C        -4.2343659704   -0.2171384502   -1.1612632934
     35  C        -5.5152632370    0.7011465063   -1.0960091656
     36  C        -4.8542597146    2.1295186847   -1.1470793366
     37  C        -3.3312675564    1.7611849722   -1.3649435465
     38  O        -3.3707539946    0.4964561501   -2.1319142639
     39  H        -4.2011883854    0.0373690154    1.0530645855
     40  H        -2.8898278547    2.0043110513    0.8363472244
     41  H        -0.1436927136   -2.0083272237    1.8013514252
     42  H        -4.3984396153   -1.2630211992   -1.4854676450
     43  H        -6.1569190208    0.5259365793   -1.9744675332
     44  H        -6.1104510411    0.5366881805   -0.1834069658
     45  H        -5.2320086351    2.7232111927   -1.9943808368
     46  H        -5.0095158271    2.7028270454   -0.2186658359
     47  H        -2.7345312028    2.5243102323   -1.9020466286
     48  H        -1.5372071981   -3.0899528153    2.2282891909
     49  H        -0.9377823359   -1.8776006109    3.4264376870
     50  H         0.2133328838   -4.5328016632    0.7185905628
     51  H         0.6274380785   -4.1590756320   -1.0018866537
     52  H        -0.6650318540   -3.2041516011   -0.1564132788
     53  H         1.1440975661    3.3954627840    2.7254817148
     54  H         0.1998897585    1.9067823762    3.0667742226
     55  H        -1.3174826924    2.7838879982    1.6446091554
     56  H        -0.1641555357    3.9543618094    0.9400766902
   Point Group: c1    Number of degrees of freedom:   162


   Energy is  -1510.255116761

              Constraints and their Current Values
                                        Value     Constraint
   Dihedral:        1   2   3   4     -111.538     -111.538
   Dihedral:        3   4   5   6     -167.271     -167.271
   Dihedral:        4   5   6   7       60.226       60.226
   Dihedral:        5   6   7   8       91.885       91.885
   Dihedral:        6   7   8   9       14.483       14.483
   Dihedral:        7   8   9  10      -48.433      -48.433
   Dihedral:        8   9  10  11      167.529      167.529
   Dihedral:        9  10  11  12      174.086      174.086
   Dihedral:       11  12  13  14      104.211      104.211
 Hessian Updated using BFGS Update

153 Hessian modes will be used to form the next step
  Hessian Eigenvalues:
     0.003499    0.009204    0.015915    0.028288    0.045243    0.046549
     0.046626    0.049708    0.053106    0.056853    0.058295    0.059202
     0.060218    0.061406    0.062287    0.064925    0.065538    0.066588
     0.067683    0.068078    0.069061    0.072629    0.073738    0.075153
     0.075349    0.076212    0.078818    0.080425    0.080958    0.082670
     0.083330    0.083691    0.084569    0.085003    0.085552    0.085760
     0.086587    0.087306    0.087684    0.088217    0.088879    0.089144
     0.089634    0.089853    0.090917    0.091557    0.093210    0.093708
     0.094811    0.096500    0.096679    0.098853    0.111583    0.111793
     0.114614    0.115699    0.116494    0.117389    0.118416    0.119897
     0.120958    0.122741    0.123039    0.124911    0.127621    0.136834
     0.142781    0.146327    0.155136    0.158931    0.160120    0.160681
     0.161001    0.161840    0.168322    0.172452    0.176510    0.179738
     0.193982    0.201333    0.214065    0.224418    0.229994    0.235620
     0.240113    0.241335    0.249828    0.254512    0.258985    0.264887
     0.266181    0.267209    0.270261    0.272258    0.275862    0.280404
     0.283618    0.289857    0.294855    0.295895    0.299691    0.309111
     0.311766    0.312050    0.319645    0.320785    0.321634    0.321950
     0.322171    0.322281    0.323229    0.323343    0.323462    0.323624
     0.323808    0.324076    0.324244    0.324410    0.324467    0.324675
     0.324708    0.324781    0.324872    0.325427    0.325805    0.327105
     0.328498    0.330942    0.334113    0.338422    0.346417    0.352195
     0.357779    0.367398    0.370319    0.380091    0.401434    0.405915
     0.433764    0.457251    0.480385    0.501238    0.520356    0.545616
     0.575415    0.596205    0.914593    0.940800    0.951913    1.006414
     1.323571    2.949739    6.332310

 Minimum Search - Taking Simple RFO Step
 Searching for Lamda that Minimizes Along All modes
 Value Taken    Lamda =   0.00000000
 Step Taken.  Stepsize is  0.006850

                             Maximum     Tolerance    Cnvgd?
         Gradient           0.000110      0.000300     YES
         Displacement       0.002072      0.001200      NO
         Energy change      0.000000      0.000001     YES

 Final energy is   -1510.25511676121     


 ******************************
 **  OPTIMIZATION CONVERGED  **
 ******************************

                       Coordinates (Angstroms)
     ATOM                X               Y               Z
      1  O        -2.2717969096   -2.2826959733   -0.1205319472
      2  C        -2.5402073747   -1.2813863505    0.5811930836
      3  C        -3.4782566243   -0.0721584867    0.2246332076
      4  C        -2.6976013656    1.2901493033    0.0200818793
      5  C        -1.1594306389    1.0594433116   -0.2560218617
      6  O        -0.3049550624    2.2386370977   -0.1728885301
      7  C        -0.3277902919    2.8766810377    1.1537412922
      8  C         0.7542534196    2.4606441335    2.2750092402
      9  O         1.9691916789    1.6897887310    1.9353789784
     10  C         1.7588641542    0.5278569155    1.1286277226
     11  C         3.1681448980    0.0691401159    0.6338056077
     12  C         3.1990476694   -1.2957140590   -0.1649932414
     13  C         1.8186497705   -1.9552779023   -0.5544138303
     14  O         1.3121455916   -1.9456940323   -1.6968932064
     15  O        -2.0566493258   -1.0297352110    1.8996909074
     16  O         1.3597373687   -2.8125296391    0.5038701869
     17  O         0.6812375010   -0.0965992257    1.0463490099
     18  C         0.3142685748   -3.7272090658   -0.0316387620
     19  C         3.8037999004    1.0694165309   -0.4310369851
     20  C         5.3659112028    0.8379499235   -0.4402745881
     21  C         5.4544882980   -0.5527082898   -1.1721486371
     22  C         3.9327904244   -0.8306918367   -1.4933701504
     23  O         3.3689624635    0.5188020370   -1.7314813666
     24  H         3.8147500255    0.0114182873    1.5288412119
     25  H         3.7833320480   -2.0502431744    0.3919266700
     26  H         3.4769762143    2.1213363489   -0.3178583925
     27  H         5.8671829219    1.6310641374   -1.0177367932
     28  H         5.7912740292    0.8163072370    0.5757080934
     29  H         6.0401968863   -0.4844289040   -2.1025118640
     30  H         5.8919374686   -1.3397313087   -0.5371282904
     31  H         3.7369117237   -1.4839201645   -2.3652347925
     32  O        -0.7379963650    0.0555665890   -0.8676436094
     33  C        -1.1087329164   -2.0755682245    2.3522926885
     34  C        -4.2343659704   -0.2171384502   -1.1612632934
     35  C        -5.5152632370    0.7011465063   -1.0960091656
     36  C        -4.8542597146    2.1295186847   -1.1470793366
     37  C        -3.3312675564    1.7611849722   -1.3649435465
     38  O        -3.3707539946    0.4964561501   -2.1319142639
     39  H        -4.2011883854    0.0373690154    1.0530645855
     40  H        -2.8898278547    2.0043110513    0.8363472244
     41  H        -0.1436927136   -2.0083272237    1.8013514252
     42  H        -4.3984396153   -1.2630211992   -1.4854676450
     43  H        -6.1569190208    0.5259365793   -1.9744675332
     44  H        -6.1104510411    0.5366881805   -0.1834069658
     45  H        -5.2320086351    2.7232111927   -1.9943808368
     46  H        -5.0095158271    2.7028270454   -0.2186658359
     47  H        -2.7345312028    2.5243102323   -1.9020466286
     48  H        -1.5372071981   -3.0899528153    2.2282891909
     49  H        -0.9377823359   -1.8776006109    3.4264376870
     50  H         0.2133328838   -4.5328016632    0.7185905628
     51  H         0.6274380785   -4.1590756320   -1.0018866537
     52  H        -0.6650318540   -3.2041516011   -0.1564132788
     53  H         1.1440975661    3.3954627840    2.7254817148
     54  H         0.1998897585    1.9067823762    3.0667742226
     55  H        -1.3174826924    2.7838879982    1.6446091554
     56  H        -0.1641555357    3.9543618094    0.9400766902

Z-matrix Print:
$molecule
0 1
O 
C  1 1.248196
O  2 1.430095 1 124.794621
C  3 1.478392 2 115.618351 1 -23.272743 0
H  4 1.108508 3 104.126284 2 -169.806442 0
H  4 1.113990 3 108.239888 2 75.699894 0
C  2 1.562480 1 127.657936 3 166.882775 0
H  7 1.105676 2 106.644605 1 -118.089186 0
C  7 1.581727 2 115.523717 1 5.295818 0
H  9 1.104926 7 110.183801 2 -115.837852 0
C  9 1.578661 7 117.905007 2 8.084516 0
O  11 1.249759 9 125.217462 7 104.210955 0
O  11 1.437166 9 110.290559 7 -88.222478 0
C  13 1.488762 11 109.016523 9 -162.663374 0
H  14 1.105446 13 105.529731 11 164.168053 0
H  14 1.107233 13 110.867918 11 45.517524 0
H  14 1.117223 13 111.597110 11 -76.746015 0
C  9 1.587202 7 100.304790 2 125.764967 0
H  18 1.106898 9 113.860525 7 -157.483954 0
O  18 1.481800 9 103.026888 7 -38.280647 0
C  20 1.477638 18 94.931545 9 58.253060 0
H  21 1.107320 20 110.921293 18 -178.588591 0
C  21 1.579194 20 103.375366 18 56.935601 0
H  23 1.101645 21 112.298005 20 -157.263819 0
H  23 1.101711 21 110.341909 20 81.199541 0
C  23 1.573981 21 100.829570 20 -36.778020 0
H  26 1.101496 23 111.586002 21 119.715423 0
H  26 1.101825 23 112.671894 21 -117.724719 0
C  4 1.612807 3 121.744922 2 -48.432981 0
H  29 1.108627 4 105.635330 3 142.523657 0
H  29 1.110777 4 106.568917 3 -103.522347 0
O  29 1.472266 4 120.282040 3 14.482972 0
C  32 1.458608 29 113.118111 4 91.884970 0
O  33 1.248782 32 118.692356 29 -138.737166 0
C  33 1.579692 32 116.256334 29 60.226020 0
H  35 1.101484 33 113.212584 32 -39.222029 0
C  35 1.583397 33 112.147565 32 -167.270995 0
H  37 1.104955 35 109.520307 33 138.777435 0
C  37 1.571402 35 113.395423 33 19.015632 0
O  39 1.251832 37 128.048069 35 -111.538044 0
O  39 1.426742 37 106.038454 35 69.481430 0
C  41 1.482282 39 111.991557 37 -177.838373 0
H  42 1.105533 41 105.617560 39 -170.623673 0
H  42 1.108126 41 111.372449 39 -51.933851 0
H  42 1.113266 41 111.138721 39 70.553257 0
C  37 1.585380 35 101.588769 33 -104.195803 0
H  46 1.107203 37 114.395176 35 149.032081 0
O  46 1.482298 37 104.509709 35 28.128310 0
C  48 1.479643 46 95.025899 37 -54.064711 0
H  49 1.107671 48 110.604256 46 -178.809427 0
C  46 1.577404 37 107.330226 35 -80.458659 0
H  51 1.101866 46 110.323712 37 -171.675161 0
H  51 1.101879 46 112.705691 37 -49.857642 0
C  51 1.574732 46 100.710536 37 70.691112 0
H  54 1.101401 51 111.710636 46 122.592239 0
H  54 1.102152 51 112.667174 46 -114.808407 0
$end

 
 --------------------------------------------------------------
 
                    Orbital Energies (a.u.)
 --------------------------------------------------------------
 
 Alpha MOs
 -- Occupied --
-18.934 -18.927 -18.923 -18.908 -18.892 -18.886 -18.884 -18.880
-18.876 -18.853 -10.103 -10.100 -10.099 -10.078 -10.078 -10.077
-10.061 -10.056 -10.053 -10.049 -10.046 -10.038 -10.034 -10.033
-10.026 -10.024 -10.021 -10.019 -10.014 -10.013  -1.017  -1.005
 -0.997  -0.986  -0.968  -0.962  -0.945  -0.935  -0.931  -0.910
 -0.762  -0.755  -0.722  -0.720  -0.709  -0.703  -0.694  -0.655
 -0.637  -0.615  -0.598  -0.579  -0.545  -0.538  -0.536  -0.529
 -0.512  -0.503  -0.478  -0.461  -0.458  -0.451  -0.446  -0.444
 -0.434  -0.430  -0.425  -0.417  -0.410  -0.406  -0.396  -0.393
 -0.385  -0.381  -0.370  -0.359  -0.352  -0.350  -0.348  -0.344
 -0.335  -0.332  -0.329  -0.327  -0.322  -0.320  -0.316  -0.310
 -0.308  -0.305  -0.301  -0.296  -0.290  -0.280  -0.273  -0.267
 -0.262  -0.252  -0.246  -0.237  -0.231  -0.230  -0.225  -0.183
 -0.171  -0.168  -0.159  -0.155  -0.147  -0.143  -0.140  -0.135
 -0.130
 -- Virtual --
  0.083   0.097   0.106   0.120   0.207   0.241   0.248   0.254
  0.267   0.276   0.285   0.292   0.301   0.306   0.324   0.328
  0.335   0.338   0.346   0.350   0.357   0.360   0.363   0.370
  0.378   0.381   0.391   0.393   0.400   0.402   0.414   0.418
  0.421   0.423   0.424   0.425   0.436   0.437   0.439   0.440
  0.442   0.444   0.450   0.460   0.464   0.466   0.473   0.474
  0.477   0.482   0.486   0.494   0.508   0.513   0.519   0.549
  0.550   0.555   0.559   0.630   0.652   0.658   0.661
 --------------------------------------------------------------
 
          Ground-State Mulliken Net Atomic Charges

     Atom                 Charge (a.u.)
  ----------------------------------------
      1 O                    -0.207034
      2 C                     0.222888
      3 C                    -0.078444
      4 C                    -0.079836
      5 C                     0.220180
      6 O                    -0.177485
      7 C                    -0.050317
      8 C                    -0.051511
      9 O                    -0.176227
     10 C                     0.218984
     11 C                    -0.077740
     12 C                    -0.080146
     13 C                     0.214000
     14 O                    -0.203665
     15 O                    -0.173941
     16 O                    -0.180481
     17 O                    -0.203093
     18 C                    -0.147145
     19 C                     0.026449
     20 C                    -0.143402
     21 C                    -0.145316
     22 C                     0.026296
     23 O                    -0.185085
     24 H                     0.084967
     25 H                     0.081335
     26 H                     0.084565
     27 H                     0.076809
     28 H                     0.071796
     29 H                     0.077094
     30 H                     0.071809
     31 H                     0.089302
     32 O                    -0.162772
     33 C                    -0.137519
     34 C                     0.025328
     35 C                    -0.142787
     36 C                    -0.144725
     37 C                     0.024309
     38 O                    -0.183467
     39 H                     0.082106
     40 H                     0.076293
     41 H                     0.113375
     42 H                     0.091202
     43 H                     0.078720
     44 H                     0.072440
     45 H                     0.078916
     46 H                     0.071402
     47 H                     0.085218
     48 H                     0.082621
     49 H                     0.082204
     50 H                     0.073487
     51 H                     0.081141
     52 H                     0.113934
     53 H                     0.089124
     54 H                     0.079924
     55 H                     0.080267
     56 H                     0.083652
  ----------------------------------------
  Sum of atomic charges =    -0.000000

 -----------------------------------------------------------------
                    Cartesian Multipole Moments
 -----------------------------------------------------------------
    Charge (ESU x 10^10)
                -0.0000
    Dipole Moment (Debye)
         X      -0.7063      Y       2.4762      Z       4.5167
       Tot       5.1992
    Quadrupole Moments (Debye-Ang)
        XX    -138.3194     XY      -7.3496     YY    -150.0357
        XZ      -1.3772     YZ       1.1878     ZZ    -164.2117
    Octopole Moments (Debye-Ang^2)
       XXX      -4.5329    XXY       2.6447    XYY      -6.3389
       YYY      12.5446    XXZ       5.2740    XYZ       8.0649
       YYZ      21.7808    XZZ      -1.3135    YZZ       4.5914
       ZZZ      44.3314
    Hexadecapole Moments (Debye-Ang^3)
      XXXX   -8847.1192   XXXY     283.6695   XXYY   -2026.0651
      XYYY     344.3699   YYYY   -2858.2437   XXXZ     -80.9905
      XXYZ     -13.1414   XYYZ     -41.7350   YYYZ      -5.7442
      XXZZ   -1844.8642   XYZZ     102.6743   YYZZ    -734.9272
      XZZZ     -92.9739   YZZZ     -28.8655   ZZZZ   -1658.2994
 -----------------------------------------------------------------
Archival summary:
1\1\vega02.cac.cornell.edu\OPT\ProcedureUnspecified\STO-3G\102026\jj585\SunJan1419:43:342018SunJan1419:43:342018\0\\#,OPT,ProcedureUnspecified,STO-3G,\\0,1\O\C,1,1.2482\O,2,1.43009,1,124.795\C,3,1.47839,2,115.618,1,-23.2727,0\H,4,1.10851,3,104.126,2,-169.806,0\H,4,1.11399,3,108.24,2,75.6999,0\C,2,1.56248,1,127.658,3,166.883,0\H,7,1.10568,2,106.645,1,-118.089,0\C,7,1.58173,2,115.524,1,5.29582,0\H,9,1.10493,7,110.184,2,-115.838,0\C,9,1.57866,7,117.905,2,8.08452,0\O,11,1.24976,9,125.217,7,104.211,0\O,11,1.43717,9,110.291,7,-88.2225,0\C,13,1.48876,11,109.017,9,-162.663,0\H,14,1.10545,13,105.53,11,164.168,0\H,14,1.10723,13,110.868,11,45.5175,0\H,14,1.11722,13,111.597,11,-76.746,0\C,9,1.5872,7,100.305,2,125.765,0\H,18,1.1069,9,113.861,7,-157.484,0\O,18,1.4818,9,103.027,7,-38.2806,0\C,20,1.47764,18,94.9315,9,58.2531,0\H,21,1.10732,20,110.921,18,-178.589,0\C,21,1.57919,20,103.375,18,56.9356,0\H,23,1.10165,21,112.298,20,-157.264,0\H,23,1.10171,21,110.342,20,81.1995,0\C,23,1.57398,21,100.83,20,-36.778,0\H,26,1.1015,23,111.586,21,119.715,0\H,26,1.10182,23,112.672,21,-117.725,0\C,4,1.61281,3,121.745,2,-48.433,0\H,29,1.10863,4,105.635,3,142.524,0\H,29,1.11078,4,106.569,3,-103.522,0\O,29,1.47227,4,120.282,3,14.483,0\C,32,1.45861,29,113.118,4,91.885,0\O,33,1.24878,32,118.692,29,-138.737,0\C,33,1.57969,32,116.256,29,60.226,0\H,35,1.10148,33,113.213,32,-39.222,0\C,35,1.5834,33,112.148,32,-167.271,0\H,37,1.10495,35,109.52,33,138.777,0\C,37,1.5714,35,113.395,33,19.0156,0\O,39,1.25183,37,128.048,35,-111.538,0\O,39,1.42674,37,106.038,35,69.4814,0\C,41,1.48228,39,111.992,37,-177.838,0\H,42,1.10553,41,105.618,39,-170.624,0\H,42,1.10813,41,111.372,39,-51.9339,0\H,42,1.11327,41,111.139,39,70.5533,0\C,37,1.58538,35,101.589,33,-104.196,0\H,46,1.1072,37,114.395,35,149.032,0\O,46,1.4823,37,104.51,35,28.1283,0\C,48,1.47964,46,95.0259,37,-54.0647,0\H,49,1.10767,48,110.604,46,-178.809,0\C,46,1.5774,37,107.33,35,-80.4587,0\H,51,1.10187,46,110.324,37,-171.675,0\H,51,1.10188,46,112.706,37,-49.8576,0\C,51,1.57473,46,100.711,37,70.6911,0\H,54,1.1014,51,111.711,46,122.592,0\H,54,1.10215,51,112.667,46,-114.808,0\\\@

 Total job time:  77.77s(wall), 3708.56s(cpu) 
 Sun Jan 14 19:43:34 2018

        *************************************************************
        *                                                           *
        *  Thank you very much for using Q-Chem.  Have a nice day.  *
        *                                                           *
        *************************************************************


0 sent ACK to 0 
now end server 0 ... 
