mFile = /opt/software/qchem/qchem-5.0.1//bin/mpi/machines
Process 0 of 1 is on vega02.cac.cornell.edu - thread support 0
initial socket setup ...start
initial socket setup ...done 
now start server 0 ... 
vega02.cac.cornell.edu 10.84.3
Q-Chem Developer Version! Running on 10.84.3.*
                  Welcome to Q-Chem
     A Quantum Leap Into The Future Of Chemistry


 Q-Chem 5.0, Q-Chem, Inc., Pleasanton, CA (2017)

 Yihan Shao,  Zhengting Gan,  E. Epifanovsky,  A. T. B. Gilbert,  M. Wormit,  
 J. Kussmann,  A. W. Lange,  A. Behn,  Jia Deng,  Xintian Feng,  D. Ghosh,  
 M. Goldey,  P. R. Horn,  L. D. Jacobson,  I. Kaliman,  T. Kus,  A. Landau,  
 Jie Liu,  E. I. Proynov,  R. M. Richard,  R. P. Steele,  E. J. Sundstrom,  
 H. L. Woodcock III,  P. M. Zimmerman,  D. Zuev,  B. Albrecht,  E. Alguire,  
 S. A. Baeppler,  Z. Benda,  Y. A. Bernard,  E. J. Berquist,  K. B. Bravaya,  
 D. Casanova,  Chun-Min Chang,  Yunqing Chen,  A. Chien,  K. D. Closser,  
 M. P. Coons,  S. Dasgupta,  M. Diedenhofen,  Hainam Do,  R. G. Edgar,  
 Po-Tung Fang,  S. Fatehi,  Qingguo Feng,  Qinghui Ge,  A. Ghysels,  
 J. Gomes,  J. Gonthier,  A. Gunina,  M. W. D. Hanson-Heine,  
 P. H. P. Harbach,  A. W. Hauser,  J. E. Herr,  E. G. Hohenstein,  
 Z. C. Holden,  Kerwin Hui,  T.-C. Jagau,  Hyunjun Ji,  B. Kaduk,  
 K. Khistyaev,  Jaehoon Kim,  P. Klunzinger,  K. Koh,  D. Kosenkov,  
 T. Kowalczyk,  C. M. Krauter,  A. Kunitsa,  Ka Un Lao,  A. Laurent,  
 K. V. Lawler,  Joonho Lee,  D. Lefrancois,  S. Lehtola,  D. S. Levine,  
 Yi-Pei Li,  You-Sheng Lin,  Fenglai Liu,  E. Livshits,  A. Luenser,  
 P. Manohar,  E. Mansoor,  S. F. Manzer,  Shan-Ping Mao,  Yuezhi Mao,  
 N. Mardirossian,  A. V. Marenich,  L. A. Martinez-Martinez,  S. A. Maurer,  
 N. J. Mayhall,  S. C. McKenzie,  J.-M. Mewes,  A. F. Morrison,  K. Nanda,  
 T. S. Nguyen-Beck,  R. Olivares-Amaya,  J. A. Parkhill,  T. M. Perrine,  
 F. Plasser,  S. Prager,  A. Prociuk,  D. R. Rehn,  F. Rob,  M. Schneider,  
 N. Sergueev,  S. M. Sharada,  S. Sharma,  D. W. Small,  T. Stauch,  
 T. Stein,  Yu-Chuan Su,  A. J. W. Thom,  T. Tsuchimochi,  L. Vogt,  
 O. Vydrov,  M. A. Watson,  J. Wenzel,  M. de Wergifosse,  T. A. Wesolowski,  
 A. White,  J. Witte,  A. Yamada,  Jun Yang,  K. Yao,  S. Yeganeh,  
 S. R. Yost,  Zhi-Qiang You,  A. Zech,  Igor Ying Zhang,  Xing Zhang,  
 Yan Zhao,  Ying Zhu,  B. R. Brooks,  G. K. L. Chan,  C. J. Cramer,  
 M. S. Gordon,  W. J. Hehre,  A. Klamt,  M. W. Schmidt,  C. D. Sherrill,  
 D. G. Truhlar,  A. Aspuru-Guzik,  R. Baer,  A. T. Bell,  N. A. Besley,  
 Jeng-Da Chai,  A. Dreuw,  B. D. Dunietz,  T. R. Furlani,  Chao-Ping Hsu,  
 Yousung Jung,  Jing Kong,  D. S. Lambrecht,  WanZhen Liang,  C. Ochsenfeld,  
 V. A. Rassolov,  L. V. Slipchenko,  J. E. Subotnik,  T. Van Voorhis,  
 J. M. Herbert,  A. I. Krylov,  P. M. W. Gill,  M. Head-Gordon

 Contributors to earlier versions of Q-Chem not listed above: 
 R. D. Adamson,  B. Austin,  J. Baker,  G. J. O. Beran,  K. Brandhorst,  
 S. T. Brown,  E. F. C. Byrd,  A. K. Chakraborty,  C.-L. Cheng,  
 Siu Hung Chien,  D. M. Chipman,  D. L. Crittenden,  H. Dachsel,  
 R. A. DiStasio Jr.,  R. J. Doerksen,  A. D. Dutoi,  L. Fusti-Molnar,  
 W. A. Goddard III,  A. Golubeva-Zadorozhnaya,  S. R. Gwaltney,  G. Hawkins,  
 A. Heyden,  S. Hirata,  G. Kedziora,  F. J. Keil,  C. Kelley,  Jihan Kim,  
 R. A. King,  R. Z. Khaliullin,  P. P. Korambath,  W. Kurlancheek,  
 A. M. Lee,  M. S. Lee,  S. V. Levchenko,  Ching Yeh Lin,  D. Liotard,  
 R. C. Lochan,  I. Lotan,  P. E. Maslen,  N. Nair,  D. P. O'Neill,  
 D. Neuhauser,  E. Neuscamman,  C. M. Oana,  R. Olson,  B. Peters,  
 R. Peverati,  P. A. Pieniazek,  Y. M. Rhee,  J. Ritchie,  M. A. Rohrdanz,  
 E. Rosta,  N. J. Russ,  H. F. Schaefer III,  N. E. Schultz,  N. Shenvi,  
 A. C. Simmonett,  A. Sodt,  D. Stuck,  K. S. Thanthiriwatte,  V. Vanovschi,  
 Tao Wang,  A. Warshel,  C. F. Williams,  Q. Wu,  X. Xu,  W. Zhang

 Please cite Q-Chem as follows:
 Y. Shao et al., Mol. Phys. 113, 184-215 (2015)
 DOI: 10.1080/00268976.2014.952696

 Q-Chem 5.0.1 for Intel X86 EM64T Linux

 Parts of Q-Chem use Armadillo 5.200.1 (Boston Tea Smuggler).
 http://arma.sourceforge.net/

 Q-Chem begins on Sun Jan 14 19:56:34 2018  

Host: vega02.cac.cornell.edu
0

     Scratch files written to /scratch/jj585/SOT1001/0542r.save//
 Parallel job on  1  processors

Checking the input file for inconsistencies... 	...done.

--------------------------------------------------------------
User input:
--------------------------------------------------------------
$molecule
0  1
O -4.0255765174 1.3035904581 2.318266707
C -3.7180697358 1.3349801489 1.1079265346
C -4.6242877045 0.9019249734 -0.1024948003
C -4.2749924744 -0.5016807697 -0.7733727815
C -2.8999099583 -1.1013860909 -0.3194655605
O -1.8828000295 -0.6982902442 -1.2636913827
C -0.6932252853 -0.1887963421 -0.5386057228
C 0.4987044472 -0.1423297653 -1.5464683408
O 1.5872753119 0.6299415 -0.8970848051
C 2.8639315232 0.0532043581 -1.2025921572
C 3.9614277367 0.9116038251 -0.4904458911
C 4.5110031345 0.2183468226 0.8332764845
C 3.9483070296 -1.2359733808 1.0254869563
O 4.5689463527 -2.3138229802 0.9175532221
O -2.4830110351 1.8945549774 0.6290982304
O 2.5420643529 -1.1392687575 1.2917018949
O 3.0258925976 -0.9740065988 -1.896997124
C 1.9440283796 -2.493101653 1.3559720522
C 5.297840162 1.0299957421 -1.3404062572
C 6.1353668229 2.2368111776 -0.760004964
C 6.656368352 1.618285967 0.5909828633
C 6.0596797765 0.1582342513 0.5123291357
O 6.0810142223 -0.1581035005 -0.9353308488
H 3.5276690526 1.9011979594 -0.2632817949
H 4.2777335309 0.8243153484 1.7273802698
H 5.1455955725 1.0377775286 -2.4370173173
H 6.9682169905 2.4867428826 -1.436549347
H 5.5200996604 3.1380834904 -0.6083338802
H 7.7568909283 1.5849579025 0.6230504065
H 6.2938101484 2.1653474014 1.475917572
H 6.606574073 -0.6179375928 1.0816287558
O -2.6728119786 -1.751100893 0.7238634732
C -1.6879602122 2.3908747503 1.7800464783
C -6.083026174 0.5959442206 0.4416508994
C -7.0760538552 0.4636149207 -0.7800928866
C -6.7302351054 -0.9797082757 -1.3050978761
C -5.5385372066 -1.3661543361 -0.3445735247
O -5.950584762 -0.7871466533 0.9534146571
H -4.6046912623 1.7076016296 -0.8589704225
H -4.2318356596 -0.3797272931 -1.8704456518
H -1.4015540862 1.5650482818 2.4625383431
H -6.4090471434 1.2747773209 1.2531395313
H -8.121007358 0.5329158397 -0.4389897404
H -6.899547481 1.2434605833 -1.5380619386
H -7.575951405 -1.6716637141 -1.1643361245
H -6.4354454495 -0.9906511456 -2.3665680672
H -5.3382803186 -2.4499568062 -0.2390455521
H -2.2477889305 3.1509266627 2.3611437319
H -0.7781604528 2.8466475617 1.3479827933
H 0.8830852187 -2.3484375809 1.6318373174
H 2.4429179556 -3.1271158817 2.1164791946
H 2.0045225252 -3.0064038848 0.3741300826
H 0.8641127635 -1.1572654267 -1.8114999586
H 0.1835461334 0.3754129378 -2.4787556854
H -0.4397560966 -0.8355824302 0.3285481271
H -0.9362083003 0.8312653529 -0.1669442514
$end

$rem
JOBTYPE                   OPT
METHOD                    B3LYP
DFT_D                     d3_op
BASIS                     STO-3G
GEOM_OPT_MAX_CYCLES       100
GEOM_OPT_TOL_GRADIENT     300
GEOM_OPT_TOL_DISPLACEMENT 1200
GEOM_OPT_TOL_ENERGY       100
SYMMETRY                  False
THRESH                    12
SCF_CONVERGENCE           8
MAX_SUB_FILE_NUM          128
MEM_STATIC                400
MEM_TOTAL                 4000
$end
--------------------------------------------------------------
 Adding empirical dispersion correction 
 ----------------------------------------------------------------
 Doing -D3(op) with
 s6 =   1.00000
 s8 =   0.78311
 a1 =   0.30000
 a2 =   4.25000
 n  =  10.00000
 -D3 energy without 3body term =     -0.0676053239 hartrees
 ----------------------------------------------------------------
             Standard Nuclear Orientation (Angstroms)
    I     Atom           X                Y                Z
 ----------------------------------------------------------------
    1      O      -4.0126784153     1.7526955526     1.9604572527
    2      C      -3.6856377467     1.5612635880     0.7701349138
    3      C      -4.5807049643     0.9320563769    -0.3598387856
    4      C      -4.2474073712    -0.5745611099    -0.7613483973
    5      C      -2.8911758651    -1.1044738698    -0.1813839739
    6      O      -1.8519281720    -0.8936275121    -1.1632542902
    7      C      -0.6645165251    -0.2808925860    -0.5190254383
    8      C       0.5437803818    -0.4350072479    -1.4962203741
    9      O       1.6363597693     0.4241797489    -0.9754935765
   10      C       2.9065707102    -0.2180482539    -1.1484644206
   11      C       4.0087083054     0.7369914915    -0.5812857066
   12      C       4.5242391790     0.2843195882     0.8554450905
   13      C       3.9312907986    -1.1027724217     1.2947707103
   14      O       4.5331344056    -2.1920882375     1.3936542050
   15      O      -2.4328782697     2.0062221555     0.2220691389
   16      O       2.5231067475    -0.9377284825     1.5127588288
   17      O       3.0600517143    -1.3557285208    -1.6441651258
   18      C       1.8987344142    -2.2484146132     1.8075506939
   19      C       5.3603160921     0.6797249535    -1.4133460260
   20      C       6.2111984221     1.9578782377    -1.0431521489
   21      C       6.6991431449     1.5840604618     0.4064527479
   22      C       6.0763644589     0.1431955852     0.5797438126
   23      O       6.1145002801    -0.4284072859    -0.7870260947
   24      H       3.5901512062     1.7579870118    -0.5435395087
   25      H       4.2883943940     1.0446685343     1.6217876110
   26      H       5.2255104660     0.4927297802    -2.4962380043
   27      H       7.0591464448     2.0690645493    -1.7377306655
   28      H       5.6107108477     2.8812871606    -1.0672398011
   29      H       7.7982020468     1.5397522979     0.4647223380
   30      H       6.3330831152     2.2868519741     1.1719057168
   31      H       6.5995178316    -0.5265452013     1.2892478564
   32      O      -2.6927951948    -1.5596333085     0.9656614847
   33      C      -1.6468174968     2.6887165333     1.2801007466
   34      C      -6.0533264791     0.7517830180     0.2027659390
   35      C      -7.0293336337     0.4176988801    -0.9939256339
   36      C      -6.7025538937    -1.1017193364    -1.2448957138
   37      C      -5.5336016646    -1.3279596832    -0.2083353148
   38      O      -5.9550304161    -0.5187502289     0.9567330399
   39      H      -4.5340386211     1.5882866777    -1.2480607774
   40      H      -4.1847122303    -0.6524097199    -1.8614906413
   41      H      -1.3867894995     1.9945662117     2.1049363316
   42      H      -6.3792226578     1.5704141519     0.8730290199
   43      H      -8.0780313737     0.5635689289    -0.6905499993
   44      H      -6.8262677757     1.0457885145    -1.8760245568
   45      H      -7.5632654284    -1.7437481552    -0.9982645953
   46      H      -6.3913653420    -1.3078405783    -2.2814358110
   47      H      -5.3554831631    -2.3781715649     0.0936507302
   48      H      -2.2012974878     3.5495103081     1.7047737248
   49      H      -0.7219100609     3.0450879082     0.7905201467
   50      H       0.8364976471    -2.0398882849     2.0329382491
   51      H       2.3735685812    -2.7432186257     2.6787208655
   52      H       1.9649814421    -2.9306677904     0.9350288835
   53      H       0.8941258205    -1.4866590312    -1.5679559507
   54      H       0.2531332326    -0.0883199285    -2.5120324136
   55      H      -0.4369466889    -0.7652410911     0.4547061304
   56      H      -0.8940539398     0.7930373621    -0.3410201059
 ----------------------------------------------------------------
 Molecular Point Group                 C1    NOp =  1
 Largest Abelian Subgroup              C1    NOp =  1
 Nuclear Repulsion Energy =  3066.5994399554 hartrees
 There are      113 alpha and      113 beta electrons
 Requested basis set is STO-3G
 There are 86 shells and 176 basis functions

 Total QAlloc Memory Limit   4000 MB
 Mega-Array Size       392 MB
 MEM_STATIC part       400 MB
 A cutoff of  1.0D-12 yielded   2092 shell pairs
 There are      9682 function pairs
 
 -------------------------------------------------------
 OpenMP Integral Computing Module                       
 Release: version 1.0, May 2013, Q-Chem Inc. Pittsburgh 
 -------------------------------------------------------
 Integral Job Info:
 Integral job number is                      11
 Integral operator is                         1
 short-range coefficients                     0
 long-range coefficients              100000000
 Omega coefficients                           0
 if combine SR and LR in K                    0
 Integral screening is                        0
 Integral computing path is                   2
 max size of driver memory is            800000
 size of driver memory is                 45569
 size of scratch memory is              1046100
 max col of scratch BK array                289
 max len of scratch array in speh3           22
 max len of scratch index in speh4            8
 max int batch size is                      520
 min int batch size is                       52
 fixed nKL is                                52
 max L of basis functions is                  1
 order of int derivative is                   0
 number of shells is                         86
 number of basis is                         176
 number of cartesian basis is               176
 number of contracted shell pairs          2092
 number of primitive shell pairs          10794
 maxK2 (contraction) of shell pair            9
 max number of K2 of shell pair               1
 max number of CS2 of shell pair            320
 max number of PS2 of shell pair           1240
 mem total for path MDJ                   49782
 -------------------------------------------------------
 Smallest overlap matrix eigenvalue = 2.13E-01

 Scale SEOQF with 1.000000e-02/1.000000e-01/1.000000e-01

 Standard Electronic Orientation quadrupole field applied
 Nucleus-field energy     =     0.0000000134 hartrees
 Guess from superposition of atomic densities
 Warning:  Energy on first SCF cycle will be non-variational
 A restricted hybrid HF-DFT SCF calculation will be
 performed using Pulay DIIS extrapolation
 Exchange:     0.2000 Hartree-Fock + 0.0800 Slater + 0.7200 B88
 Correlation:  0.1900 VWN1RPA + 0.8100 LYP
 Using SG-1 standard quadrature grid
 Dispersion:   Grimme D3
 SCF converges when DIIS error is below 1.0E-08
 using 48 threads for integral computing
 -------------------------------------------------------
 OpenMP Integral computing Module                
 Release: version 1.0, May 2013, Q-Chem Inc. Pittsburgh 
 -------------------------------------------------------
 -------------------------------------------------------
 OpenMP BLAS3 based DFT computing Module                
 Release: version 1.0, May 2013, Q-Chem Inc. Pittsburgh 
 -------------------------------------------------------
 ---------------------------------------
  Cycle       Energy         DIIS Error
 ---------------------------------------
    1   -1507.6187252256      7.46E-02
    2   -1509.7106366571      1.06E-02
    3   -1507.1410238106      2.83E-02
    4   -1510.1672678995      4.79E-03
    5   -1510.2606960883      1.57E-03
    6   -1510.2705778251      4.91E-04
    7   -1510.2715146854      1.77E-04
    8   -1510.2716440024      4.30E-05
    9   -1510.2716499952      2.20E-05
   10   -1510.2716520264      5.78E-06
   11   -1510.2716521712      1.47E-06
   12   -1510.2716521811      2.87E-07
   13   -1510.2716521815      9.89E-08
   14   -1510.2716521815      3.23E-08
   15   -1510.2716521815      1.51E-08
   16   -1510.2716521814      7.93E-09 Convergence criterion met
 ---------------------------------------
 SCF time:  CPU 115.24 s  wall 2.46 s
 SCF   energy in the final basis set = -1510.27165218
 Total energy in the final basis set = -1510.27165218
 
 --------------------------------------------------------------
 
                    Orbital Energies (a.u.)
 --------------------------------------------------------------
 
 Alpha MOs
 -- Occupied --
-18.944 -18.933 -18.933 -18.916 -18.889 -18.889 -18.887 -18.886
-18.878 -18.876 -10.106 -10.104 -10.100 -10.099 -10.071 -10.068
-10.065 -10.063 -10.061 -10.061 -10.060 -10.058 -10.045 -10.040
-10.040 -10.038 -10.022 -10.021 -10.021 -10.020  -1.020  -1.015
 -1.009  -1.007  -0.972  -0.970  -0.944  -0.940  -0.936  -0.935
 -0.766  -0.764  -0.728  -0.725  -0.713  -0.706  -0.696  -0.669
 -0.662  -0.615  -0.599  -0.580  -0.549  -0.547  -0.541  -0.538
 -0.514  -0.510  -0.482  -0.474  -0.465  -0.461  -0.455  -0.454
 -0.439  -0.431  -0.427  -0.421  -0.419  -0.414  -0.409  -0.398
 -0.395  -0.378  -0.376  -0.367  -0.363  -0.362  -0.358  -0.352
 -0.348  -0.342  -0.339  -0.334  -0.332  -0.331  -0.330  -0.312
 -0.311  -0.308  -0.306  -0.305  -0.293  -0.285  -0.283  -0.275
 -0.273  -0.264  -0.254  -0.252  -0.245  -0.236  -0.234  -0.189
 -0.180  -0.175  -0.167  -0.164  -0.159  -0.153  -0.150  -0.145
 -0.144
 -- Virtual --
  0.080   0.091   0.095   0.103   0.207   0.228   0.239   0.254
  0.261   0.279   0.285   0.286   0.296   0.309   0.322   0.326
  0.332   0.344   0.345   0.351   0.357   0.361   0.368   0.371
  0.377   0.382   0.385   0.394   0.403   0.404   0.408   0.410
  0.412   0.413   0.416   0.419   0.419   0.420   0.424   0.426
  0.429   0.430   0.433   0.436   0.439   0.440   0.449   0.464
  0.466   0.479   0.485   0.486   0.496   0.503   0.506   0.539
  0.540   0.549   0.551   0.627   0.639   0.646   0.655
 --------------------------------------------------------------
 
          Ground-State Mulliken Net Atomic Charges

     Atom                 Charge (a.u.)
  ----------------------------------------
      1 O                    -0.202134
      2 C                     0.207284
      3 C                    -0.077711
      4 C                    -0.079657
      5 C                     0.209917
      6 O                    -0.186924
      7 C                    -0.055316
      8 C                    -0.052250
      9 O                    -0.172593
     10 C                     0.208792
     11 C                    -0.078919
     12 C                    -0.077630
     13 C                     0.209268
     14 O                    -0.204399
     15 O                    -0.172751
     16 O                    -0.174018
     17 O                    -0.212708
     18 C                    -0.130372
     19 C                     0.025587
     20 C                    -0.143330
     21 C                    -0.144626
     22 C                     0.025061
     23 O                    -0.184904
     24 H                     0.085192
     25 H                     0.084928
     26 H                     0.085164
     27 H                     0.078393
     28 H                     0.072795
     29 H                     0.078544
     30 H                     0.072745
     31 H                     0.089403
     32 O                    -0.198550
     33 C                    -0.130188
     34 C                     0.026081
     35 C                    -0.145090
     36 C                    -0.142986
     37 C                     0.024722
     38 O                    -0.185068
     39 H                     0.086675
     40 H                     0.086248
     41 H                     0.092865
     42 H                     0.088534
     43 H                     0.078899
     44 H                     0.073001
     45 H                     0.078726
     46 H                     0.073646
     47 H                     0.086463
     48 H                     0.091582
     49 H                     0.092039
     50 H                     0.091038
     51 H                     0.091252
     52 H                     0.091213
     53 H                     0.099011
     54 H                     0.084928
     55 H                     0.085881
     56 H                     0.096244
  ----------------------------------------
  Sum of atomic charges =     0.000000

 -----------------------------------------------------------------
                    Cartesian Multipole Moments
 -----------------------------------------------------------------
    Charge (ESU x 10^10)
                 0.0000
    Dipole Moment (Debye)
         X      -1.0462      Y       3.7718      Z      -1.4282
       Tot       4.1666
    Quadrupole Moments (Debye-Ang)
        XX    -161.7521     XY      13.3574     YY    -158.3610
        XZ      18.3089     YZ      -0.9354     ZZ    -162.4004
    Octopole Moments (Debye-Ang^2)
       XXX     -69.6678    XXY      93.2600    XYY     -25.7192
       YYY      -0.1151    XXZ     -52.1054    XYZ     -11.4930
       YYZ      10.6287    XZZ      29.4499    YZZ      -2.2129
       ZZZ       1.2272
    Hexadecapole Moments (Debye-Ang^3)
      XXXX  -19022.7520   XXXY     325.0513   XXYY   -3568.2509
      XYYY     -57.5179   YYYY   -1822.1866   XXXZ     431.8521
      XXYZ     -15.8887   XYYZ     -17.1613   YYYZ      20.3480
      XXZZ   -3519.7818   XYZZ      -9.6474   YYZZ    -540.7317
      XZZZ     -21.2640   YZZZ     -27.1141   ZZZZ   -1331.9765
 -----------------------------------------------------------------
 Calculating analytic gradient of the SCF energy
 Gradient of SCF Energy
            1           2           3           4           5           6
    1  -0.0007209   0.0012741  -0.0001105   0.0007196  -0.0026750   0.0042506
    2   0.0014951  -0.0021732   0.0009257   0.0063096  -0.0097032  -0.0039942
    3  -0.0004255   0.0001252  -0.0010759   0.0051801  -0.0067754   0.0039452
            7           8           9          10          11          12
    1  -0.0030976   0.0009506  -0.0007067   0.0000602   0.0014947  -0.0016574
    2   0.0076067  -0.0011403  -0.0007593   0.0007789  -0.0002836   0.0009228
    3  -0.0019573  -0.0003475   0.0027350  -0.0008086  -0.0021500   0.0003586
           13          14          15          16          17          18
    1   0.0010475  -0.0004251   0.0002553   0.0000245   0.0000046   0.0000047
    2   0.0002598  -0.0004367  -0.0001231   0.0000987  -0.0002067   0.0000598
    3   0.0027589  -0.0020773  -0.0001583  -0.0000246   0.0001227   0.0001145
           19          20          21          22          23          24
    1  -0.0003021   0.0000171  -0.0001646   0.0001417  -0.0003177  -0.0001474
    2  -0.0006695   0.0001413  -0.0002251   0.0003933   0.0000499  -0.0000924
    3   0.0001431  -0.0005267   0.0004636  -0.0003146   0.0002247  -0.0000840
           25          26          27          28          29          30
    1   0.0001192   0.0000101   0.0001667   0.0000760   0.0000069   0.0001316
    2   0.0000010   0.0000363   0.0001464   0.0000333  -0.0000064  -0.0000114
    3   0.0000263   0.0000609   0.0000514  -0.0000649  -0.0000002  -0.0000054
           31          32          33          34          35          36
    1  -0.0000572   0.0000108   0.0000649  -0.0004215   0.0000863  -0.0000552
    2  -0.0000219  -0.0000075   0.0000905   0.0000191   0.0001378  -0.0000994
    3   0.0000073   0.0002207   0.0003174   0.0001196   0.0000399  -0.0001609
           37          38          39          40          41          42
    1  -0.0002092   0.0002300   0.0001471  -0.0001584  -0.0001841   0.0000109
    2  -0.0001086   0.0001205   0.0001882   0.0000882   0.0000234   0.0000291
    3   0.0005360  -0.0005446   0.0000065   0.0001168  -0.0000678  -0.0000162
           43          44          45          46          47          48
    1  -0.0000439   0.0000786  -0.0000762   0.0000021   0.0000124  -0.0000075
    2   0.0000008  -0.0000223   0.0000587   0.0000031  -0.0000166  -0.0000048
    3   0.0000071   0.0000547  -0.0000411   0.0000432   0.0000402  -0.0000638
           49          50          51          52          53          54
    1   0.0000240   0.0000455   0.0000337  -0.0000747  -0.0000328   0.0000505
    2  -0.0000270  -0.0000665   0.0000359  -0.0000944  -0.0000264   0.0000092
    3  -0.0000653   0.0000080  -0.0000816  -0.0000379  -0.0000164   0.0001040
           55          56
    1   0.0000816   0.0000116
    2   0.0001267   0.0001306
    3   0.0000146  -0.0000545
 Max gradient component =       9.703E-03
 RMS gradient           =       1.516E-03
 Gradient time:  CPU 31.21 s  wall 0.67 s
 Geometry Optimization Parameters
   NAtoms,    NIC,     NZ,  NCons,   NDum,   NFix, NCnnct, MaxDiis
       56     458       0       0       0       0       0       0


** GEOMETRY OPTIMIZATION IN DELOCALIZED INTERNAL COORDINATES **
   Searching for a Minimum

   Optimization Cycle:   1

                       Coordinates (Angstroms)
     ATOM                X               Y               Z
      1  O        -4.0126784153    1.7526955526    1.9604572527
      2  C        -3.6856377467    1.5612635880    0.7701349138
      3  C        -4.5807049643    0.9320563769   -0.3598387856
      4  C        -4.2474073712   -0.5745611099   -0.7613483973
      5  C        -2.8911758651   -1.1044738698   -0.1813839739
      6  O        -1.8519281720   -0.8936275121   -1.1632542902
      7  C        -0.6645165251   -0.2808925860   -0.5190254383
      8  C         0.5437803818   -0.4350072479   -1.4962203741
      9  O         1.6363597693    0.4241797489   -0.9754935765
     10  C         2.9065707102   -0.2180482539   -1.1484644206
     11  C         4.0087083054    0.7369914915   -0.5812857066
     12  C         4.5242391790    0.2843195882    0.8554450905
     13  C         3.9312907986   -1.1027724217    1.2947707103
     14  O         4.5331344056   -2.1920882375    1.3936542050
     15  O        -2.4328782697    2.0062221555    0.2220691389
     16  O         2.5231067475   -0.9377284825    1.5127588288
     17  O         3.0600517143   -1.3557285208   -1.6441651258
     18  C         1.8987344142   -2.2484146132    1.8075506939
     19  C         5.3603160921    0.6797249535   -1.4133460260
     20  C         6.2111984221    1.9578782377   -1.0431521489
     21  C         6.6991431449    1.5840604618    0.4064527479
     22  C         6.0763644589    0.1431955852    0.5797438126
     23  O         6.1145002801   -0.4284072859   -0.7870260947
     24  H         3.5901512062    1.7579870118   -0.5435395087
     25  H         4.2883943940    1.0446685343    1.6217876110
     26  H         5.2255104660    0.4927297802   -2.4962380043
     27  H         7.0591464448    2.0690645493   -1.7377306655
     28  H         5.6107108477    2.8812871606   -1.0672398011
     29  H         7.7982020468    1.5397522979    0.4647223380
     30  H         6.3330831152    2.2868519741    1.1719057168
     31  H         6.5995178316   -0.5265452013    1.2892478564
     32  O        -2.6927951948   -1.5596333085    0.9656614847
     33  C        -1.6468174968    2.6887165333    1.2801007466
     34  C        -6.0533264791    0.7517830180    0.2027659390
     35  C        -7.0293336337    0.4176988801   -0.9939256339
     36  C        -6.7025538937   -1.1017193364   -1.2448957138
     37  C        -5.5336016646   -1.3279596832   -0.2083353148
     38  O        -5.9550304161   -0.5187502289    0.9567330399
     39  H        -4.5340386211    1.5882866777   -1.2480607774
     40  H        -4.1847122303   -0.6524097199   -1.8614906413
     41  H        -1.3867894995    1.9945662117    2.1049363316
     42  H        -6.3792226578    1.5704141519    0.8730290199
     43  H        -8.0780313737    0.5635689289   -0.6905499993
     44  H        -6.8262677757    1.0457885145   -1.8760245568
     45  H        -7.5632654284   -1.7437481552   -0.9982645953
     46  H        -6.3913653420   -1.3078405783   -2.2814358110
     47  H        -5.3554831631   -2.3781715649    0.0936507302
     48  H        -2.2012974878    3.5495103081    1.7047737248
     49  H        -0.7219100609    3.0450879082    0.7905201467
     50  H         0.8364976471   -2.0398882849    2.0329382491
     51  H         2.3735685812   -2.7432186257    2.6787208655
     52  H         1.9649814421   -2.9306677904    0.9350288835
     53  H         0.8941258205   -1.4866590312   -1.5679559507
     54  H         0.2531332326   -0.0883199285   -2.5120324136
     55  H        -0.4369466889   -0.7652410911    0.4547061304
     56  H        -0.8940539398    0.7930373621   -0.3410201059
   Point Group: c1    Number of degrees of freedom:   162


   Energy is  -1510.271652181


 Attempting to Generate Delocalized Internal Coordinates

162 Hessian modes will be used to form the next step
  Hessian Eigenvalues:
     0.002000    0.002000    0.002000    0.002000    0.002000    0.002693
     0.002718    0.004015    0.004169    0.004210    0.004250    0.004495
     0.004497    0.004616    0.004873    0.006843    0.006854    0.009668
     0.010622    0.011084    0.011173    0.021686    0.021698    0.026105
     0.026363    0.030685    0.030847    0.035512    0.035670    0.040410
     0.041138    0.041660    0.041911    0.044813    0.046851    0.047938
     0.048275    0.050657    0.051051    0.051185    0.051496    0.053165
     0.053722    0.054254    0.054915    0.055209    0.055400    0.056193
     0.056457    0.058490    0.059283    0.060554    0.060692    0.063491
     0.063784    0.064194    0.064304    0.070002    0.070103    0.073034
     0.073035    0.091359    0.092138    0.092803    0.092886    0.095745
     0.095983    0.096750    0.096781    0.102508    0.102560    0.108611
     0.109124    0.109743    0.110593    0.120827    0.120951    0.134366
     0.134943    0.157077    0.157724    0.160000    0.160000    0.160000
     0.160000    0.160000    0.160000    0.163074    0.163934    0.219625
     0.219921    0.220112    0.220265    0.223613    0.224387    0.238199
     0.238373    0.239616    0.239674    0.245989    0.248211    0.249424
     0.249517    0.249782    0.249942    0.250000    0.250000    0.250000
     0.250000    0.250000    0.250000    0.250000    0.250000    0.253267
     0.253277    0.257955    0.259258    0.262286    0.264328    0.266868
     0.292778    0.293308    0.306893    0.307252    0.323348    0.323893
     0.324842    0.325163    0.326453    0.327094    0.327371    0.327599
     0.328995    0.329030    0.329106    0.329115    0.330568    0.330805
     0.330995    0.331347    0.331705    0.332323    0.334894    0.334895
     0.334903    0.334904    0.334911    0.334950    0.335174    0.335278
     0.340829    0.340841    0.341853    0.344061    0.388826    0.398646
     0.403519    0.404467    0.830757    0.832755    0.835378    0.838159

 Minimum Search - Taking Simple RFO Step
 Searching for Lamda that Minimizes Along All modes
 Value Taken    Lamda =  -0.01589387
 Calculated Step too Large.  Step scaled by  0.362014
 Step Taken.  Stepsize is  0.300000

                             Maximum     Tolerance    Cnvgd?
         Gradient           0.010325      0.000300      NO
         Displacement       0.127338      0.001200      NO
         Energy change     *********      0.000001      NO


 New Cartesian Coordinates Obtained by Inverse Iteration

 Displacement from previous Coordinates is:  4.614298
 Adding empirical dispersion correction 
 ----------------------------------------------------------------
 Doing -D3(op) with
 s6 =   1.00000
 s8 =   0.78311
 a1 =   0.30000
 a2 =   4.25000
 n  =  10.00000
 -D3 energy without 3body term =     -0.0666417332 hartrees
 ----------------------------------------------------------------
             Standard Nuclear Orientation (Angstroms)
    I     Atom           X                Y                Z
 ----------------------------------------------------------------
    1      O      -4.3315815862     1.9174747993     1.9579772558
    2      C      -3.9772683030     1.7547487599     0.7711994850
    3      C      -4.7605885038     0.9702186880    -0.3446137258
    4      C      -4.2116339673    -0.4853248098    -0.6965266780
    5      C      -2.8041852098    -0.8030046864    -0.0845045025
    6      O      -1.7951238127    -0.5933937644    -1.0976926562
    7      C      -0.5595824736    -0.0609895945    -0.4731976390
    8      C       0.6057336875    -0.2204695199    -1.5003838523
    9      O       1.7557873750     0.5569093387    -0.9749773417
   10      C       2.9834931895    -0.1503196082    -1.1948296546
   11      C       4.1434791104     0.6992355051    -0.5772444963
   12      C       4.6308704088     0.1311829273     0.8274763091
   13      C       3.9504202946    -1.2379287289     1.1893258974
   14      O       4.4859347581    -2.3642475431     1.2461047136
   15      O      -2.8000953891     2.3652762515     0.2151589023
   16      O       2.5546896279    -0.9966960602     1.4163710007
   17      O       3.0642081625    -1.2677463273    -1.7501311196
   18      C       1.8499705386    -2.2782264496     1.6520995054
   19      C       5.4888740531     0.6074165090    -1.4166489121
   20      C       6.4172906156     1.8060015347    -0.9747061354
   21      C       6.8821309193     1.3173395337     0.4478176140
   22      C       6.1711464246    -0.0900564698     0.5384542135
   23      O       6.1734159020    -0.5805849439    -0.8601251203
   24      H       3.7899856413     1.7404837002    -0.4776273231
   25      H       4.4420236021     0.8594759789     1.6367766236
   26      H       5.3423532880     0.4937393114    -2.5082059629
   27      H       7.2697468819     1.9054409770    -1.6654486179
   28      H       5.8749893525     2.7644649328    -0.9413754775
   29      H       7.9763668463     1.2018671346     0.4987595594
   30      H       6.5604967404     1.9948402557     1.2549306569
   31      H       6.6518954148    -0.8316201259     1.2052455018
   32      O      -2.5657725453    -1.2300254179     1.0656862791
   33      C      -2.1252786063     3.1775733983     1.2581239589
   34      C      -6.1984945812     0.5991290720     0.2140030386
   35      C      -7.1046197662     0.0937691155    -0.9777082633
   36      C      -6.5624868249    -1.3702854711    -1.1789072438
   37      C      -5.3846257431    -1.3959893368    -0.1284736096
   38      O      -5.9292650270    -0.6208617362     1.0083512161
   39      H      -4.7994895385     1.5997550309    -1.2522426071
   40      H      -4.1246450371    -0.5902866807    -1.7928256824
   41      H      -1.7681459515     2.5467058909     2.0974031709
   42      H      -6.6445165767     1.3829166138     0.8561510463
   43      H      -8.1664866059     0.0978871015    -0.6853862284
   44      H      -6.9838093012     0.7174770115    -1.8778589302
   45      H      -7.3254826760    -2.1207874304    -0.9173280173
   46      H      -6.2141672798    -1.5613026064    -2.2065068320
   47      H      -5.0626368011    -2.4005359534     0.2077426802
   48      H      -2.8008654155     3.9566704562     1.6647958762
   49      H      -1.2613271632     3.6552816011     0.7606390827
   50      H       0.8020133708    -2.0146324505     1.8866347456
   51      H       2.2908706876    -2.8399845383     2.5002502284
   52      H       1.8765069888    -2.9233238927     0.7497842557
   53      H       0.9020964133    -1.2828343227    -1.6322933733
   54      H       0.3002360780     0.1876811279    -2.4886911442
   55      H      -0.3192982981    -0.6005672860     0.4679138468
   56      H      -0.7348018663     1.0119280706    -0.2371931604
 ----------------------------------------------------------------
 Molecular Point Group                 C1    NOp =  1
 Largest Abelian Subgroup              C1    NOp =  1
 Nuclear Repulsion Energy =  3043.4525809526 hartrees
 There are      113 alpha and      113 beta electrons
 Applying Cartesian multipole field
    Component          Value
    ---------          -----
     (2,0,0)        1.00000E-12
     (0,2,0)        2.00000E-11
     (0,0,2)       -3.00000E-11
 Nucleus-field energy     =     0.0000000176 hartrees
 Requested basis set is STO-3G
 There are 86 shells and 176 basis functions
 A cutoff of  1.0D-12 yielded   2063 shell pairs
 There are      9584 function pairs
 Smallest overlap matrix eigenvalue = 2.13E-01
 Guess MOs from SCF MO coefficient file
 Reading MOs from coefficient file
 Reading MOs from coefficient file
 A restricted hybrid HF-DFT SCF calculation will be
 performed using Pulay DIIS extrapolation
 Exchange:     0.2000 Hartree-Fock + 0.0800 Slater + 0.7200 B88
 Correlation:  0.1900 VWN1RPA + 0.8100 LYP
 Using SG-1 standard quadrature grid
 Dispersion:   Grimme D3
 SCF converges when DIIS error is below 1.0E-08
 Geometry optimization detected.  Setting ReadMinima to 0
 Setting SaveMinima to 0
 using 48 threads for integral computing
 -------------------------------------------------------
 OpenMP Integral computing Module                
 Release: version 1.0, May 2013, Q-Chem Inc. Pittsburgh 
 -------------------------------------------------------
 -------------------------------------------------------
 OpenMP BLAS3 based DFT computing Module                
 Release: version 1.0, May 2013, Q-Chem Inc. Pittsburgh 
 -------------------------------------------------------
 ---------------------------------------
  Cycle       Energy         DIIS Error
 ---------------------------------------
    1   -1510.1282616025      5.38E-03
    2   -1510.2718200390      6.96E-04
    3   -1510.2691262269      1.13E-03
    4   -1510.2743101380      3.35E-04
    5   -1510.2747888819      8.57E-05
    6   -1510.2748159982      4.56E-05
    7   -1510.2748243018      2.10E-05
    8   -1510.2748262562      3.21E-06
    9   -1510.2748263079      1.41E-06
   10   -1510.2748263142      1.01E-06
   11   -1510.2748263186      2.81E-07
   12   -1510.2748263190      5.55E-08
   13   -1510.2748263190      2.12E-08
   14   -1510.2748263190      9.55E-09 Convergence criterion met
 ---------------------------------------
 SCF time:  CPU 97.33 s  wall 2.03 s
 SCF   energy in the final basis set = -1510.27482632
 Total energy in the final basis set = -1510.27482632
 
 --------------------------------------------------------------
 
                    Orbital Energies (a.u.)
 --------------------------------------------------------------
 
 Alpha MOs
 -- Occupied --
-18.937 -18.935 -18.934 -18.924 -18.889 -18.887 -18.886 -18.881
-18.879 -18.877 -10.104 -10.102 -10.101 -10.099 -10.072 -10.071
-10.068 -10.063 -10.061 -10.060 -10.060 -10.058 -10.043 -10.040
-10.040 -10.039 -10.022 -10.021 -10.021 -10.020  -1.016  -1.015
 -1.010  -1.008  -0.971  -0.970  -0.942  -0.939  -0.937  -0.936
 -0.766  -0.764  -0.728  -0.724  -0.714  -0.706  -0.697  -0.667
 -0.663  -0.616  -0.599  -0.580  -0.549  -0.548  -0.540  -0.538
 -0.515  -0.510  -0.481  -0.474  -0.465  -0.462  -0.454  -0.454
 -0.440  -0.431  -0.428  -0.418  -0.417  -0.415  -0.410  -0.400
 -0.395  -0.378  -0.377  -0.367  -0.364  -0.360  -0.358  -0.351
 -0.348  -0.343  -0.339  -0.334  -0.332  -0.331  -0.329  -0.311
 -0.310  -0.307  -0.306  -0.303  -0.294  -0.284  -0.282  -0.275
 -0.274  -0.260  -0.255  -0.253  -0.249  -0.235  -0.234  -0.183
 -0.180  -0.176  -0.171  -0.163  -0.160  -0.153  -0.151  -0.145
 -0.144
 -- Virtual --
  0.085   0.095   0.095   0.102   0.204   0.229   0.238   0.256
  0.261   0.279   0.285   0.286   0.296   0.310   0.321   0.329
  0.332   0.344   0.345   0.349   0.357   0.361   0.366   0.370
  0.377   0.381   0.384   0.391   0.403   0.406   0.408   0.409
  0.411   0.414   0.417   0.418   0.420   0.421   0.424   0.427
  0.429   0.430   0.433   0.435   0.439   0.440   0.446   0.465
  0.466   0.470   0.485   0.486   0.497   0.502   0.506   0.539
  0.540   0.550   0.551   0.629   0.638   0.648   0.654
 --------------------------------------------------------------
 
          Ground-State Mulliken Net Atomic Charges

     Atom                 Charge (a.u.)
  ----------------------------------------
      1 O                    -0.204971
      2 C                     0.205443
      3 C                    -0.077708
      4 C                    -0.079643
      5 C                     0.208838
      6 O                    -0.180644
      7 C                    -0.049371
      8 C                    -0.051722
      9 O                    -0.171537
     10 C                     0.209294
     11 C                    -0.078899
     12 C                    -0.077564
     13 C                     0.209468
     14 O                    -0.204533
     15 O                    -0.173930
     16 O                    -0.174035
     17 O                    -0.212710
     18 C                    -0.130554
     19 C                     0.025552
     20 C                    -0.143381
     21 C                    -0.144550
     22 C                     0.025015
     23 O                    -0.185041
     24 H                     0.085684
     25 H                     0.085501
     26 H                     0.085051
     27 H                     0.078426
     28 H                     0.072958
     29 H                     0.078587
     30 H                     0.072908
     31 H                     0.089634
     32 O                    -0.201948
     33 C                    -0.130414
     34 C                     0.026024
     35 C                    -0.145145
     36 C                    -0.143048
     37 C                     0.025108
     38 O                    -0.184782
     39 H                     0.086006
     40 H                     0.086298
     41 H                     0.091188
     42 H                     0.088317
     43 H                     0.078709
     44 H                     0.072975
     45 H                     0.078791
     46 H                     0.073595
     47 H                     0.086288
     48 H                     0.090752
     49 H                     0.090000
     50 H                     0.091443
     51 H                     0.091548
     52 H                     0.090751
     53 H                     0.099991
     54 H                     0.086069
     55 H                     0.090893
     56 H                     0.089021
  ----------------------------------------
  Sum of atomic charges =     0.000000

 -----------------------------------------------------------------
                    Cartesian Multipole Moments
 -----------------------------------------------------------------
    Charge (ESU x 10^10)
                 0.0000
    Dipole Moment (Debye)
         X      -0.7955      Y       3.4764      Z      -1.4456
       Tot       3.8481
    Quadrupole Moments (Debye-Ang)
        XX    -160.2178     XY      14.0863     YY    -157.9740
        XZ      19.2680     YZ      -1.1093     ZZ    -163.2903
    Octopole Moments (Debye-Ang^2)
       XXX     -52.6434    XXY      87.4464    XYY     -31.8993
       YYY      -2.5897    XXZ     -48.4390    XYZ     -13.9675
       YYZ      13.1387    XZZ      30.2599    YZZ      -4.2330
       ZZZ       1.5729
    Hexadecapole Moments (Debye-Ang^3)
      XXXX  -19510.1729   XXXY     492.4325   XXYY   -3715.4205
      XYYY     104.2890   YYYY   -1941.8307   XXXZ     575.3570
      XXYZ     -43.6288   XYYZ      14.9100   YYYZ       6.4159
      XXZZ   -3631.2265   XYZZ      47.4313   YYZZ    -554.6981
      XZZZ      91.9354   YZZZ     -49.3522   ZZZZ   -1285.3007
 -----------------------------------------------------------------
 Calculating analytic gradient of the SCF energy
 Gradient of SCF Energy
            1           2           3           4           5           6
    1  -0.0000584  -0.0012175   0.0006715  -0.0018586   0.0003022   0.0053183
    2   0.0013330  -0.0022246   0.0006729   0.0008687   0.0038950  -0.0069889
    3  -0.0009350   0.0002964  -0.0005844   0.0033030  -0.0010890   0.0007628
            7           8           9          10          11          12
    1   0.0006969   0.0002871  -0.0003897  -0.0002437   0.0011004  -0.0011599
    2   0.0053823  -0.0019023  -0.0009263   0.0011659  -0.0004230   0.0009023
    3  -0.0019632  -0.0003182   0.0027846  -0.0017503  -0.0012029   0.0006566
           13          14          15          16          17          18
    1   0.0006047  -0.0002283   0.0003483   0.0000786   0.0001418  -0.0001107
    2   0.0001139  -0.0002469   0.0032132   0.0001282  -0.0001755   0.0002588
    3   0.0007693  -0.0012870   0.0010015   0.0004107   0.0002368   0.0000034
           19          20          21          22          23          24
    1  -0.0000306  -0.0001239   0.0001627   0.0000835  -0.0002732   0.0000413
    2  -0.0001701  -0.0001446   0.0000818  -0.0004108   0.0000975  -0.0000135
    3   0.0000570  -0.0000842  -0.0001298   0.0001412   0.0002329   0.0000258
           25          26          27          28          29          30
    1  -0.0001133  -0.0000391   0.0001215   0.0000314   0.0000308   0.0000352
    2   0.0000322   0.0000274   0.0001207  -0.0000286   0.0000283   0.0000596
    3  -0.0000665   0.0000419   0.0000473  -0.0000110   0.0000040   0.0000014
           31          32          33          34          35          36
    1   0.0000394  -0.0012241   0.0000755   0.0000223   0.0001038  -0.0004847
    2   0.0000177  -0.0046591   0.0016635  -0.0008637   0.0002811  -0.0004714
    3   0.0000040  -0.0014499   0.0012194   0.0000225  -0.0002359   0.0001816
           37          38          39          40          41          42
    1  -0.0002652   0.0001454  -0.0001445  -0.0001618  -0.0000633   0.0000530
    2   0.0005817   0.0003657   0.0001618  -0.0001375  -0.0000615   0.0000694
    3  -0.0005991   0.0003584  -0.0000121   0.0000399  -0.0002244   0.0001101
           43          44          45          46          47          48
    1   0.0000366   0.0002343  -0.0001159  -0.0000222  -0.0000278  -0.0000799
    2   0.0000314  -0.0000788   0.0001094   0.0000640   0.0000850  -0.0001465
    3   0.0000003   0.0001367  -0.0000551   0.0000181   0.0000117  -0.0002307
           49          50          51          52          53          54
    1  -0.0000161   0.0000292  -0.0000181  -0.0000651   0.0001713   0.0001121
    2  -0.0000847   0.0000606  -0.0000743  -0.0000117   0.0000922  -0.0001930
    3   0.0001379  -0.0001529   0.0000019  -0.0000033   0.0000621  -0.0001536
           55          56
    1   0.0004784  -0.0030216
    2  -0.0005444  -0.0009835
    3  -0.0001840  -0.0003588
 Max gradient component =       6.989E-03
 RMS gradient           =       1.180E-03
 Gradient time:  CPU 28.44 s  wall 0.60 s
 Geometry Optimization Parameters
   NAtoms,    NIC,     NZ,  NCons,   NDum,   NFix, NCnnct, MaxDiis
       56     458       0       0       0       0       0       0

 Cartesian Hessian Update
 Hessian Updated using BFGS Update


** GEOMETRY OPTIMIZATION IN DELOCALIZED INTERNAL COORDINATES **
   Searching for a Minimum

   Optimization Cycle:   2

                       Coordinates (Angstroms)
     ATOM                X               Y               Z
      1  O        -4.3315815862    1.9174747993    1.9579772558
      2  C        -3.9772683030    1.7547487599    0.7711994850
      3  C        -4.7605885038    0.9702186880   -0.3446137258
      4  C        -4.2116339673   -0.4853248098   -0.6965266780
      5  C        -2.8041852098   -0.8030046864   -0.0845045025
      6  O        -1.7951238127   -0.5933937644   -1.0976926562
      7  C        -0.5595824736   -0.0609895945   -0.4731976390
      8  C         0.6057336875   -0.2204695199   -1.5003838523
      9  O         1.7557873750    0.5569093387   -0.9749773417
     10  C         2.9834931895   -0.1503196082   -1.1948296546
     11  C         4.1434791104    0.6992355051   -0.5772444963
     12  C         4.6308704088    0.1311829273    0.8274763091
     13  C         3.9504202946   -1.2379287289    1.1893258974
     14  O         4.4859347581   -2.3642475431    1.2461047136
     15  O        -2.8000953891    2.3652762515    0.2151589023
     16  O         2.5546896279   -0.9966960602    1.4163710007
     17  O         3.0642081625   -1.2677463273   -1.7501311196
     18  C         1.8499705386   -2.2782264496    1.6520995054
     19  C         5.4888740531    0.6074165090   -1.4166489121
     20  C         6.4172906156    1.8060015347   -0.9747061354
     21  C         6.8821309193    1.3173395337    0.4478176140
     22  C         6.1711464246   -0.0900564698    0.5384542135
     23  O         6.1734159020   -0.5805849439   -0.8601251203
     24  H         3.7899856413    1.7404837002   -0.4776273231
     25  H         4.4420236021    0.8594759789    1.6367766236
     26  H         5.3423532880    0.4937393114   -2.5082059629
     27  H         7.2697468819    1.9054409770   -1.6654486179
     28  H         5.8749893525    2.7644649328   -0.9413754775
     29  H         7.9763668463    1.2018671346    0.4987595594
     30  H         6.5604967404    1.9948402557    1.2549306569
     31  H         6.6518954148   -0.8316201259    1.2052455018
     32  O        -2.5657725453   -1.2300254179    1.0656862791
     33  C        -2.1252786063    3.1775733983    1.2581239589
     34  C        -6.1984945812    0.5991290720    0.2140030386
     35  C        -7.1046197662    0.0937691155   -0.9777082633
     36  C        -6.5624868249   -1.3702854711   -1.1789072438
     37  C        -5.3846257431   -1.3959893368   -0.1284736096
     38  O        -5.9292650270   -0.6208617362    1.0083512161
     39  H        -4.7994895385    1.5997550309   -1.2522426071
     40  H        -4.1246450371   -0.5902866807   -1.7928256824
     41  H        -1.7681459515    2.5467058909    2.0974031709
     42  H        -6.6445165767    1.3829166138    0.8561510463
     43  H        -8.1664866059    0.0978871015   -0.6853862284
     44  H        -6.9838093012    0.7174770115   -1.8778589302
     45  H        -7.3254826760   -2.1207874304   -0.9173280173
     46  H        -6.2141672798   -1.5613026064   -2.2065068320
     47  H        -5.0626368011   -2.4005359534    0.2077426802
     48  H        -2.8008654155    3.9566704562    1.6647958762
     49  H        -1.2613271632    3.6552816011    0.7606390827
     50  H         0.8020133708   -2.0146324505    1.8866347456
     51  H         2.2908706876   -2.8399845383    2.5002502284
     52  H         1.8765069888   -2.9233238927    0.7497842557
     53  H         0.9020964133   -1.2828343227   -1.6322933733
     54  H         0.3002360780    0.1876811279   -2.4886911442
     55  H        -0.3192982981   -0.6005672860    0.4679138468
     56  H        -0.7348018663    1.0119280706   -0.2371931604
   Point Group: c1    Number of degrees of freedom:   162


   Energy is  -1510.274826319

 Hessian Updated using BFGS Update

149 Hessian modes will be used to form the next step
  Hessian Eigenvalues:
     0.001862    0.002073    0.002689    0.002703    0.003443    0.004168
     0.004210    0.004427    0.004495    0.004611    0.004873    0.005033
     0.006842    0.006856    0.010490    0.011079    0.011106    0.021412
     0.021697    0.024988    0.026352    0.030120    0.030816    0.031517
     0.035511    0.035661    0.040863    0.041147    0.041651    0.041916
     0.045967    0.046961    0.048233    0.050648    0.050685    0.050911
     0.051270    0.052803    0.053163    0.054253    0.054852    0.055064
     0.055389    0.055673    0.056176    0.057622    0.059248    0.060248
     0.060585    0.063246    0.063742    0.064012    0.064274    0.064304
     0.070005    0.070094    0.073034    0.073061    0.091367    0.092261
     0.092804    0.092850    0.095751    0.096748    0.096780    0.099524
     0.102516    0.102561    0.108613    0.109536    0.109751    0.110934
     0.120817    0.131983    0.134243    0.141941    0.157083    0.159982
     0.159989    0.163063    0.163543    0.176023    0.219608    0.220009
     0.220138    0.220434    0.224352    0.229755    0.238118    0.239067
     0.239602    0.239698    0.246026    0.248149    0.248570    0.249435
     0.249545    0.249783    0.249942    0.253265    0.253276    0.257451
     0.259239    0.261790    0.264317    0.266867    0.292500    0.292803
     0.301184    0.306884    0.313921    0.323818    0.324041    0.324969
     0.325174    0.326462    0.327099    0.327383    0.327618    0.329007
     0.329030    0.329106    0.329125    0.330567    0.330825    0.330993
     0.331347    0.331709    0.332323    0.334894    0.334895    0.334903
     0.334909    0.334915    0.334950    0.335175    0.335282    0.340840
     0.341170    0.343989    0.345524    0.393548    0.400599    0.403584
     0.404633    0.830755    0.832756    0.835539    0.838159

 Minimum Search - Taking Simple RFO Step
 Searching for Lamda that Minimizes Along All modes
 Value Taken    Lamda =  -0.01187309
 Calculated Step too Large.  Step scaled by  0.361204
 Step Taken.  Stepsize is  0.300000

                             Maximum     Tolerance    Cnvgd?
         Gradient           0.010806      0.000300      NO
         Displacement       0.119184      0.001200      NO
         Energy change     -0.003174      0.000001      NO


 New Cartesian Coordinates Obtained by Inverse Iteration

 Displacement from previous Coordinates is:  3.073360
 Adding empirical dispersion correction 
 ----------------------------------------------------------------
 Doing -D3(op) with
 s6 =   1.00000
 s8 =   0.78311
 a1 =   0.30000
 a2 =   4.25000
 n  =  10.00000
 -D3 energy without 3body term =     -0.0668128081 hartrees
 ----------------------------------------------------------------
             Standard Nuclear Orientation (Angstroms)
    I     Atom           X                Y                Z
 ----------------------------------------------------------------
    1      O      -4.4381183031     2.0682154001     1.8660149536
    2      C      -4.1182375425     1.8767587568     0.6736064850
    3      C      -4.8677972165     0.9759839244    -0.3735206501
    4      C      -4.1962378336    -0.4400752787    -0.6507232819
    5      C      -2.7652883638    -0.5794899914    -0.0302841439
    6      O      -1.7842326675    -0.3246755647    -1.0587162763
    7      C      -0.5203362515     0.1362675988    -0.4328197493
    8      C       0.6168768996     0.0096523430    -1.4953045662
    9      O       1.8051484123     0.7053789635    -0.9417712130
   10      C       2.9976654524    -0.0471763264    -1.2019487602
   11      C       4.1926123047     0.7037934281    -0.5261662024
   12      C       4.6597845947     0.0118967043     0.8287100356
   13      C       3.9282555797    -1.3532019289     1.0940308542
   14      O       4.4261428239    -2.4980376744     1.0908143267
   15      O      -2.9676071728     2.4792903918     0.0581403556
   16      O       2.5412294085    -1.0789539204     1.3360799873
   17      O       3.0285829305    -1.1247590079    -1.8354113580
   18      C       1.7951086820    -2.3483524757     1.4990277359
   19      C       5.5328535112     0.6231040639    -1.3756312384
   20      C       6.5062580323     1.7490194509    -0.8485026929
   21      C       6.9534125325     1.1380611832     0.5314889605
   22      C       6.1903334575    -0.2446692612     0.5189338662
   23      O       6.1730908922    -0.6283724319    -0.9127588719
   24      H       3.8823107706     1.7482278819    -0.3472718538
   25      H       4.4983060948     0.6853679013     1.6897643192
   26      H       5.3810125260     0.5976716716    -2.4721350078
   27      H       7.3607581918     1.8673734709    -1.5335724752
   28      H       6.0005053327     2.7219826018    -0.7414664761
   29      H       8.0425598379     0.9782884108     0.5698848626
   30      H       6.6576628072     1.7645890210     1.3881655987
   31      H       6.6434551259    -1.0514669330     1.1267202406
   32      O      -2.4826822779    -0.9099700051     1.1414345509
   33      C      -2.2735450372     3.3457730926     1.0421750411
   34      C      -6.2578315846     0.5165219673     0.2374644985
   35      C      -7.1349389388    -0.1370928272    -0.9032539776
   36      C      -6.4652702093    -1.5562126440    -1.0333888403
   37      C      -5.2740401007    -1.4160765079    -0.0078143246
   38      O      -5.8692339853    -0.6270141577     1.0937301715
   39      H      -4.9741102847     1.5457830864    -1.3144759738
   40      H      -4.1085043281    -0.6039439269    -1.7398001004
   41      H      -1.8793382990     2.7581456274     1.8962876659
   42      H      -6.7605743978     1.2946443807     0.8435015696
   43      H      -8.1877027823    -0.2108741833    -0.5881850997
   44      H      -7.0868802009     0.4409509114    -1.8400697529
   45      H      -7.1525451431    -2.3556671682    -0.7134481031
   46      H      -6.1175336156    -1.7750411262    -2.0556585894
   47      H      -4.8579122502    -2.3660670046     0.3798051411
   48      H      -2.9476543217     4.1324919905     1.4366769827
   49      H      -1.4337144017     3.8136945362     0.4963354442
   50      H       0.7561925909    -2.0648980701     1.7502857082
   51      H       2.2174205556    -2.9716963918     2.3129474357
   52      H       1.8012219916    -2.9410479894     0.5611702004
   53      H       0.8714247486    -1.0519198467    -1.7006594761
   54      H       0.3085414868     0.4915450110    -2.4489557874
   55      H      -0.2759888328    -0.4700388794     0.4655360384
   56      H      -0.6501197088     1.1971826246    -0.1234958305
 ----------------------------------------------------------------
 Molecular Point Group                 C1    NOp =  1
 Largest Abelian Subgroup              C1    NOp =  1
 Nuclear Repulsion Energy =  3042.9546434983 hartrees
 There are      113 alpha and      113 beta electrons
 Applying Cartesian multipole field
    Component          Value
    ---------          -----
     (2,0,0)        1.00000E-12
     (0,2,0)        2.00000E-11
     (0,0,2)       -3.00000E-11
 Nucleus-field energy     =     0.0000000216 hartrees
 Requested basis set is STO-3G
 There are 86 shells and 176 basis functions
 A cutoff of  1.0D-12 yielded   2053 shell pairs
 There are      9511 function pairs
 Smallest overlap matrix eigenvalue = 2.13E-01
 Guess MOs from SCF MO coefficient file
 Reading MOs from coefficient file
 Reading MOs from coefficient file
 A restricted hybrid HF-DFT SCF calculation will be
 performed using Pulay DIIS extrapolation
 Exchange:     0.2000 Hartree-Fock + 0.0800 Slater + 0.7200 B88
 Correlation:  0.1900 VWN1RPA + 0.8100 LYP
 Using SG-1 standard quadrature grid
 Dispersion:   Grimme D3
 SCF converges when DIIS error is below 1.0E-08
 Geometry optimization detected.  Setting ReadMinima to 0
 Setting SaveMinima to 0
 using 48 threads for integral computing
 -------------------------------------------------------
 OpenMP Integral computing Module                
 Release: version 1.0, May 2013, Q-Chem Inc. Pittsburgh 
 -------------------------------------------------------
 -------------------------------------------------------
 OpenMP BLAS3 based DFT computing Module                
 Release: version 1.0, May 2013, Q-Chem Inc. Pittsburgh 
 -------------------------------------------------------
 ---------------------------------------
  Cycle       Energy         DIIS Error
 ---------------------------------------
    1   -1510.1818836483      4.44E-03
    2   -1510.2773480839      4.38E-04
    3   -1510.2767451418      6.42E-04
    4   -1510.2784758272      2.05E-04
    5   -1510.2786389730      7.58E-05
    6   -1510.2786619062      2.98E-05
    7   -1510.2786650935      1.49E-05
    8   -1510.2786660753      1.99E-06
    9   -1510.2786660965      5.99E-07
   10   -1510.2786660985      2.41E-07
   11   -1510.2786660988      9.90E-08
   12   -1510.2786660988      4.86E-08
   13   -1510.2786660988      1.68E-08
   14   -1510.2786660989      4.50E-09 Convergence criterion met
 ---------------------------------------
 SCF time:  CPU 97.72 s  wall 2.04 s
 SCF   energy in the final basis set = -1510.27866610
 Total energy in the final basis set = -1510.27866610
 
 --------------------------------------------------------------
 
                    Orbital Energies (a.u.)
 --------------------------------------------------------------
 
 Alpha MOs
 -- Occupied --
-18.936 -18.935 -18.934 -18.929 -18.888 -18.887 -18.883 -18.880
-18.879 -18.877 -10.103 -10.102 -10.101 -10.099 -10.072 -10.071
-10.067 -10.064 -10.061 -10.061 -10.060 -10.059 -10.042 -10.040
-10.040 -10.039 -10.022 -10.021 -10.021 -10.020  -1.017  -1.015
 -1.010  -1.008  -0.971  -0.970  -0.942  -0.938  -0.937  -0.936
 -0.766  -0.764  -0.728  -0.724  -0.714  -0.706  -0.697  -0.666
 -0.663  -0.617  -0.598  -0.580  -0.549  -0.548  -0.539  -0.538
 -0.514  -0.510  -0.481  -0.474  -0.465  -0.462  -0.454  -0.454
 -0.440  -0.431  -0.428  -0.417  -0.417  -0.415  -0.410  -0.400
 -0.395  -0.379  -0.376  -0.367  -0.363  -0.359  -0.357  -0.351
 -0.349  -0.343  -0.338  -0.333  -0.332  -0.330  -0.330  -0.311
 -0.310  -0.307  -0.306  -0.301  -0.295  -0.284  -0.282  -0.275
 -0.274  -0.259  -0.255  -0.254  -0.250  -0.235  -0.234  -0.181
 -0.180  -0.177  -0.174  -0.162  -0.160  -0.152  -0.151  -0.145
 -0.144
 -- Virtual --
  0.089   0.094   0.097   0.103   0.204   0.229   0.238   0.258
  0.261   0.280   0.286   0.286   0.296   0.310   0.321   0.330
  0.331   0.343   0.345   0.349   0.358   0.361   0.366   0.369
  0.377   0.382   0.384   0.391   0.403   0.406   0.408   0.409
  0.410   0.415   0.417   0.418   0.420   0.421   0.424   0.427
  0.429   0.430   0.433   0.435   0.439   0.439   0.446   0.465
  0.466   0.470   0.485   0.486   0.497   0.503   0.505   0.540
  0.540   0.550   0.551   0.631   0.639   0.650   0.654
 --------------------------------------------------------------
 
          Ground-State Mulliken Net Atomic Charges

     Atom                 Charge (a.u.)
  ----------------------------------------
      1 O                    -0.204883
      2 C                     0.205704
      3 C                    -0.077630
      4 C                    -0.079284
      5 C                     0.207337
      6 O                    -0.175831
      7 C                    -0.048961
      8 C                    -0.051820
      9 O                    -0.171710
     10 C                     0.209619
     11 C                    -0.078939
     12 C                    -0.077551
     13 C                     0.209797
     14 O                    -0.204824
     15 O                    -0.173466
     16 O                    -0.174000
     17 O                    -0.212873
     18 C                    -0.130593
     19 C                     0.025473
     20 C                    -0.143379
     21 C                    -0.144555
     22 C                     0.024960
     23 O                    -0.185118
     24 H                     0.085837
     25 H                     0.085738
     26 H                     0.084924
     27 H                     0.078442
     28 H                     0.073017
     29 H                     0.078612
     30 H                     0.073000
     31 H                     0.089809
     32 O                    -0.206617
     33 C                    -0.130618
     34 C                     0.025898
     35 C                    -0.144960
     36 C                    -0.143076
     37 C                     0.025363
     38 O                    -0.184803
     39 H                     0.085739
     40 H                     0.086338
     41 H                     0.090988
     42 H                     0.088229
     43 H                     0.078654
     44 H                     0.072996
     45 H                     0.078811
     46 H                     0.073572
     47 H                     0.086180
     48 H                     0.090658
     49 H                     0.089640
     50 H                     0.091624
     51 H                     0.091622
     52 H                     0.090569
     53 H                     0.099615
     54 H                     0.086246
     55 H                     0.093088
     56 H                     0.087395
  ----------------------------------------
  Sum of atomic charges =     0.000000

 -----------------------------------------------------------------
                    Cartesian Multipole Moments
 -----------------------------------------------------------------
    Charge (ESU x 10^10)
                 0.0000
    Dipole Moment (Debye)
         X      -0.7323      Y       3.1057      Z      -1.3679
       Tot       3.4717
    Quadrupole Moments (Debye-Ang)
        XX    -158.5292     XY      14.8945     YY    -157.3571
        XZ      20.2071     YZ      -1.9564     ZZ    -164.4505
    Octopole Moments (Debye-Ang^2)
       XXX     -46.2532    XXY      76.0551    XYY     -33.3173
       YYY     -10.2135    XXZ     -40.9395    XYZ     -13.9667
       YYZ      13.7758    XZZ      30.5008    YZZ      -8.2782
       ZZZ       3.8257
    Hexadecapole Moments (Debye-Ang^3)
      XXXX  -19552.3421   XXXY     569.6151   XXYY   -3763.7201
      XYYY     181.3489   YYYY   -2028.1497   XXXZ     633.2440
      XXYZ     -59.0203   XYYZ      29.1849   YYYZ      21.7676
      XXZZ   -3653.3752   XYZZ      78.5573   YYZZ    -555.4437
      XZZZ     137.6663   YZZZ     -31.2911   ZZZZ   -1193.7174
 -----------------------------------------------------------------
 Calculating analytic gradient of the SCF energy
 Gradient of SCF Energy
            1           2           3           4           5           6
    1   0.0007891  -0.0036948   0.0028385  -0.0028825  -0.0004941   0.0057467
    2  -0.0007806   0.0016938  -0.0015527   0.0007443   0.0051545  -0.0058645
    3   0.0003179  -0.0017526   0.0004311   0.0029720   0.0006030  -0.0017291
            7           8           9          10          11          12
    1   0.0000020  -0.0000062  -0.0001452  -0.0004408   0.0010897  -0.0006696
    2   0.0037448  -0.0006907  -0.0009663   0.0005671  -0.0002995   0.0010222
    3  -0.0006743  -0.0003433   0.0023686  -0.0011111  -0.0005207   0.0005995
           13          14          15          16          17          18
    1   0.0000781  -0.0002128   0.0010950   0.0001472   0.0002702   0.0000265
    2  -0.0003271  -0.0000047   0.0019999  -0.0000249   0.0000644   0.0002377
    3  -0.0005139  -0.0006732   0.0006726   0.0008990  -0.0003249   0.0000135
           19          20          21          22          23          24
    1   0.0003512  -0.0000971  -0.0000117   0.0000376   0.0000607  -0.0000539
    2  -0.0000218  -0.0001431   0.0002898  -0.0006877   0.0000311   0.0001664
    3   0.0004062   0.0000689  -0.0002707   0.0002522   0.0000330  -0.0001486
           25          26          27          28          29          30
    1  -0.0002892  -0.0000550  -0.0000406  -0.0000166   0.0000300  -0.0000307
    2   0.0001359   0.0000360  -0.0000050  -0.0000742  -0.0000076   0.0000155
    3  -0.0002993  -0.0000599   0.0000181   0.0000648  -0.0000224   0.0000224
           31          32          33          34          35          36
    1   0.0001230  -0.0007930   0.0002039  -0.0002484  -0.0000561  -0.0000864
    2   0.0000942  -0.0042734   0.0012008  -0.0007694  -0.0001346  -0.0003549
    3   0.0000053  -0.0014460   0.0010097   0.0005819  -0.0001867   0.0001081
           37          38          39          40          41          42
    1  -0.0006944  -0.0005980   0.0005490  -0.0003894   0.0001442   0.0000446
    2   0.0003134   0.0005271   0.0001955  -0.0001202   0.0000690  -0.0000367
    3  -0.0010602   0.0001680   0.0000829  -0.0001380  -0.0001628   0.0000352
           43          44          45          46          47          48
    1  -0.0000297   0.0000302   0.0000706   0.0000135   0.0001371  -0.0001832
    2   0.0001421   0.0000564   0.0000980  -0.0000406   0.0001399  -0.0002229
    3  -0.0000545   0.0000940   0.0001279   0.0000255   0.0001639  -0.0002397
           49          50          51          52          53          54
    1   0.0000133   0.0000246  -0.0000366  -0.0000339   0.0000822  -0.0000258
    2  -0.0001825   0.0000402  -0.0000748   0.0000380   0.0001066  -0.0004865
    3   0.0000415  -0.0001394   0.0000594   0.0000042   0.0005057  -0.0004837
           55          56
    1   0.0007132  -0.0023961
    2  -0.0009353   0.0001574
    3  -0.0003298  -0.0000714
 Max gradient component =       5.865E-03
 RMS gradient           =       1.141E-03
 Gradient time:  CPU 28.19 s  wall 0.60 s
 Geometry Optimization Parameters
   NAtoms,    NIC,     NZ,  NCons,   NDum,   NFix, NCnnct, MaxDiis
       56     458       0       0       0       0       0       0

 Cartesian Hessian Update
 Hessian Updated using BFGS Update


** GEOMETRY OPTIMIZATION IN DELOCALIZED INTERNAL COORDINATES **
   Searching for a Minimum

   Optimization Cycle:   3

                       Coordinates (Angstroms)
     ATOM                X               Y               Z
      1  O        -4.4381183031    2.0682154001    1.8660149536
      2  C        -4.1182375425    1.8767587568    0.6736064850
      3  C        -4.8677972165    0.9759839244   -0.3735206501
      4  C        -4.1962378336   -0.4400752787   -0.6507232819
      5  C        -2.7652883638   -0.5794899914   -0.0302841439
      6  O        -1.7842326675   -0.3246755647   -1.0587162763
      7  C        -0.5203362515    0.1362675988   -0.4328197493
      8  C         0.6168768996    0.0096523430   -1.4953045662
      9  O         1.8051484123    0.7053789635   -0.9417712130
     10  C         2.9976654524   -0.0471763264   -1.2019487602
     11  C         4.1926123047    0.7037934281   -0.5261662024
     12  C         4.6597845947    0.0118967043    0.8287100356
     13  C         3.9282555797   -1.3532019289    1.0940308542
     14  O         4.4261428239   -2.4980376744    1.0908143267
     15  O        -2.9676071728    2.4792903918    0.0581403556
     16  O         2.5412294085   -1.0789539204    1.3360799873
     17  O         3.0285829305   -1.1247590079   -1.8354113580
     18  C         1.7951086820   -2.3483524757    1.4990277359
     19  C         5.5328535112    0.6231040639   -1.3756312384
     20  C         6.5062580323    1.7490194509   -0.8485026929
     21  C         6.9534125325    1.1380611832    0.5314889605
     22  C         6.1903334575   -0.2446692612    0.5189338662
     23  O         6.1730908922   -0.6283724319   -0.9127588719
     24  H         3.8823107706    1.7482278819   -0.3472718538
     25  H         4.4983060948    0.6853679013    1.6897643192
     26  H         5.3810125260    0.5976716716   -2.4721350078
     27  H         7.3607581918    1.8673734709   -1.5335724752
     28  H         6.0005053327    2.7219826018   -0.7414664761
     29  H         8.0425598379    0.9782884108    0.5698848626
     30  H         6.6576628072    1.7645890210    1.3881655987
     31  H         6.6434551259   -1.0514669330    1.1267202406
     32  O        -2.4826822779   -0.9099700051    1.1414345509
     33  C        -2.2735450372    3.3457730926    1.0421750411
     34  C        -6.2578315846    0.5165219673    0.2374644985
     35  C        -7.1349389388   -0.1370928272   -0.9032539776
     36  C        -6.4652702093   -1.5562126440   -1.0333888403
     37  C        -5.2740401007   -1.4160765079   -0.0078143246
     38  O        -5.8692339853   -0.6270141577    1.0937301715
     39  H        -4.9741102847    1.5457830864   -1.3144759738
     40  H        -4.1085043281   -0.6039439269   -1.7398001004
     41  H        -1.8793382990    2.7581456274    1.8962876659
     42  H        -6.7605743978    1.2946443807    0.8435015696
     43  H        -8.1877027823   -0.2108741833   -0.5881850997
     44  H        -7.0868802009    0.4409509114   -1.8400697529
     45  H        -7.1525451431   -2.3556671682   -0.7134481031
     46  H        -6.1175336156   -1.7750411262   -2.0556585894
     47  H        -4.8579122502   -2.3660670046    0.3798051411
     48  H        -2.9476543217    4.1324919905    1.4366769827
     49  H        -1.4337144017    3.8136945362    0.4963354442
     50  H         0.7561925909   -2.0648980701    1.7502857082
     51  H         2.2174205556   -2.9716963918    2.3129474357
     52  H         1.8012219916   -2.9410479894    0.5611702004
     53  H         0.8714247486   -1.0519198467   -1.7006594761
     54  H         0.3085414868    0.4915450110   -2.4489557874
     55  H        -0.2759888328   -0.4700388794    0.4655360384
     56  H        -0.6501197088    1.1971826246   -0.1234958305
   Point Group: c1    Number of degrees of freedom:   162


   Energy is  -1510.278666099

 Hessian Updated using BFGS Update

152 Hessian modes will be used to form the next step
  Hessian Eigenvalues:
     0.001714    0.002007    0.002172    0.002692    0.002706    0.003178
     0.004169    0.004212    0.004495    0.004578    0.004663    0.004873
     0.006841    0.006856    0.010232    0.010932    0.011076    0.014749
     0.021433    0.021733    0.023939    0.026508    0.029927    0.030813
     0.031106    0.035510    0.035665    0.040940    0.041306    0.041661
     0.041952    0.046234    0.046976    0.048275    0.050494    0.050649
     0.050974    0.051553    0.052699    0.053163    0.054265    0.054839
     0.055156    0.055454    0.055664    0.056226    0.057615    0.059375
     0.060254    0.060576    0.063244    0.063792    0.064127    0.064299
     0.064448    0.070007    0.070173    0.073050    0.073059    0.091352
     0.092207    0.092806    0.092823    0.095772    0.096776    0.096792
     0.099153    0.102513    0.102561    0.108640    0.109566    0.109856
     0.110772    0.120809    0.132822    0.134348    0.140306    0.157093
     0.159965    0.159982    0.160158    0.162971    0.163138    0.172418
     0.219646    0.220084    0.220432    0.221044    0.224424    0.230173
     0.238303    0.239016    0.239671    0.239702    0.245720    0.248200
     0.248787    0.249457    0.249764    0.249783    0.249942    0.253259
     0.253272    0.256935    0.259156    0.260326    0.262967    0.264647
     0.266861    0.282521    0.292783    0.293845    0.306887    0.309351
     0.323895    0.324747    0.325103    0.325699    0.326456    0.327089
     0.327375    0.327598    0.329007    0.329047    0.329106    0.329169
     0.330567    0.330813    0.331013    0.331370    0.331742    0.332388
     0.334895    0.334895    0.334903    0.334909    0.334935    0.334950
     0.335174    0.335285    0.340822    0.340985    0.342880    0.344077
     0.390391    0.398764    0.403545    0.404560    0.830758    0.832905
     0.835845    0.838185

 Minimum Search - Taking Simple RFO Step
 Searching for Lamda that Minimizes Along All modes
 Value Taken    Lamda =  -0.00927198
 Calculated Step too Large.  Step scaled by  0.362579
 Step Taken.  Stepsize is  0.300000

                             Maximum     Tolerance    Cnvgd?
         Gradient           0.007926      0.000300      NO
         Displacement       0.097260      0.001200      NO
         Energy change     -0.003840      0.000001      NO


 New Cartesian Coordinates Obtained by Inverse Iteration

 Displacement from previous Coordinates is:  3.122782
 Adding empirical dispersion correction 
 ----------------------------------------------------------------
 Doing -D3(op) with
 s6 =   1.00000
 s8 =   0.78311
 a1 =   0.30000
 a2 =   4.25000
 n  =  10.00000
 -D3 energy without 3body term =     -0.0670970238 hartrees
 ----------------------------------------------------------------
             Standard Nuclear Orientation (Angstroms)
    I     Atom           X                Y                Z
 ----------------------------------------------------------------
    1      O      -4.5871722481     2.2008379669     1.7930784425
    2      C      -4.2477901980     1.9476701663     0.6177099728
    3      C      -4.9438498552     0.9571044319    -0.3819541490
    4      C      -4.1477181051    -0.4017039899    -0.5947572209
    5      C      -2.7214512984    -0.3690918816     0.0454399093
    6      O      -1.7656882846    -0.0616250089    -0.9874132923
    7      C      -0.4780638176     0.3411514742    -0.3679145164
    8      C       0.6308234569     0.2400656122    -1.4627907329
    9      O       1.8567877373     0.8540044896    -0.8962032472
   10      C       3.0057622012     0.0488880914    -1.1927073875
   11      C       4.2387818765     0.6983545526    -0.4824892850
   12      C       4.6780135843    -0.0952516242     0.8254439548
   13      C       3.8847716730    -1.4377981201     1.0177091867
   14      O       4.3321591742    -2.6017331459     0.9564785514
   15      O      -3.1484464570     2.5864427801    -0.0491825464
   16      O       2.5042618635    -1.1174965425     1.2394039080
   17      O       2.9760379073    -0.9995765974    -1.8731863204
   18      C       1.7036603425    -2.3618434938     1.3159892925
   19      C       5.5700913323     0.6023824952    -1.3449279299
   20      C       6.5997502144     1.6470409863    -0.7598745919
   21      C       7.0222192922     0.9358999103     0.5793685888
   22      C       6.1930590098    -0.4051223399     0.4915214386
   23      O       6.1509504119    -0.7034511029    -0.9600673768
   24      H       3.9820414659     1.7446143588    -0.2412411026
   25      H       4.5510620371     0.5336933908     1.7252430400
   26      H       5.4128547615     0.6485173309    -2.4399446529
   27      H       7.4561948988     1.7633665288    -1.4428697577
   28      H       6.1426471076     2.6356607648    -0.5933881228
   29      H       8.1024120319     0.7217071778     0.6011700111
   30      H       6.7606242794     1.5250111106     1.4728916290
   31      H       6.6087096639    -1.2671602909     1.0481429535
   32      O      -2.4201308520    -0.5898805212     1.2382700065
   33      C      -2.4932587320     3.5437840032     0.8738856029
   34      C      -6.2865946857     0.4090854358     0.2567522276
   35      C      -7.1024620295    -0.3706199498    -0.8495600481
   36      C      -6.3084290870    -1.7290998958    -0.9197585266
   37      C      -5.1344623801    -1.4395099576     0.0949087612
   38      O      -5.7975457431    -0.6568405543     1.1613780233
   39      H      -5.0983354792     1.4733138576    -1.3468368124
   40      H      -4.0358646583    -0.6085231775    -1.6741841072
   41      H      -2.0510693882     3.0267472572     1.7500942848
   42      H      -6.8546110477     1.1666736687     0.8303504077
   43      H      -8.1443260573    -0.5241025915    -0.5271900256
   44      H      -7.1061115355     0.1663318673    -1.8117882261
   45      H      -6.9223378429    -2.5717610945    -0.5633279571
   46      H      -5.9425261408    -1.9606549748    -1.9328758830
   47      H      -4.6364720130    -2.3303502149     0.5241754195
   48      H      -3.2060664922     4.3097266260     1.2407096160
   49      H      -1.6920541308     4.0315789309     0.2886673478
   50      H       0.6710961496    -2.0497777323     1.5597236490
   51      H       2.0809491357    -3.0447304717     2.1037538726
   52      H       1.7092079830    -2.9032046593     0.3475909279
   53      H       0.8403769573    -0.8166228119    -1.7345032034
   54      H       0.3225625665     0.7881249739    -2.3798033084
   55      H      -0.2330713300    -0.3167576276     0.4926158300
   56      H      -0.5612077037     1.3873750057    -0.0002041688
 ----------------------------------------------------------------
 Molecular Point Group                 C1    NOp =  1
 Largest Abelian Subgroup              C1    NOp =  1
 Nuclear Repulsion Energy =  3045.0373836782 hartrees
 There are      113 alpha and      113 beta electrons
 Applying Cartesian multipole field
    Component          Value
    ---------          -----
     (2,0,0)        1.00000E-12
     (0,2,0)        2.00000E-11
     (0,0,2)       -3.00000E-11
 Nucleus-field energy     =     0.0000000255 hartrees
 Requested basis set is STO-3G
 There are 86 shells and 176 basis functions
 A cutoff of  1.0D-12 yielded   2046 shell pairs
 There are      9486 function pairs
 Smallest overlap matrix eigenvalue = 2.13E-01
 Guess MOs from SCF MO coefficient file
 Reading MOs from coefficient file
 Reading MOs from coefficient file
 A restricted hybrid HF-DFT SCF calculation will be
 performed using Pulay DIIS extrapolation
[...]
      7  C        -0.3771763300    1.7658489145   -1.1168095467
      8  C         0.7024270701    1.1054464455   -2.0426408901
      9  O         2.0434850628    1.3973689483   -1.4812999510
     10  C         2.7677432740    0.1726849534   -1.2721268380
     11  C         4.1271087179    0.5271578032   -0.5837230134
     12  C         4.2724810826   -0.0893263751    0.8725604822
     13  C         3.0610984866   -0.9894606149    1.3117714677
     14  O         3.1192912775   -2.1506012385    1.7692301625
     15  O        -3.5560180653    2.6321816850    0.4507089813
     16  O         1.8469869102   -0.2603155415    1.1122898812
     17  O         2.3582349707   -0.9529641558   -1.6323427714
     18  C         0.6805225317   -1.1255317281    1.4167216531
     19  C         5.3584557535   -0.1652915812   -1.3162757299
     20  C         6.6833008493    0.5481082115   -0.8365360118
     21  C         6.8329127489   -0.0358195486    0.6179097513
     22  C         5.5698741254   -0.9788573665    0.6989812316
     23  O         5.4321318991   -1.4996610475   -0.6821817571
     24  H         4.2247772282    1.6266421363   -0.5645809241
     25  H         4.4104979444    0.7097056796    1.6241829238
     26  H         5.2437777513   -0.2635145244   -2.4132484369
     27  H         7.5296645070    0.2556687538   -1.4782605620
     28  H         6.5933879345    1.6461056476   -0.8496861736
     29  H         7.7594271262   -0.6221103577    0.7241455789
     30  H         6.8187400683    0.7469026496    1.3933541399
     31  H         5.6305978299   -1.8159007728    1.4215243892
     32  O        -1.7709071417    0.3915828751    0.7318013147
     33  C        -2.9482121407    3.5378913065    1.4513929040
     34  C        -5.5291806790   -0.6266043230    0.6917765142
     35  C        -6.3362497388   -1.4296694150   -0.4017985654
     36  C        -5.1627990908   -2.0499437473   -1.2482508212
     37  C        -3.9011337282   -1.5035159135   -0.4707129531
     38  O        -4.3415052003   -1.4766757204    0.9414460403
     39  H        -5.6410396206    1.1666728389   -0.6529640693
     40  H        -3.8414408602    0.2299489139   -1.9090643116
     41  H        -2.2954875772    2.9764045085    2.1511982900
     42  H        -6.0642965440   -0.4211144033    1.6394101771
     43  H        -6.9506534412   -2.2120983494    0.0712066747
     44  H        -6.9923868008   -0.7755809279   -0.9980351762
     45  H        -5.1826868575   -3.1510400197   -1.2207891670
     46  H        -5.1763112571   -1.7223620457   -2.3001855999
     47  H        -2.9801793876   -2.1089886664   -0.5780975479
     48  H        -3.7193036512    4.0769526303    2.0380208638
     49  H        -2.3400476866    4.2617973013    0.8786354722
     50  H        -0.2275427862   -0.5221079950    1.1928601060
     51  H         0.6778741705   -1.4326367655    2.4816395507
     52  H         0.6948328246   -2.0386568366    0.7883956904
     53  H         0.5716868731    0.0011352303   -2.0837445392
     54  H         0.6410341607    1.5183988809   -3.0715226455
     55  H        -0.1727317286    1.5189252831   -0.0528420991
     56  H        -0.3852751493    2.8677264558   -1.2476546682
   Point Group: c1    Number of degrees of freedom:   162


   Energy is  -1510.291564771

 Hessian Updated using BFGS Update

162 Hessian modes will be used to form the next step
  Hessian Eigenvalues:
     0.000475    0.001861    0.002131    0.002743    0.003298    0.004266
     0.005130    0.005296    0.005795    0.006389    0.007917    0.010359
     0.014987    0.015749    0.018322    0.021732    0.021915    0.025914
     0.026764    0.027900    0.029610    0.031372    0.032136    0.035337
     0.036418    0.037031    0.039431    0.041109    0.041687    0.042556
     0.042890    0.045382    0.046915    0.047617    0.050876    0.051088
     0.052032    0.052676    0.053553    0.054242    0.054915    0.055650
     0.055784    0.056258    0.056830    0.057621    0.059321    0.060717
     0.061804    0.063123    0.063717    0.064126    0.064394    0.064512
     0.067520    0.070078    0.070382    0.072865    0.073375    0.078409
     0.092768    0.093011    0.093848    0.095953    0.097023    0.098922
     0.099411    0.101484    0.102831    0.107370    0.108841    0.109514
     0.112829    0.114098    0.123307    0.136077    0.140903    0.145528
     0.156417    0.159972    0.160181    0.160710    0.160747    0.162104
     0.164457    0.166646    0.168534    0.178417    0.197293    0.213400
     0.221977    0.223677    0.230353    0.233513    0.236640    0.238100
     0.239963    0.241156    0.242754    0.246329    0.246983    0.247669
     0.248916    0.250234    0.251246    0.252893    0.253125    0.255622
     0.257459    0.258741    0.258897    0.260364    0.262225    0.266725
     0.274182    0.287096    0.292937    0.297293    0.305949    0.310520
     0.317824    0.323243    0.324324    0.325048    0.326686    0.326711
     0.327132    0.327524    0.327753    0.329003    0.329062    0.329154
     0.329365    0.330782    0.331061    0.331301    0.331791    0.332371
     0.334222    0.334892    0.334928    0.334932    0.334969    0.335168
     0.335210    0.335481    0.335878    0.341413    0.343573    0.351308
     0.363805    0.387909    0.399002    0.403223    0.419038    0.440853
     0.564492    0.830777    0.835900    0.837885    0.843694    2.034465

 Minimum Search - Taking Simple RFO Step
 Searching for Lamda that Minimizes Along All modes
 Value Taken    Lamda =   0.00000000
 Step Taken.  Stepsize is  0.005039

                             Maximum     Tolerance    Cnvgd?
         Gradient           0.000077      0.000300     YES
         Displacement       0.001540      0.001200      NO
         Energy change     -0.000000      0.000001     YES

 Final energy is   -1510.29156477130     


 ******************************
 **  OPTIMIZATION CONVERGED  **
 ******************************

                       Coordinates (Angstroms)
     ATOM                X               Y               Z
      1  O        -4.7321954455    1.7292076406    2.3056805486
      2  C        -4.4313075134    1.6956137123    1.0949496583
      3  C        -4.9138031564    0.6661648977    0.0127685831
      4  C        -3.7236661974    0.0368779099   -0.8286557358
      5  C        -2.3177517690    0.5615719516   -0.3838699248
      6  O        -1.7203121117    1.2505206894   -1.4851402444
      7  C        -0.3771763300    1.7658489145   -1.1168095467
      8  C         0.7024270701    1.1054464455   -2.0426408901
      9  O         2.0434850628    1.3973689483   -1.4812999510
     10  C         2.7677432740    0.1726849534   -1.2721268380
     11  C         4.1271087179    0.5271578032   -0.5837230134
     12  C         4.2724810826   -0.0893263751    0.8725604822
     13  C         3.0610984866   -0.9894606149    1.3117714677
     14  O         3.1192912775   -2.1506012385    1.7692301625
     15  O        -3.5560180653    2.6321816850    0.4507089813
     16  O         1.8469869102   -0.2603155415    1.1122898812
     17  O         2.3582349707   -0.9529641558   -1.6323427714
     18  C         0.6805225317   -1.1255317281    1.4167216531
     19  C         5.3584557535   -0.1652915812   -1.3162757299
     20  C         6.6833008493    0.5481082115   -0.8365360118
     21  C         6.8329127489   -0.0358195486    0.6179097513
     22  C         5.5698741254   -0.9788573665    0.6989812316
     23  O         5.4321318991   -1.4996610475   -0.6821817571
     24  H         4.2247772282    1.6266421363   -0.5645809241
     25  H         4.4104979444    0.7097056796    1.6241829238
     26  H         5.2437777513   -0.2635145244   -2.4132484369
     27  H         7.5296645070    0.2556687538   -1.4782605620
     28  H         6.5933879345    1.6461056476   -0.8496861736
     29  H         7.7594271262   -0.6221103577    0.7241455789
     30  H         6.8187400683    0.7469026496    1.3933541399
     31  H         5.6305978299   -1.8159007728    1.4215243892
     32  O        -1.7709071417    0.3915828751    0.7318013147
     33  C        -2.9482121407    3.5378913065    1.4513929040
     34  C        -5.5291806790   -0.6266043230    0.6917765142
     35  C        -6.3362497388   -1.4296694150   -0.4017985654
     36  C        -5.1627990908   -2.0499437473   -1.2482508212
     37  C        -3.9011337282   -1.5035159135   -0.4707129531
     38  O        -4.3415052003   -1.4766757204    0.9414460403
     39  H        -5.6410396206    1.1666728389   -0.6529640693
     40  H        -3.8414408602    0.2299489139   -1.9090643116
     41  H        -2.2954875772    2.9764045085    2.1511982900
     42  H        -6.0642965440   -0.4211144033    1.6394101771
     43  H        -6.9506534412   -2.2120983494    0.0712066747
     44  H        -6.9923868008   -0.7755809279   -0.9980351762
     45  H        -5.1826868575   -3.1510400197   -1.2207891670
     46  H        -5.1763112571   -1.7223620457   -2.3001855999
     47  H        -2.9801793876   -2.1089886664   -0.5780975479
     48  H        -3.7193036512    4.0769526303    2.0380208638
     49  H        -2.3400476866    4.2617973013    0.8786354722
     50  H        -0.2275427862   -0.5221079950    1.1928601060
     51  H         0.6778741705   -1.4326367655    2.4816395507
     52  H         0.6948328246   -2.0386568366    0.7883956904
     53  H         0.5716868731    0.0011352303   -2.0837445392
     54  H         0.6410341607    1.5183988809   -3.0715226455
     55  H        -0.1727317286    1.5189252831   -0.0528420991
     56  H        -0.3852751493    2.8677264558   -1.2476546682

Z-matrix Print:
$molecule
0 1
O 
C  1 1.254056
O  2 1.429818 1 124.634066
C  3 1.485007 2 110.737971 1 -1.372023 0
H  4 1.109649 3 107.983451 2 -120.908304 0
H  4 1.111214 3 109.073558 2 -1.909596 0
C  2 1.565162 1 126.803442 3 178.109030 0
H  7 1.103825 2 108.382256 1 -171.811504 0
C  4 1.568068 3 109.276139 2 118.602496 0
H  9 1.110359 4 110.634393 3 72.399408 0
H  9 1.112783 4 111.030745 3 -48.978623 0
O  9 1.482821 4 108.435873 3 -167.964516 0
C  12 1.438108 9 110.052438 4 124.994325 0
O  13 1.250815 12 124.028707 9 6.063870 0
C  13 1.564425 12 107.978040 9 -175.883809 0
H  15 1.103980 13 108.069108 12 -7.376438 0
C  7 1.587584 2 112.947275 1 63.893033 0
H  17 1.105704 7 110.693773 2 123.253645 0
C  17 1.569612 7 113.262451 2 0.895652 0
O  19 1.248011 17 127.763607 7 -129.678435 0
O  19 1.434691 17 107.823767 7 50.401367 0
C  21 1.480239 19 110.265531 17 -173.651433 0
H  22 1.105421 21 106.040940 19 -176.730752 0
H  22 1.108739 21 111.691006 19 -57.174616 0
H  22 1.109524 21 110.996278 19 64.374438 0
C  17 1.584611 7 101.236184 2 -118.039636 0
H  26 1.107513 17 113.760223 7 154.572794 0
O  26 1.481732 17 103.236198 7 34.843987 0
C  28 1.479473 26 95.057726 17 -56.867677 0
H  29 1.107378 28 110.488797 26 -179.819936 0
C  26 1.578664 17 108.464361 7 -74.587898 0
H  31 1.101554 26 110.427414 17 -168.028345 0
H  31 1.101747 26 112.168973 17 -46.516426 0
C  31 1.574233 26 101.059391 17 73.834018 0
H  34 1.101618 31 111.528831 26 118.100769 0
H  34 1.101844 31 112.771264 26 -119.247033 0
C  15 1.588064 13 113.272442 12 116.371072 0
H  37 1.105639 15 110.749142 13 -120.142885 0
C  37 1.571813 15 114.079454 13 2.830145 0
O  39 1.249361 37 126.773411 15 128.632300 0
O  39 1.430214 37 108.863230 15 -51.701984 0
C  41 1.483886 39 109.964399 37 175.496521 0
H  42 1.108319 41 111.135064 39 63.120383 0
H  42 1.108511 41 110.723979 39 -57.473364 0
H  42 1.113021 41 106.496544 39 -177.120111 0
C  37 1.582600 15 101.108049 13 120.727707 0
H  46 1.107428 37 113.467416 15 -155.648784 0
O  46 1.482505 37 102.912882 15 -36.432714 0
C  48 1.479204 46 94.996451 37 57.598521 0
H  49 1.107316 48 110.475591 46 -179.824982 0
C  46 1.578341 37 109.015465 15 73.172558 0
H  51 1.101568 46 110.493965 37 167.324921 0
H  51 1.101893 46 112.208640 37 45.806995 0
C  51 1.574410 46 101.128334 37 -74.498404 0
H  54 1.101664 51 111.509884 46 -117.063638 0
H  54 1.101751 51 112.855249 46 120.271981 0
$end

 
 --------------------------------------------------------------
 
                    Orbital Energies (a.u.)
 --------------------------------------------------------------
 
 Alpha MOs
 -- Occupied --
-18.942 -18.941 -18.929 -18.925 -18.891 -18.885 -18.884 -18.882
-18.871 -18.870 -10.111 -10.106 -10.098 -10.092 -10.070 -10.069
-10.066 -10.064 -10.061 -10.058 -10.054 -10.044 -10.043 -10.038
-10.036 -10.034 -10.023 -10.022 -10.019 -10.017  -1.023  -1.014
 -1.010  -1.001  -0.974  -0.967  -0.945  -0.943  -0.933  -0.928
 -0.768  -0.761  -0.729  -0.723  -0.714  -0.705  -0.696  -0.666
 -0.648  -0.619  -0.598  -0.579  -0.550  -0.542  -0.541  -0.535
 -0.515  -0.506  -0.484  -0.473  -0.467  -0.459  -0.457  -0.448
 -0.439  -0.432  -0.428  -0.419  -0.417  -0.408  -0.401  -0.400
 -0.396  -0.382  -0.380  -0.364  -0.363  -0.359  -0.354  -0.353
 -0.348  -0.337  -0.335  -0.332  -0.329  -0.326  -0.323  -0.314
 -0.309  -0.307  -0.304  -0.300  -0.290  -0.289  -0.281  -0.277
 -0.269  -0.259  -0.255  -0.246  -0.243  -0.237  -0.231  -0.188
 -0.182  -0.170  -0.168  -0.166  -0.158  -0.156  -0.147  -0.146
 -0.141
 -- Virtual --
  0.084   0.096   0.102   0.114   0.206   0.231   0.242   0.256
  0.267   0.280   0.282   0.287   0.301   0.315   0.325   0.328
  0.340   0.340   0.342   0.350   0.356   0.363   0.367   0.372
  0.380   0.386   0.388   0.391   0.396   0.405   0.406   0.413
  0.414   0.416   0.421   0.421   0.425   0.426   0.428   0.431
  0.434   0.435   0.441   0.442   0.444   0.450   0.456   0.464
  0.469   0.483   0.485   0.490   0.497   0.504   0.509   0.537
  0.544   0.548   0.553   0.638   0.644   0.650   0.655
 --------------------------------------------------------------
 
          Ground-State Mulliken Net Atomic Charges

     Atom                 Charge (a.u.)
  ----------------------------------------
      1 O                    -0.204477
      2 C                     0.214188
      3 C                    -0.078280
      4 C                    -0.078248
      5 C                     0.221497
      6 O                    -0.168115
      7 C                    -0.055423
      8 C                    -0.055988
      9 O                    -0.173904
     10 C                     0.214639
     11 C                    -0.079153
     12 C                    -0.078556
     13 C                     0.211603
     14 O                    -0.209493
     15 O                    -0.172428
     16 O                    -0.177020
     17 O                    -0.216416
     18 C                    -0.145206
     19 C                     0.025701
     20 C                    -0.143743
     21 C                    -0.144325
     22 C                     0.024138
     23 O                    -0.186752
     24 H                     0.085606
     25 H                     0.084023
     26 H                     0.082963
     27 H                     0.077753
     28 H                     0.072914
     29 H                     0.078167
     30 H                     0.072822
     31 H                     0.091445
     32 O                    -0.221966
     33 C                    -0.129127
     34 C                     0.024500
     35 C                    -0.143897
     36 C                    -0.143755
     37 C                     0.025840
     38 O                    -0.185934
     39 H                     0.086313
     40 H                     0.088140
     41 H                     0.093623
     42 H                     0.091525
     43 H                     0.079429
     44 H                     0.073467
     45 H                     0.079537
     46 H                     0.074124
     47 H                     0.084550
     48 H                     0.091860
     49 H                     0.090302
     50 H                     0.109776
     51 H                     0.083602
     52 H                     0.084650
     53 H                     0.101079
     54 H                     0.082799
     55 H                     0.104118
     56 H                     0.085512
  ----------------------------------------
  Sum of atomic charges =     0.000000

 -----------------------------------------------------------------
                    Cartesian Multipole Moments
 -----------------------------------------------------------------
    Charge (ESU x 10^10)
                 0.0000
    Dipole Moment (Debye)
         X      -1.1422      Y       3.5444      Z      -1.9646
       Tot       4.2104
    Quadrupole Moments (Debye-Ang)
        XX    -143.2574     XY      11.3759     YY    -160.9953
        XZ      11.2034     YZ       2.1614     ZZ    -163.1439
    Octopole Moments (Debye-Ang^2)
       XXX       9.2679    XXY      22.5065    XYY     -34.3232
       YYY     -12.7959    XXZ     -31.7536    XYZ      -8.7318
       YYZ       8.6275    XZZ      28.6309    YZZ     -10.5379
       ZZZ      -5.3725
    Hexadecapole Moments (Debye-Ang^3)
      XXXX  -15768.8435   XXXY     559.0122   XXYY   -3222.8481
      XYYY     324.0773   YYYY   -2033.6705   XXXZ     491.9457
      XXYZ     -28.4604   XYYZ      73.5335   YYYZ      37.6719
      XXZZ   -3105.6481   XYZZ     144.4467   YYZZ    -625.3040
      XZZZ     282.0129   YZZZ     -37.6381   ZZZZ   -1521.9256
 -----------------------------------------------------------------
Archival summary:
1\1\vega02.cac.cornell.edu\OPT\ProcedureUnspecified\STO-3G\102026\jj585\SunJan1419:58:082018SunJan1419:58:082018\0\\#,OPT,ProcedureUnspecified,STO-3G,\\0,1\O\C,1,1.25406\O,2,1.42982,1,124.634\C,3,1.48501,2,110.738,1,-1.37202,0\H,4,1.10965,3,107.983,2,-120.908,0\H,4,1.11121,3,109.074,2,-1.9096,0\C,2,1.56516,1,126.803,3,178.109,0\H,7,1.10383,2,108.382,1,-171.812,0\C,4,1.56807,3,109.276,2,118.602,0\H,9,1.11036,4,110.634,3,72.3994,0\H,9,1.11278,4,111.031,3,-48.9786,0\O,9,1.48282,4,108.436,3,-167.965,0\C,12,1.43811,9,110.052,4,124.994,0\O,13,1.25082,12,124.029,9,6.06387,0\C,13,1.56442,12,107.978,9,-175.884,0\H,15,1.10398,13,108.069,12,-7.37644,0\C,7,1.58758,2,112.947,1,63.893,0\H,17,1.1057,7,110.694,2,123.254,0\C,17,1.56961,7,113.262,2,0.895652,0\O,19,1.24801,17,127.764,7,-129.678,0\O,19,1.43469,17,107.824,7,50.4014,0\C,21,1.48024,19,110.266,17,-173.651,0\H,22,1.10542,21,106.041,19,-176.731,0\H,22,1.10874,21,111.691,19,-57.1746,0\H,22,1.10952,21,110.996,19,64.3744,0\C,17,1.58461,7,101.236,2,-118.04,0\H,26,1.10751,17,113.76,7,154.573,0\O,26,1.48173,17,103.236,7,34.844,0\C,28,1.47947,26,95.0577,17,-56.8677,0\H,29,1.10738,28,110.489,26,-179.82,0\C,26,1.57866,17,108.464,7,-74.5879,0\H,31,1.10155,26,110.427,17,-168.028,0\H,31,1.10175,26,112.169,17,-46.5164,0\C,31,1.57423,26,101.059,17,73.834,0\H,34,1.10162,31,111.529,26,118.101,0\H,34,1.10184,31,112.771,26,-119.247,0\C,15,1.58806,13,113.272,12,116.371,0\H,37,1.10564,15,110.749,13,-120.143,0\C,37,1.57181,15,114.079,13,2.83014,0\O,39,1.24936,37,126.773,15,128.632,0\O,39,1.43021,37,108.863,15,-51.702,0\C,41,1.48389,39,109.964,37,175.497,0\H,42,1.10832,41,111.135,39,63.1204,0\H,42,1.10851,41,110.724,39,-57.4734,0\H,42,1.11302,41,106.497,39,-177.12,0\C,37,1.5826,15,101.108,13,120.728,0\H,46,1.10743,37,113.467,15,-155.649,0\O,46,1.4825,37,102.913,15,-36.4327,0\C,48,1.4792,46,94.9965,37,57.5985,0\H,49,1.10732,48,110.476,46,-179.825,0\C,46,1.57834,37,109.015,15,73.1726,0\H,51,1.10157,46,110.494,37,167.325,0\H,51,1.10189,46,112.209,37,45.807,0\C,51,1.57441,46,101.128,37,-74.4984,0\H,54,1.10166,51,111.51,46,-117.064,0\H,54,1.10175,51,112.855,46,120.272,0\\\@

 Total job time:  94.46s(wall), 4500.34s(cpu) 
 Sun Jan 14 19:58:08 2018

        *************************************************************
        *                                                           *
        *  Thank you very much for using Q-Chem.  Have a nice day.  *
        *                                                           *
        *************************************************************


0 sent ACK to 0 
now end server 0 ... 
