mFile = /opt/software/qchem/qchem-5.0.1//bin/mpi/machines
Process 0 of 1 is on vega02.cac.cornell.edu - thread support 0
initial socket setup ...start
initial socket setup ...done 
now start server 0 ... 
vega02.cac.cornell.edu 10.84.3
Q-Chem Developer Version! Running on 10.84.3.*
                  Welcome to Q-Chem
     A Quantum Leap Into The Future Of Chemistry


 Q-Chem 5.0, Q-Chem, Inc., Pleasanton, CA (2017)

 Yihan Shao,  Zhengting Gan,  E. Epifanovsky,  A. T. B. Gilbert,  M. Wormit,  
 J. Kussmann,  A. W. Lange,  A. Behn,  Jia Deng,  Xintian Feng,  D. Ghosh,  
 M. Goldey,  P. R. Horn,  L. D. Jacobson,  I. Kaliman,  T. Kus,  A. Landau,  
 Jie Liu,  E. I. Proynov,  R. M. Richard,  R. P. Steele,  E. J. Sundstrom,  
 H. L. Woodcock III,  P. M. Zimmerman,  D. Zuev,  B. Albrecht,  E. Alguire,  
 S. A. Baeppler,  Z. Benda,  Y. A. Bernard,  E. J. Berquist,  K. B. Bravaya,  
 D. Casanova,  Chun-Min Chang,  Yunqing Chen,  A. Chien,  K. D. Closser,  
 M. P. Coons,  S. Dasgupta,  M. Diedenhofen,  Hainam Do,  R. G. Edgar,  
 Po-Tung Fang,  S. Fatehi,  Qingguo Feng,  Qinghui Ge,  A. Ghysels,  
 J. Gomes,  J. Gonthier,  A. Gunina,  M. W. D. Hanson-Heine,  
 P. H. P. Harbach,  A. W. Hauser,  J. E. Herr,  E. G. Hohenstein,  
 Z. C. Holden,  Kerwin Hui,  T.-C. Jagau,  Hyunjun Ji,  B. Kaduk,  
 K. Khistyaev,  Jaehoon Kim,  P. Klunzinger,  K. Koh,  D. Kosenkov,  
 T. Kowalczyk,  C. M. Krauter,  A. Kunitsa,  Ka Un Lao,  A. Laurent,  
 K. V. Lawler,  Joonho Lee,  D. Lefrancois,  S. Lehtola,  D. S. Levine,  
 Yi-Pei Li,  You-Sheng Lin,  Fenglai Liu,  E. Livshits,  A. Luenser,  
 P. Manohar,  E. Mansoor,  S. F. Manzer,  Shan-Ping Mao,  Yuezhi Mao,  
 N. Mardirossian,  A. V. Marenich,  L. A. Martinez-Martinez,  S. A. Maurer,  
 N. J. Mayhall,  S. C. McKenzie,  J.-M. Mewes,  A. F. Morrison,  K. Nanda,  
 T. S. Nguyen-Beck,  R. Olivares-Amaya,  J. A. Parkhill,  T. M. Perrine,  
 F. Plasser,  S. Prager,  A. Prociuk,  D. R. Rehn,  F. Rob,  M. Schneider,  
 N. Sergueev,  S. M. Sharada,  S. Sharma,  D. W. Small,  T. Stauch,  
 T. Stein,  Yu-Chuan Su,  A. J. W. Thom,  T. Tsuchimochi,  L. Vogt,  
 O. Vydrov,  M. A. Watson,  J. Wenzel,  M. de Wergifosse,  T. A. Wesolowski,  
 A. White,  J. Witte,  A. Yamada,  Jun Yang,  K. Yao,  S. Yeganeh,  
 S. R. Yost,  Zhi-Qiang You,  A. Zech,  Igor Ying Zhang,  Xing Zhang,  
 Yan Zhao,  Ying Zhu,  B. R. Brooks,  G. K. L. Chan,  C. J. Cramer,  
 M. S. Gordon,  W. J. Hehre,  A. Klamt,  M. W. Schmidt,  C. D. Sherrill,  
 D. G. Truhlar,  A. Aspuru-Guzik,  R. Baer,  A. T. Bell,  N. A. Besley,  
 Jeng-Da Chai,  A. Dreuw,  B. D. Dunietz,  T. R. Furlani,  Chao-Ping Hsu,  
 Yousung Jung,  Jing Kong,  D. S. Lambrecht,  WanZhen Liang,  C. Ochsenfeld,  
 V. A. Rassolov,  L. V. Slipchenko,  J. E. Subotnik,  T. Van Voorhis,  
 J. M. Herbert,  A. I. Krylov,  P. M. W. Gill,  M. Head-Gordon

 Contributors to earlier versions of Q-Chem not listed above: 
 R. D. Adamson,  B. Austin,  J. Baker,  G. J. O. Beran,  K. Brandhorst,  
 S. T. Brown,  E. F. C. Byrd,  A. K. Chakraborty,  C.-L. Cheng,  
 Siu Hung Chien,  D. M. Chipman,  D. L. Crittenden,  H. Dachsel,  
 R. A. DiStasio Jr.,  R. J. Doerksen,  A. D. Dutoi,  L. Fusti-Molnar,  
 W. A. Goddard III,  A. Golubeva-Zadorozhnaya,  S. R. Gwaltney,  G. Hawkins,  
 A. Heyden,  S. Hirata,  G. Kedziora,  F. J. Keil,  C. Kelley,  Jihan Kim,  
 R. A. King,  R. Z. Khaliullin,  P. P. Korambath,  W. Kurlancheek,  
 A. M. Lee,  M. S. Lee,  S. V. Levchenko,  Ching Yeh Lin,  D. Liotard,  
 R. C. Lochan,  I. Lotan,  P. E. Maslen,  N. Nair,  D. P. O'Neill,  
 D. Neuhauser,  E. Neuscamman,  C. M. Oana,  R. Olson,  B. Peters,  
 R. Peverati,  P. A. Pieniazek,  Y. M. Rhee,  J. Ritchie,  M. A. Rohrdanz,  
 E. Rosta,  N. J. Russ,  H. F. Schaefer III,  N. E. Schultz,  N. Shenvi,  
 A. C. Simmonett,  A. Sodt,  D. Stuck,  K. S. Thanthiriwatte,  V. Vanovschi,  
 Tao Wang,  A. Warshel,  C. F. Williams,  Q. Wu,  X. Xu,  W. Zhang

 Please cite Q-Chem as follows:
 Y. Shao et al., Mol. Phys. 113, 184-215 (2015)
 DOI: 10.1080/00268976.2014.952696

 Q-Chem 5.0.1 for Intel X86 EM64T Linux

 Parts of Q-Chem use Armadillo 5.200.1 (Boston Tea Smuggler).
 http://arma.sourceforge.net/

 Q-Chem begins on Sun Jan 14 20:15:42 2018  

Host: vega02.cac.cornell.edu
0

     Scratch files written to /scratch/jj585/SOT1001/0548c.save//
 Parallel job on  1  processors

Checking the input file for inconsistencies... 	...done.

--------------------------------------------------------------
User input:
--------------------------------------------------------------
$molecule
0  1
O -3.94934 -3.66094 2.70899
C -3.26408 -4.56952 2.26188
C -3.36658 -6.02376 2.66595
C -4.4167 -6.38525 3.72916
C -5.36749 -5.28289 4.14013
O -5.24118 -5.03581 5.47745
C -5.55424 -3.68482 5.83253
C -7.00256 -3.58642 6.30031
O -7.20683 -4.43387 7.44179
C -8.02287 -3.93231 8.40182
C -8.19744 -4.86865 9.57376
C -8.5625 -4.18517 10.89961
C -9.04294 -2.75176 10.79374
O -9.62228 -2.13156 11.67368
O -2.34157 -4.28307 1.30601
O -8.22891 -1.94413 10.05269
O -8.93338 -3.17588 8.07488
C -8.33488 -0.57285 9.88854
C -9.38948 -5.83194 9.41157
C -9.17026 -7.06732 10.28274
C -9.35216 -6.47291 11.66502
C -9.77711 -5.0459 11.29648
O -10.45418 -5.19369 10.07165
H -7.2617 -5.46687 9.66727
H -7.73633 -4.20766 11.64381
H -9.57349 -6.12894 8.35577
H -10.01902 -7.759 10.07838
H -8.2129 -7.60801 10.12157
H -10.17838 -7.01715 12.17401
H -8.44328 -6.47017 12.30508
H -10.36626 -4.5944 12.125
O -6.16221 -4.71704 3.39605
C -2.11405 -3.0208 0.79924
C -3.84642 -6.90907 1.49917
C -3.42588 -8.35944 1.73675
C -4.37993 -8.75269 2.84573
C -5.20449 -7.46809 2.9735
O -5.24339 -6.96482 1.65955
H -2.34451 -6.3287 2.98521
H -3.92718 -6.79711 4.64213
H -1.79116 -2.33471 1.61127
H -3.48164 -6.56354 0.50708
H -3.68892 -8.93969 0.82335
H -2.34723 -8.49928 1.96419
H -5.02555 -9.5807 2.47662
H -3.90069 -9.04579 3.80474
H -6.18842 -7.6831 3.44636
H -3.03683 -2.62873 0.32052
H -1.31086 -3.07454 0.03604
H -8.43162 -0.34598 8.80659
H -7.41507 -0.08707 10.27318
H -9.21624 -0.14293 10.41033
H -7.21025 -2.51324 6.52126
H -7.67349 -3.91448 5.47817
H -5.38733 -2.97045 4.99223
H -4.87709 -3.36588 6.65298
$end

$opt
CONSTRAINT
tors           1           2           3           4      -0.186
tors           3           4           5           6    -119.922
tors           4           5           6           7    +151.370
tors           5           6           7           8     +95.892
tors           6           7           8           9     +59.643
tors           7           8           9          10    +141.673
tors           8           9          10          11    -180.000
tors           9          10          11          12    +154.628
tors          11          12          13          14    +164.646
ENDCONSTRAINT
$end

$rem
JOBTYPE                   OPT
METHOD                    B3LYP
DFT_D                     d3_op
BASIS                     STO-3G
GEOM_OPT_MAX_CYCLES       100
GEOM_OPT_TOL_GRADIENT     300
GEOM_OPT_TOL_DISPLACEMENT 1200
GEOM_OPT_TOL_ENERGY       100
SYMMETRY                  False
THRESH                    12
SCF_CONVERGENCE           8
MAX_SUB_FILE_NUM          128
MEM_STATIC                400
MEM_TOTAL                 4000
$end
--------------------------------------------------------------
 Adding empirical dispersion correction 
 ----------------------------------------------------------------
 Doing -D3(op) with
 s6 =   1.00000
 s8 =   0.78311
 a1 =   0.30000
 a2 =   4.25000
 n  =  10.00000
 -D3 energy without 3body term =     -0.0644704765 hartrees
 ----------------------------------------------------------------
             Standard Nuclear Orientation (Angstroms)
    I     Atom           X                Y                Z
 ----------------------------------------------------------------
    1      O       4.0868690921    -1.9635778265     0.0635271561
    2      C       4.9868818156    -1.2527799774    -0.3604418890
    3      C       4.8617370876     0.2203686662    -0.6810111693
    4      C       3.4879096157     0.8736807918    -0.4582469834
    5      C       2.4405870970     0.0246101825     0.2275300772
    6      O       1.3598736274    -0.1316096547    -0.5928852347
    7      C       0.6548936763    -1.3571091599    -0.3683488649
    8      C      -0.5238415481    -1.1210508927     0.5702624903
    9      O      -1.4217621501    -0.1584601971    -0.0042216881
   10      C      -2.7413698202    -0.4032353832     0.1903599696
   11      C      -3.6324514089     0.6425902965    -0.4364357659
   12      C      -5.0455680661     0.1591499433    -0.7937572940
   13      C      -5.4746308450    -1.1509359173    -0.1642531652
   14      O      -6.6229706455    -1.5660483765    -0.1044649716
   15      O       6.2174321362    -1.7981495786    -0.5477482320
   16      O      -4.5737029098    -2.1651349123    -0.3185107890
   17      O      -3.0956058929    -0.9838708394     1.2128490113
   18      C      -4.7430733343    -3.4952791070     0.0287841612
   19      C      -3.9620897490     1.8106550923     0.5133830481
   20      C      -4.3401653145     3.0436480025    -0.3051190422
   21      C      -5.6857343068     2.6146718822    -0.8551485248
   22      C      -5.8671887595     1.2778915745    -0.1251797139
   23      O      -5.1919490104     1.4581049098     1.0963147122
   24      H      -3.1007128672     1.0444557121    -1.3297324395
   25      H      -5.2135952007     0.0751819696    -1.8899381963
   26      H      -3.1355313905     2.0505295821     1.2176868384
   27      H      -4.5004835770     3.8736506084     0.4201198829
   28      H      -3.5971018399     3.3639601083    -1.0667727970
   29      H      -6.4493437557     3.3551638469    -0.5288361808
   30      H      -5.7281351540     2.4807257572    -1.9578759478
   31      H      -6.9478182185     1.0251318392    -0.0493651284
   32      O       2.5270214513    -0.4279786753     1.3646815954
   33      C       6.5289545675    -3.1177921526    -0.2959467468
   34      C       5.7280523561     1.0850680372     0.2555723258
   35      C       6.0194452773     2.4347183563    -0.4004806191
   36      C       4.6649955692     3.1033375028    -0.2859903117
   37      C       3.8859375155     2.0274750442     0.4769055173
   38      O       4.8583578460     1.4357460223     1.3048632281
   39      H       5.2003029136     0.3372164958    -1.7351753891
   40      H       3.0709452834     1.2517958600    -1.4205060190
   41      H       5.9074610251    -3.7856026589    -0.9300958346
   42      H       6.6793944061     0.5920561753     0.5532056661
   43      H       6.7374619115     2.9787541455     0.2542382804
   44      H       6.4341806837     2.3714186440    -1.4294401376
   45      H       4.7739892198     4.0116014777     0.3479220424
   46      H       4.1830482727     3.3714557552    -1.2509349597
   47      H       3.0081883111     2.4756821903     0.9932492137
   48      H       6.3593364543    -3.3529470270     0.7765953421
   49      H       7.5982258225    -3.2911247902    -0.5348843610
   50      H      -3.9430366041    -3.7864229457     0.7405572448
   51      H      -4.6562539807    -4.1238740977    -0.8807823903
   52      H      -5.7230214506    -3.6931152338     0.5129886803
   53      H      -1.0114878934    -2.1078991577     0.7491504295
   54      H      -0.1450053423    -0.7329165751     1.5395506254
   55      H       1.3083657672    -2.1573971110     0.0521281935
   56      H       0.2824302970    -1.7377442379    -1.3429159570
 ----------------------------------------------------------------
 Molecular Point Group                 C1    NOp =  1
 Largest Abelian Subgroup              C1    NOp =  1
 Nuclear Repulsion Energy =  3061.3839439395 hartrees
 There are      113 alpha and      113 beta electrons
 Requested basis set is STO-3G
 There are 86 shells and 176 basis functions

 Total QAlloc Memory Limit   4000 MB
 Mega-Array Size       392 MB
 MEM_STATIC part       400 MB
 A cutoff of  1.0D-12 yielded   1974 shell pairs
 There are      9228 function pairs
 
 -------------------------------------------------------
 OpenMP Integral Computing Module                       
 Release: version 1.0, May 2013, Q-Chem Inc. Pittsburgh 
 -------------------------------------------------------
 Integral Job Info:
 Integral job number is                      11
 Integral operator is                         1
 short-range coefficients                     0
 long-range coefficients              100000000
 Omega coefficients                           0
 if combine SR and LR in K                    0
 Integral screening is                        0
 Integral computing path is                   2
 max size of driver memory is            800000
 size of driver memory is                 45569
 size of scratch memory is              1046100
 max col of scratch BK array                289
 max len of scratch array in speh3           22
 max len of scratch index in speh4            8
 max int batch size is                      520
 min int batch size is                       52
 fixed nKL is                                52
 max L of basis functions is                  1
 order of int derivative is                   0
 number of shells is                         86
 number of basis is                         176
 number of cartesian basis is               176
 number of contracted shell pairs          1974
 number of primitive shell pairs          10443
 maxK2 (contraction) of shell pair            9
 max number of K2 of shell pair               1
 max number of CS2 of shell pair            266
 max number of PS2 of shell pair           1170
 mem total for path MDJ                   52746
 -------------------------------------------------------
 Smallest overlap matrix eigenvalue = 1.93E-01

 Scale SEOQF with 1.000000e-02/1.000000e-01/1.000000e-01

 Standard Electronic Orientation quadrupole field applied
 Nucleus-field energy     =     0.0000000604 hartrees
 Guess from superposition of atomic densities
 Warning:  Energy on first SCF cycle will be non-variational
 A restricted hybrid HF-DFT SCF calculation will be
 performed using Pulay DIIS extrapolation
 Exchange:     0.2000 Hartree-Fock + 0.0800 Slater + 0.7200 B88
 Correlation:  0.1900 VWN1RPA + 0.8100 LYP
 Using SG-1 standard quadrature grid
 Dispersion:   Grimme D3
 SCF converges when DIIS error is below 1.0E-08
 using 48 threads for integral computing
 -------------------------------------------------------
 OpenMP Integral computing Module                
 Release: version 1.0, May 2013, Q-Chem Inc. Pittsburgh 
 -------------------------------------------------------
 -------------------------------------------------------
 OpenMP BLAS3 based DFT computing Module                
 Release: version 1.0, May 2013, Q-Chem Inc. Pittsburgh 
 -------------------------------------------------------
 ---------------------------------------
  Cycle       Energy         DIIS Error
 ---------------------------------------
    1   -1509.4408988130      8.29E-02
    2   -1509.5550493030      1.05E-02
    3   -1507.3848734636      2.60E-02
    4   -1510.0521969765      3.77E-03
    5   -1510.1075481614      1.34E-03
    6   -1510.1150847540      3.64E-04
    7   -1510.1155923289      1.40E-04
    8   -1510.1156738738      3.38E-05
    9   -1510.1156782710      1.34E-05
   10   -1510.1156790151      4.34E-06
   11   -1510.1156790978      7.94E-07
   12   -1510.1156791006      1.75E-07
   13   -1510.1156791008      6.18E-08
   14   -1510.1156791008      3.48E-08
   15   -1510.1156791009      1.01E-08
   16   -1510.1156791007      1.64E-09 Convergence criterion met
 ---------------------------------------
 SCF time:  CPU 125.66 s  wall 2.66 s
 SCF   energy in the final basis set = -1510.11567910
 Total energy in the final basis set = -1510.11567910
 
 --------------------------------------------------------------
 
                    Orbital Energies (a.u.)
 --------------------------------------------------------------
 
 Alpha MOs
 -- Occupied --
-18.935 -18.935 -18.933 -18.910 -18.900 -18.898 -18.862 -18.860
-18.849 -18.848 -10.115 -10.105 -10.105 -10.101 -10.085 -10.079
-10.076 -10.069 -10.069 -10.068 -10.068 -10.065 -10.044 -10.043
-10.035 -10.034 -10.017 -10.016 -10.016 -10.015  -1.048  -1.043
 -1.035  -1.031  -1.024  -1.023  -0.953  -0.944  -0.938  -0.928
 -0.784  -0.781  -0.745  -0.742  -0.736  -0.725  -0.713  -0.684
 -0.671  -0.631  -0.608  -0.587  -0.557  -0.550  -0.539  -0.536
 -0.530  -0.521  -0.501  -0.490  -0.483  -0.466  -0.464  -0.460
 -0.448  -0.446  -0.444  -0.431  -0.424  -0.421  -0.417  -0.413
 -0.403  -0.396  -0.393  -0.381  -0.375  -0.368  -0.364  -0.356
 -0.348  -0.346  -0.345  -0.336  -0.333  -0.327  -0.320  -0.315
 -0.312  -0.308  -0.305  -0.302  -0.300  -0.292  -0.291  -0.275
 -0.272  -0.249  -0.237  -0.237  -0.233  -0.228  -0.213  -0.182
 -0.176  -0.166  -0.157  -0.155  -0.152  -0.146  -0.137  -0.133
 -0.127
 -- Virtual --
  0.101   0.107   0.109   0.117   0.242   0.250   0.265   0.269
  0.304   0.307   0.324   0.328   0.338   0.340   0.350   0.356
  0.369   0.381   0.384   0.388   0.392   0.393   0.397   0.399
  0.404   0.407   0.411   0.413   0.415   0.417   0.419   0.423
  0.431   0.433   0.441   0.448   0.450   0.450   0.456   0.461
  0.462   0.466   0.469   0.473   0.480   0.483   0.484   0.488
  0.491   0.499   0.504   0.516   0.534   0.547   0.549   0.557
  0.565   0.577   0.580   0.675   0.683   0.694   0.709
 --------------------------------------------------------------
 
          Ground-State Mulliken Net Atomic Charges

     Atom                 Charge (a.u.)
  ----------------------------------------
      1 O                    -0.235093
      2 C                     0.238573
      3 C                    -0.081197
      4 C                    -0.083830
      5 C                     0.240419
      6 O                    -0.194193
      7 C                    -0.035136
      8 C                    -0.036385
      9 O                    -0.193805
     10 C                     0.232258
     11 C                    -0.081473
     12 C                    -0.077255
     13 C                     0.243293
     14 O                    -0.235559
     15 O                    -0.214843
     16 O                    -0.213424
     17 O                    -0.228939
     18 C                    -0.101007
     19 C                     0.040890
     20 C                    -0.141254
     21 C                    -0.144184
     22 C                     0.040006
     23 O                    -0.208424
     24 H                     0.081664
     25 H                     0.091712
     26 H                     0.086008
     27 H                     0.075904
     28 H                     0.073035
     29 H                     0.076297
     30 H                     0.071336
     31 H                     0.091367
     32 O                    -0.217362
     33 C                    -0.097685
     34 C                     0.040207
     35 C                    -0.142088
     36 C                    -0.143834
     37 C                     0.041264
     38 O                    -0.206284
     39 H                     0.087661
     40 H                     0.084859
     41 H                     0.086070
     42 H                     0.087417
     43 H                     0.075363
     44 H                     0.072056
     45 H                     0.075581
     46 H                     0.071733
     47 H                     0.084305
     48 H                     0.089325
     49 H                     0.094581
     50 H                     0.086091
     51 H                     0.083749
     52 H                     0.092410
     53 H                     0.093137
     54 H                     0.095623
     55 H                     0.101176
     56 H                     0.087883
  ----------------------------------------
  Sum of atomic charges =    -0.000000

 -----------------------------------------------------------------
                    Cartesian Multipole Moments
 -----------------------------------------------------------------
    Charge (ESU x 10^10)
                -0.0000
    Dipole Moment (Debye)
         X       3.2566      Y       0.5668      Z      -4.1928
       Tot       5.3391
    Quadrupole Moments (Debye-Ang)
        XX    -161.5891     XY      -7.7340     YY    -146.2074
        XZ       0.9105     YZ       0.1314     ZZ    -164.1942
    Octopole Moments (Debye-Ang^2)
       XXX     248.0752    XXY      -0.1988    XYY      11.5544
       YYY     -62.0114    XXZ     -76.7680    XYZ       3.6500
       YYZ       3.0525    XZZ      -7.5564    YZZ     -12.5419
       ZZZ      -1.0081
    Hexadecapole Moments (Debye-Ang^3)
      XXXX  -20130.7944   XXXY    -630.6810   XXYY   -3567.9766
      XYYY      -2.6221   YYYY   -3352.4775   XXXZ     109.7729
      XXYZ     -43.9119   XYYZ     -16.9987   YYYZ      47.0672
      XXZZ   -3479.5188   XYZZ       3.7537   YYZZ    -670.6007
      XZZZ      -8.7912   YZZZ       8.4965   ZZZZ    -549.4855
 -----------------------------------------------------------------
 Calculating analytic gradient of the SCF energy
 Gradient of SCF Energy
            1           2           3           4           5           6
    1   0.0565855   0.0205293  -0.0247216   0.0152718  -0.0221940   0.0195250
    2   0.0377109   0.0205692   0.0001233  -0.0190273   0.0007375  -0.0126286
    3  -0.0176358  -0.0132847   0.0432859   0.0440153  -0.0122645   0.0570037
            7           8           9          10          11          12
    1   0.0021539   0.0071438  -0.0518733   0.0221644  -0.0280042  -0.0078796
    2   0.0283024   0.0248064  -0.0313741  -0.0217723  -0.0065908  -0.0083992
    3   0.0051673  -0.0328720   0.0592482  -0.0417363   0.0653535   0.0199175
           13          14          15          16          17          18
    1   0.0132006   0.0955017  -0.0732430  -0.1101680   0.0229304   0.0244702
    2   0.0463265  -0.0115119  -0.0913480  -0.0369772   0.0512023   0.0379276
    3   0.0269357  -0.0304819   0.0425370   0.0346549  -0.0465895  -0.0218372
           19          20          21          22          23          24
    1  -0.0673654  -0.0244875   0.0270877   0.0668500   0.0245457   0.0060561
    2  -0.0210479  -0.0461051  -0.0217444   0.0090227   0.0102544   0.0032193
    3  -0.0135905   0.0058888   0.0319489   0.0325233  -0.0822479  -0.0033970
           25          26          27          28          29          30
    1  -0.0016200   0.0086394  -0.0063955   0.0041821   0.0000186  -0.0005065
    2  -0.0004181   0.0073992   0.0030903   0.0038877   0.0100447  -0.0050701
    3  -0.0054023  -0.0066969   0.0087367  -0.0060315   0.0086071  -0.0076099
           31          32          33          34          35          36
    1  -0.0054786   0.0022387   0.0111388  -0.0640596  -0.0443104   0.0142750
    2   0.0048761   0.0163450   0.0551506   0.0227533  -0.0204196  -0.0450876
    3  -0.0114821  -0.0468438  -0.0173035   0.0163696   0.0178634   0.0159027
           37          38          39          40          41          42
    1   0.0564967  -0.0046087   0.0031205  -0.0020638  -0.0001748   0.0088604
    2  -0.0383264   0.0129035  -0.0026522   0.0041610   0.0084491   0.0030977
    3   0.0019366  -0.0852887  -0.0051054  -0.0074376  -0.0033365  -0.0091849
           43          44          45          46          47          48
    1   0.0004144   0.0029639   0.0082239  -0.0050707  -0.0062299   0.0004970
    2   0.0052288   0.0003091   0.0042735   0.0003462   0.0083723   0.0090254
    3   0.0105215  -0.0076046   0.0084688  -0.0068600  -0.0086637  -0.0010930
           49          50          51          52          53          54
    1   0.0004713  -0.0019600   0.0008665   0.0028439   0.0043552  -0.0004512
    2  -0.0034436   0.0023872   0.0029137   0.0016698  -0.0050072   0.0019222
    3   0.0008021  -0.0011503   0.0011498   0.0010249  -0.0037955  -0.0030036
           55          56
    1  -0.0008387   0.0000828
    2  -0.0048038  -0.0050536
    3  -0.0029593   0.0029273
 Max gradient component =       1.102E-01
 RMS gradient           =       2.869E-02
 Gradient time:  CPU 30.71 s  wall 0.65 s
 Geometry Optimization Parameters
   NAtoms,    NIC,     NZ,  NCons,   NDum,   NFix, NCnnct, MaxDiis
       56     458       0       9       0       0       0       0


** CONSTRAINED OPTIMIZATION IN DELOCALIZED INTERNAL COORDINATES **
   Searching for a Minimum

   Optimization Cycle:   1

                       Coordinates (Angstroms)
     ATOM                X               Y               Z
      1  O         4.0868690921   -1.9635778265    0.0635271561
      2  C         4.9868818156   -1.2527799774   -0.3604418890
      3  C         4.8617370876    0.2203686662   -0.6810111693
      4  C         3.4879096157    0.8736807918   -0.4582469834
      5  C         2.4405870970    0.0246101825    0.2275300772
      6  O         1.3598736274   -0.1316096547   -0.5928852347
      7  C         0.6548936763   -1.3571091599   -0.3683488649
      8  C        -0.5238415481   -1.1210508927    0.5702624903
      9  O        -1.4217621501   -0.1584601971   -0.0042216881
     10  C        -2.7413698202   -0.4032353832    0.1903599696
     11  C        -3.6324514089    0.6425902965   -0.4364357659
     12  C        -5.0455680661    0.1591499433   -0.7937572940
     13  C        -5.4746308450   -1.1509359173   -0.1642531652
     14  O        -6.6229706455   -1.5660483765   -0.1044649716
     15  O         6.2174321362   -1.7981495786   -0.5477482320
     16  O        -4.5737029098   -2.1651349123   -0.3185107890
     17  O        -3.0956058929   -0.9838708394    1.2128490113
     18  C        -4.7430733343   -3.4952791070    0.0287841612
     19  C        -3.9620897490    1.8106550923    0.5133830481
     20  C        -4.3401653145    3.0436480025   -0.3051190422
     21  C        -5.6857343068    2.6146718822   -0.8551485248
     22  C        -5.8671887595    1.2778915745   -0.1251797139
     23  O        -5.1919490104    1.4581049098    1.0963147122
     24  H        -3.1007128672    1.0444557121   -1.3297324395
     25  H        -5.2135952007    0.0751819696   -1.8899381963
     26  H        -3.1355313905    2.0505295821    1.2176868384
     27  H        -4.5004835770    3.8736506084    0.4201198829
     28  H        -3.5971018399    3.3639601083   -1.0667727970
     29  H        -6.4493437557    3.3551638469   -0.5288361808
     30  H        -5.7281351540    2.4807257572   -1.9578759478
     31  H        -6.9478182185    1.0251318392   -0.0493651284
     32  O         2.5270214513   -0.4279786753    1.3646815954
     33  C         6.5289545675   -3.1177921526   -0.2959467468
     34  C         5.7280523561    1.0850680372    0.2555723258
     35  C         6.0194452773    2.4347183563   -0.4004806191
     36  C         4.6649955692    3.1033375028   -0.2859903117
     37  C         3.8859375155    2.0274750442    0.4769055173
     38  O         4.8583578460    1.4357460223    1.3048632281
     39  H         5.2003029136    0.3372164958   -1.7351753891
     40  H         3.0709452834    1.2517958600   -1.4205060190
     41  H         5.9074610251   -3.7856026589   -0.9300958346
     42  H         6.6793944061    0.5920561753    0.5532056661
     43  H         6.7374619115    2.9787541455    0.2542382804
     44  H         6.4341806837    2.3714186440   -1.4294401376
     45  H         4.7739892198    4.0116014777    0.3479220424
     46  H         4.1830482727    3.3714557552   -1.2509349597
     47  H         3.0081883111    2.4756821903    0.9932492137
     48  H         6.3593364543   -3.3529470270    0.7765953421
     49  H         7.5982258225   -3.2911247902   -0.5348843610
     50  H        -3.9430366041   -3.7864229457    0.7405572448
     51  H        -4.6562539807   -4.1238740977   -0.8807823903
     52  H        -5.7230214506   -3.6931152338    0.5129886803
     53  H        -1.0114878934   -2.1078991577    0.7491504295
     54  H        -0.1450053423   -0.7329165751    1.5395506254
     55  H         1.3083657672   -2.1573971110    0.0521281935
     56  H         0.2824302970   -1.7377442379   -1.3429159570
   Point Group: c1    Number of degrees of freedom:   162


   Energy is  -1510.115679101

              Constraints and their Current Values
                                        Value     Constraint
   Dihedral:        1   2   3   4       -0.186       -0.186
   Dihedral:        3   4   5   6     -119.922     -119.922
   Dihedral:        4   5   6   7      151.370      151.370
   Dihedral:        5   6   7   8       95.892       95.892
   Dihedral:        6   7   8   9       59.643       59.643
   Dihedral:        7   8   9  10      141.674      141.673
   Dihedral:        8   9  10  11      180.000     -180.000
   Dihedral:        9  10  11  12      154.628      154.628
   Dihedral:       11  12  13  14      164.646      164.646

 Attempting to Generate Delocalized Internal Coordinates

   Using Lagrange Multiplier Algorithm


171 Hessian modes will be used to form the next step
  Hessian Eigenvalues:
    -0.977753   -0.977753   -0.977753   -0.977753   -0.977753   -0.977753
    -0.977753   -0.977753   -0.977753    0.045000    0.045000    0.045000
     0.045000    0.045006    0.045016    0.045557    0.045600    0.048875
     0.048879    0.049465    0.049972    0.054522    0.059997    0.060014
     0.062747    0.062977    0.067013    0.067102    0.067495    0.067908
     0.070237    0.071196    0.072598    0.073641    0.074153    0.075870
     0.076045    0.076785    0.076933    0.082506    0.082593    0.083587
     0.084093    0.084348    0.084507    0.085765    0.085952    0.085993
     0.086747    0.087036    0.087280    0.088544    0.088886    0.089088
     0.089296    0.089789    0.089896    0.093794    0.093868    0.096614
     0.096646    0.111527    0.111616    0.112805    0.114650    0.115892
     0.116104    0.116608    0.117465    0.117843    0.118697    0.118777
     0.122094    0.123367    0.129628    0.131056    0.131590    0.139201
     0.139471    0.160000    0.160000    0.160000    0.160000    0.160000
     0.160000    0.171080    0.171914    0.171976    0.172069    0.220011
     0.220809    0.220965    0.231626    0.241048    0.241993    0.249855
     0.249976    0.250000    0.250000    0.250000    0.250000    0.250000
     0.250000    0.250000    0.250000    0.258077    0.258755    0.267144
     0.267496    0.278419    0.278882    0.284344    0.285785    0.295122
     0.295546    0.298744    0.308056    0.310698    0.310861    0.313321
     0.320270    0.320557    0.320974    0.321230    0.321997    0.322183
     0.322482    0.322892    0.323232    0.323249    0.323490    0.323726
     0.323779    0.323819    0.324268    0.324490    0.324688    0.324731
     0.324899    0.324920    0.325148    0.325246    0.325384    0.326313
     0.326776    0.327014    0.368197    0.369016    0.383111    0.384200
     0.401013    0.407710    0.481764    0.492678    0.517910    0.518889
     0.531588    0.537335    0.919041    0.923665    0.941950    0.942714
     1.022753    1.022753    1.022753    1.022753    1.022753    1.022753
     1.022753    1.022753    1.022753

 Minimum Search - Taking P-RFO Step
 Searching for Lamda that Maximizes Along the Constraint modes Only
 Value Taken    Lamda =   0.00178379
 Searching for Lamda that Minimizes Along All other modes
 Value Taken    Lamda =  -0.18067304
 Calculated Step too Large.  Step scaled by  0.506908
 Step Taken.  Stepsize is  0.300000

                             Maximum     Tolerance    Cnvgd?
         Gradient            0.115074       0.000300      NO
         Displacement        0.090520       0.001200      NO
         Energy change     *********       0.000001      NO


 New Cartesian Coordinates Obtained by Inverse Iteration

 Displacement from previous Coordinates is:  1.320410
 Adding empirical dispersion correction 
 ----------------------------------------------------------------
 Doing -D3(op) with
 s6 =   1.00000
 s8 =   0.78311
 a1 =   0.30000
 a2 =   4.25000
 n  =  10.00000
 -D3 energy without 3body term =     -0.0639026297 hartrees
 ----------------------------------------------------------------
             Standard Nuclear Orientation (Angstroms)
    I     Atom           X                Y                Z
 ----------------------------------------------------------------
    1      O       4.1482620888    -1.9939270238     0.0900405166
    2      C       5.0505661906    -1.2659528652    -0.3480285180
    3      C       4.9302004178     0.2235377673    -0.6872700572
    4      C       3.5407843425     0.8890458698    -0.4654484400
    5      C       2.4799423004     0.0421514984     0.2523971484
    6      O       1.3765224128    -0.1287120583    -0.5744331549
    7      C       0.6636713991    -1.3630686667    -0.3213553247
    8      C      -0.5296204177    -1.1300216745     0.6286840463
    9      O      -1.4423002006    -0.1741535375     0.0354703665
   10      C      -2.7820018588    -0.4486510240     0.2428636656
   11      C      -3.6720805784     0.6104980405    -0.4170982500
   12      C      -5.1119071771     0.1515045101    -0.8007086237
   13      C      -5.5913491897    -1.1828057489    -0.2066260576
   14      O      -6.7773271159    -1.5556109147    -0.1855038820
   15      O       6.3161097904    -1.7681816689    -0.5579189305
   16      O      -4.6512167181    -2.1922067778    -0.3730613967
   17      O      -3.1420755375    -1.0582627031     1.2669828684
   18      C      -4.8994432598    -3.5367643456    -0.0453645001
   19      C      -4.0029189431     1.7876835742     0.5573725292
   20      C      -4.3521059736     3.0478143073    -0.2709085171
   21      C      -5.7145365393     2.6400234255    -0.8542801793
   22      C      -5.9393661263     1.2861047965    -0.1260277407
   23      O      -5.2703025967     1.4427054844     1.1323203178
   24      H      -3.1256144909     1.0112623166    -1.2973964053
   25      H      -5.2595228791     0.0834056045    -1.8979081167
   26      H      -3.1875584160     2.0024671549     1.2794387000
   27      H      -4.5059276529     3.8757726197     0.4507800188
   28      H      -3.5920582998     3.3557549336    -1.0144652840
   29      H      -6.4728351938     3.3852827597    -0.5434546023
   30      H      -5.7372554980     2.5155675577    -1.9543226111
   31      H      -7.0220531924     1.0460597535    -0.0668354414
   32      O       2.5638203203    -0.3939476300     1.4089969566
   33      C       6.6064430365    -3.1160671612    -0.2831263516
   34      C       5.8185092887     1.1105242399     0.2428645242
   35      C       6.1067558870     2.4635421721    -0.4555073141
   36      C       4.7329776178     3.1449080694    -0.3415633474
   37      C       3.9491983032     2.0736024918     0.4633139140
   38      O       4.9432206765     1.4859962675     1.3132700131
   39      H       5.2624368285     0.3258108262    -1.7418694984
   40      H       3.1200112765     1.2502500790    -1.4272286277
   41      H       5.9807645597    -3.7953100739    -0.9037394055
   42      H       6.7653131536     0.6173061291     0.5471130484
   43      H       6.8324594064     3.0185438292     0.1728440887
   44      H       6.5091450350     2.3756617247    -1.4829132402
   45      H       4.8415152042     4.0655242748     0.2655321877
   46      H       4.2448518108     3.3900414144    -1.3044855539
   47      H       3.0777568008     2.5252194921     0.9824712645
   48      H       6.4385285471    -3.3509072791     0.7914202137
   49      H       7.6733750008    -3.2993439099    -0.5230895353
   50      H      -4.1452887067    -3.8767037965     0.6965258428
   51      H      -4.8039053002    -4.1612787198    -0.9584881316
   52      H      -5.9095806397    -3.6956602161     0.3917272009
   53      H      -1.0161346844    -2.1133371157     0.8230445295
   54      H      -0.1541878275    -0.7299352156     1.5957127717
   55      H       1.3239077148    -2.1509876933     0.1091812666
   56      H       0.2920736663    -1.7533351780    -1.2929619722
 ----------------------------------------------------------------
 Molecular Point Group                 C1    NOp =  1
 Largest Abelian Subgroup              C1    NOp =  1
 Nuclear Repulsion Energy =  3021.0144720344 hartrees
 There are      113 alpha and      113 beta electrons
 Applying Cartesian multipole field
    Component          Value
    ---------          -----
     (2,0,0)        1.00000E-12
     (0,2,0)        2.00000E-11
     (0,0,2)       -3.00000E-11
 Nucleus-field energy     =     0.0000000613 hartrees
 Requested basis set is STO-3G
 There are 86 shells and 176 basis functions
 A cutoff of  1.0D-12 yielded   1957 shell pairs
 There are      9154 function pairs
 Smallest overlap matrix eigenvalue = 2.02E-01
 Guess MOs from SCF MO coefficient file
 Reading MOs from coefficient file
 Reading MOs from coefficient file
 A restricted hybrid HF-DFT SCF calculation will be
 performed using Pulay DIIS extrapolation
 Exchange:     0.2000 Hartree-Fock + 0.0800 Slater + 0.7200 B88
 Correlation:  0.1900 VWN1RPA + 0.8100 LYP
 Using SG-1 standard quadrature grid
 Dispersion:   Grimme D3
 SCF converges when DIIS error is below 1.0E-08
 Geometry optimization detected.  Setting ReadMinima to 0
 Setting SaveMinima to 0
 using 48 threads for integral computing
 -------------------------------------------------------
 OpenMP Integral computing Module                
 Release: version 1.0, May 2013, Q-Chem Inc. Pittsburgh 
 -------------------------------------------------------
 -------------------------------------------------------
 OpenMP BLAS3 based DFT computing Module                
 Release: version 1.0, May 2013, Q-Chem Inc. Pittsburgh 
 -------------------------------------------------------
 ---------------------------------------
  Cycle       Energy         DIIS Error
 ---------------------------------------
    1   -1510.0133691814      3.29E-03
    2   -1510.1847380151      9.19E-04
    3   -1510.1787211999      1.51E-03
    4   -1510.1881341014      3.29E-04
    5   -1510.1886315071      5.57E-05
    6   -1510.1886454874      1.57E-05
    7   -1510.1886460142      1.20E-05
    8   -1510.1886466244      2.67E-06
    9   -1510.1886466596      6.35E-07
   10   -1510.1886466608      4.24E-07
   11   -1510.1886466615      1.10E-07
   12   -1510.1886466616      1.81E-08
   13   -1510.1886466616      1.14E-08
   14   -1510.1886466616      6.38E-09 Convergence criterion met
 ---------------------------------------
 SCF time:  CPU 99.76 s  wall 2.08 s
 SCF   energy in the final basis set = -1510.18864666
 Total energy in the final basis set = -1510.18864666
 
 --------------------------------------------------------------
 
                    Orbital Energies (a.u.)
 --------------------------------------------------------------
 
 Alpha MOs
 -- Occupied --
-18.938 -18.932 -18.929 -18.918 -18.899 -18.896 -18.864 -18.864
-18.854 -18.852 -10.110 -10.101 -10.100 -10.096 -10.081 -10.077
-10.073 -10.067 -10.066 -10.065 -10.064 -10.062 -10.043 -10.042
-10.035 -10.034 -10.018 -10.017 -10.016 -10.015  -1.037  -1.028
 -1.022  -1.018  -1.005  -1.003  -0.946  -0.937  -0.932  -0.925
 -0.775  -0.772  -0.737  -0.733  -0.728  -0.718  -0.706  -0.678
 -0.667  -0.625  -0.604  -0.584  -0.552  -0.547  -0.538  -0.534
 -0.526  -0.516  -0.494  -0.484  -0.476  -0.459  -0.458  -0.454
 -0.442  -0.441  -0.438  -0.425  -0.420  -0.416  -0.413  -0.409
 -0.398  -0.390  -0.388  -0.375  -0.369  -0.364  -0.360  -0.350
 -0.346  -0.343  -0.342  -0.336  -0.332  -0.326  -0.319  -0.314
 -0.309  -0.305  -0.303  -0.301  -0.297  -0.289  -0.288  -0.273
 -0.268  -0.249  -0.238  -0.237  -0.235  -0.233  -0.221  -0.180
 -0.177  -0.165  -0.158  -0.154  -0.150  -0.147  -0.139  -0.138
 -0.133
 -- Virtual --
  0.096   0.100   0.104   0.110   0.237   0.246   0.259   0.262
  0.291   0.297   0.310   0.316   0.330   0.337   0.343   0.350
  0.360   0.370   0.375   0.378   0.380   0.386   0.386   0.389
  0.394   0.399   0.403   0.404   0.410   0.412   0.413   0.419
  0.425   0.428   0.429   0.434   0.436   0.442   0.446   0.447
  0.451   0.455   0.461   0.466   0.470   0.470   0.474   0.476
  0.482   0.487   0.493   0.494   0.507   0.523   0.526   0.547
  0.553   0.562   0.564   0.647   0.660   0.665   0.686
 --------------------------------------------------------------
 
          Ground-State Mulliken Net Atomic Charges

     Atom                 Charge (a.u.)
  ----------------------------------------
      1 O                    -0.226652
      2 C                     0.226783
      3 C                    -0.079846
      4 C                    -0.082284
      5 C                     0.229984
      6 O                    -0.189385
      7 C                    -0.038179
      8 C                    -0.040260
      9 O                    -0.187963
     10 C                     0.220977
     11 C                    -0.080055
     12 C                    -0.075557
     13 C                     0.229535
     14 O                    -0.226243
     15 O                    -0.202099
     16 O                    -0.199788
     17 O                    -0.221276
     18 C                    -0.108607
     19 C                     0.035751
     20 C                    -0.142369
     21 C                    -0.144968
     22 C                     0.034611
     23 O                    -0.199586
     24 H                     0.082655
     25 H                     0.090078
     26 H                     0.085562
     27 H                     0.076121
     28 H                     0.073614
     29 H                     0.076408
     30 H                     0.071954
     31 H                     0.090976
     32 O                    -0.211465
     33 C                    -0.105659
     34 C                     0.035515
     35 C                    -0.143055
     36 C                    -0.144678
     37 C                     0.036282
     38 O                    -0.197528
     39 H                     0.087167
     40 H                     0.085103
     41 H                     0.086520
     42 H                     0.087409
     43 H                     0.075867
     44 H                     0.072875
     45 H                     0.076075
     46 H                     0.072537
     47 H                     0.084185
     48 H                     0.089582
     49 H                     0.094065
     50 H                     0.086889
     51 H                     0.083705
     52 H                     0.093858
     53 H                     0.093261
     54 H                     0.094102
     55 H                     0.099808
     56 H                     0.087687
  ----------------------------------------
  Sum of atomic charges =    -0.000000

 -----------------------------------------------------------------
                    Cartesian Multipole Moments
 -----------------------------------------------------------------
    Charge (ESU x 10^10)
                -0.0000
    Dipole Moment (Debye)
         X       3.2023      Y       0.4318      Z      -4.1338
       Tot       5.2469
    Quadrupole Moments (Debye-Ang)
        XX    -161.0495     XY      -7.1573     YY    -145.4685
        XZ       0.5812     YZ      -0.1783     ZZ    -164.3785
    Octopole Moments (Debye-Ang^2)
       XXX     253.3995    XXY      -6.5574    XYY      10.3812
       YYY     -63.0277    XXZ     -78.0139    XYZ       2.7068
       YYZ       1.7905    XZZ      -7.4074    YZZ     -12.2781
       ZZZ      -2.5049
    Hexadecapole Moments (Debye-Ang^3)
      XXXX  -20727.0517   XXXY    -665.6656   XXYY   -3637.2811
      XYYY     -41.2594   YYYY   -3388.1144   XXXZ      97.8487
      XXYZ     -57.6127   XYYZ     -15.7932   YYYZ      45.1546
      XXZZ   -3590.3060   XYZZ     -15.3492   YYZZ    -683.5953
      XZZZ      -7.6431   YZZZ       7.6848   ZZZZ    -567.5120
 -----------------------------------------------------------------
 Calculating analytic gradient of the SCF energy
 Gradient of SCF Energy
            1           2           3           4           5           6
    1   0.0260658   0.0273921  -0.0157354   0.0095059  -0.0164461   0.0100232
    2   0.0177637   0.0214746   0.0004673  -0.0139511   0.0056232  -0.0071126
    3  -0.0059220  -0.0165780   0.0260726   0.0252254  -0.0145329   0.0410522
            7           8           9          10          11          12
    1   0.0025867   0.0025624  -0.0294644   0.0187385  -0.0148926  -0.0095438
    2   0.0184824   0.0172817  -0.0200920  -0.0163954  -0.0017850  -0.0076037
    3  -0.0000235  -0.0235165   0.0450350  -0.0492202   0.0421108   0.0047649
           13          14          15          16          17          18
    1   0.0250600   0.0416828  -0.0522484  -0.0746051   0.0100391   0.0224705
    2   0.0431403  -0.0132400  -0.0643916  -0.0345915   0.0316658   0.0318697
    3   0.0334562  -0.0250608   0.0310346   0.0188470  -0.0146117  -0.0168617
           19          20          21          22          23          24
    1  -0.0430379  -0.0127063   0.0135433   0.0408034   0.0142995   0.0045534
    2  -0.0146637  -0.0269075  -0.0128416   0.0026179   0.0063126   0.0025831
    3  -0.0046156   0.0014077   0.0168594   0.0267093  -0.0501613  -0.0016281
           25          26          27          28          29          30
    1  -0.0011477   0.0075332  -0.0047331   0.0023691   0.0012507  -0.0010268
    2  -0.0013854   0.0063052   0.0010368   0.0037805   0.0065686  -0.0034501
    3  -0.0026774  -0.0067567   0.0059041  -0.0029784   0.0062488  -0.0044376
           31          32          33          34          35          36
    1  -0.0038283   0.0025277   0.0099309  -0.0406136  -0.0242508   0.0065440
    2   0.0045335   0.0075384   0.0416981   0.0126678  -0.0126021  -0.0245248
    3  -0.0108598  -0.0233749  -0.0138731   0.0153812   0.0084662   0.0083873
           37          38          39          40          41          42
    1   0.0350565  -0.0029818   0.0025182  -0.0007805  -0.0002976   0.0069780
    2  -0.0253637   0.0069613  -0.0028406   0.0026864   0.0037124   0.0028542
    3   0.0065685  -0.0524460  -0.0029965  -0.0044185  -0.0027529  -0.0088265
           43          44          45          46          47          48
    1  -0.0006090   0.0026695   0.0063082  -0.0036559  -0.0049564   0.0006623
    2   0.0031575   0.0008152   0.0020585   0.0006088   0.0066890   0.0045939
    3   0.0072716  -0.0040875   0.0054502  -0.0035044  -0.0086970   0.0005299
           49          50          51          52          53          54
    1   0.0008303  -0.0008547   0.0005495   0.0010825   0.0032378  -0.0002955
    2  -0.0034804   0.0004618   0.0008810  -0.0003920  -0.0036368   0.0011735
    3   0.0007258   0.0001696   0.0004131   0.0018552  -0.0022736  -0.0016289
           55          56
    1  -0.0008436   0.0001803
    2  -0.0039973  -0.0048157
    3  -0.0027153   0.0020906
 Max gradient component =       7.461E-02
 RMS gradient           =       1.914E-02
 Gradient time:  CPU 29.37 s  wall 0.62 s
 Geometry Optimization Parameters
   NAtoms,    NIC,     NZ,  NCons,   NDum,   NFix, NCnnct, MaxDiis
       56     458       0       9       0       0       0       0

 Cartesian Hessian Update
 Hessian Updated using BFGS Update


** CONSTRAINED OPTIMIZATION IN DELOCALIZED INTERNAL COORDINATES **
   Searching for a Minimum

   Optimization Cycle:   2

                       Coordinates (Angstroms)
     ATOM                X               Y               Z
      1  O         4.1482620888   -1.9939270238    0.0900405166
      2  C         5.0505661906   -1.2659528652   -0.3480285180
      3  C         4.9302004178    0.2235377673   -0.6872700572
      4  C         3.5407843425    0.8890458698   -0.4654484400
      5  C         2.4799423004    0.0421514984    0.2523971484
      6  O         1.3765224128   -0.1287120583   -0.5744331549
      7  C         0.6636713991   -1.3630686667   -0.3213553247
      8  C        -0.5296204177   -1.1300216745    0.6286840463
      9  O        -1.4423002006   -0.1741535375    0.0354703665
     10  C        -2.7820018588   -0.4486510240    0.2428636656
     11  C        -3.6720805784    0.6104980405   -0.4170982500
     12  C        -5.1119071771    0.1515045101   -0.8007086237
     13  C        -5.5913491897   -1.1828057489   -0.2066260576
     14  O        -6.7773271159   -1.5556109147   -0.1855038820
     15  O         6.3161097904   -1.7681816689   -0.5579189305
     16  O        -4.6512167181   -2.1922067778   -0.3730613967
     17  O        -3.1420755375   -1.0582627031    1.2669828684
     18  C        -4.8994432598   -3.5367643456   -0.0453645001
     19  C        -4.0029189431    1.7876835742    0.5573725292
     20  C        -4.3521059736    3.0478143073   -0.2709085171
     21  C        -5.7145365393    2.6400234255   -0.8542801793
     22  C        -5.9393661263    1.2861047965   -0.1260277407
     23  O        -5.2703025967    1.4427054844    1.1323203178
     24  H        -3.1256144909    1.0112623166   -1.2973964053
     25  H        -5.2595228791    0.0834056045   -1.8979081167
     26  H        -3.1875584160    2.0024671549    1.2794387000
     27  H        -4.5059276529    3.8757726197    0.4507800188
     28  H        -3.5920582998    3.3557549336   -1.0144652840
     29  H        -6.4728351938    3.3852827597   -0.5434546023
     30  H        -5.7372554980    2.5155675577   -1.9543226111
     31  H        -7.0220531924    1.0460597535   -0.0668354414
     32  O         2.5638203203   -0.3939476300    1.4089969566
     33  C         6.6064430365   -3.1160671612   -0.2831263516
     34  C         5.8185092887    1.1105242399    0.2428645242
     35  C         6.1067558870    2.4635421721   -0.4555073141
     36  C         4.7329776178    3.1449080694   -0.3415633474
     37  C         3.9491983032    2.0736024918    0.4633139140
     38  O         4.9432206765    1.4859962675    1.3132700131
     39  H         5.2624368285    0.3258108262   -1.7418694984
     40  H         3.1200112765    1.2502500790   -1.4272286277
     41  H         5.9807645597   -3.7953100739   -0.9037394055
     42  H         6.7653131536    0.6173061291    0.5471130484
     43  H         6.8324594064    3.0185438292    0.1728440887
     44  H         6.5091450350    2.3756617247   -1.4829132402
     45  H         4.8415152042    4.0655242748    0.2655321877
     46  H         4.2448518108    3.3900414144   -1.3044855539
     47  H         3.0777568008    2.5252194921    0.9824712645
     48  H         6.4385285471   -3.3509072791    0.7914202137
     49  H         7.6733750008   -3.2993439099   -0.5230895353
     50  H        -4.1452887067   -3.8767037965    0.6965258428
     51  H        -4.8039053002   -4.1612787198   -0.9584881316
     52  H        -5.9095806397   -3.6956602161    0.3917272009
     53  H        -1.0161346844   -2.1133371157    0.8230445295
     54  H        -0.1541878275   -0.7299352156    1.5957127717
     55  H         1.3239077148   -2.1509876933    0.1091812666
     56  H         0.2920736663   -1.7533351780   -1.2929619722
   Point Group: c1    Number of degrees of freedom:   162


   Energy is  -1510.188646662

              Constraints and their Current Values
                                        Value     Constraint
   Dihedral:        1   2   3   4       -0.192       -0.186
   Dihedral:        3   4   5   6     -119.952     -119.922
   Dihedral:        4   5   6   7      151.323      151.370
   Dihedral:        5   6   7   8       95.901       95.892
   Dihedral:        6   7   8   9       59.643       59.643
   Dihedral:        7   8   9  10      141.665      141.673
   Dihedral:        8   9  10  11      179.995     -180.000
   Dihedral:        9  10  11  12      154.699      154.628
   Dihedral:       11  12  13  14      164.736      164.646
 Hessian Updated using BFGS Update

   Using Lagrange Multiplier Algorithm


157 Hessian modes will be used to form the next step
  Hessian Eigenvalues:
    -0.977753   -0.977753   -0.977753   -0.977753   -0.977753   -0.977753
    -0.977753   -0.977172    0.044996    0.045000    0.045006    0.045033
     0.045561    0.045617    0.048874    0.048895    0.049245    0.049861
     0.054523    0.059943    0.060007    0.062778    0.063010    0.067020
     0.067120    0.067495    0.067916    0.070238    0.071216    0.072558
     0.073634    0.074162    0.075865    0.076049    0.076839    0.076879
     0.082508    0.082588    0.083621    0.084091    0.084349    0.084692
     0.085830    0.085948    0.085973    0.086743    0.087037    0.087360
     0.088486    0.088939    0.089082    0.089314    0.089795    0.089889
     0.093800    0.093883    0.096614    0.096647    0.111552    0.111630
     0.112803    0.114664    0.115892    0.116104    0.116622    0.117451
     0.117851    0.118721    0.118854    0.122130    0.123379    0.129624
     0.131015    0.131605    0.139326    0.140394    0.159676    0.160841
     0.170774    0.171501    0.172017    0.172095    0.218867    0.220251
     0.220978    0.226684    0.235642    0.241292    0.242004    0.249855
     0.249977    0.253681    0.258327    0.262300    0.267363    0.267662
     0.278591    0.280690    0.284808    0.288713    0.295317    0.297373
     0.301202    0.308583    0.310721    0.312386    0.320031    0.320276
     0.320553    0.321147    0.321373    0.322074    0.322379    0.322576
     0.323032    0.323234    0.323455    0.323521    0.323767    0.323807
     0.323949    0.324326    0.324530    0.324691    0.324728    0.324910
     0.325091    0.325241    0.325379    0.326156    0.326737    0.326934
     0.330013    0.368200    0.368874    0.383570    0.400087    0.405188
     0.418272    0.469895    0.489916    0.517206    0.526244    0.528480
     0.541853    0.921833    0.926052    0.941982    0.998469    1.022753
     1.022753    1.022753    1.022753    1.022753    1.022753    1.022753
     1.032756

 Minimum Search - Taking P-RFO Step
 Searching for Lamda that Maximizes Along the Constraint modes Only
 Value Taken    Lamda =   0.00004513
 Searching for Lamda that Minimizes Along All other modes
 Value Taken    Lamda =  -0.08783415
 Calculated Step too Large.  Step scaled by  0.577679
 Step Taken.  Stepsize is  0.300000

                             Maximum     Tolerance    Cnvgd?
         Gradient            0.065488       0.000300      NO
         Displacement        0.084149       0.001200      NO
         Energy change     -0.072968       0.000001      NO


 New Cartesian Coordinates Obtained by Inverse Iteration

 Displacement from previous Coordinates is:  1.016604
 Adding empirical dispersion correction 
 ----------------------------------------------------------------
 Doing -D3(op) with
 s6 =   1.00000
 s8 =   0.78311
 a1 =   0.30000
 a2 =   4.25000
 n  =  10.00000
 -D3 energy without 3body term =     -0.0636662798 hartrees
 ----------------------------------------------------------------
             Standard Nuclear Orientation (Angstroms)
    I     Atom           X                Y                Z
 ----------------------------------------------------------------
    1      O       4.1312787837    -1.9937821191     0.0820276946
    2      C       5.0500103364    -1.2688742745    -0.3482556478
    3      C       4.9769029780     0.2385973572    -0.6886649066
    4      C       3.5899357590     0.9319655717    -0.4719690545
    5      C       2.5117079026     0.0865543079     0.2541087484
    6      O       1.3962416645    -0.0722878715    -0.5918507265
    7      C       0.6840942912    -1.3175028575    -0.3177556398
    8      C      -0.5184430135    -1.0911669610     0.6424995643
    9      O      -1.4463328136    -0.1409246639     0.0317457086
   10      C      -2.7933666649    -0.4643893839     0.2648455253
   11      C      -3.6959526468     0.5930772025    -0.4167272849
   12      C      -5.1419196856     0.1302462814    -0.8098353181
   13      C      -5.6131698002    -1.2415756377    -0.2499044525
   14      O      -6.8009101345    -1.6327341572    -0.2311104579
   15      O       6.3381654710    -1.7616197083    -0.5727887068
   16      O      -4.6124336494    -2.2152369687    -0.4068797401
   17      O      -3.1311629625    -1.1281346681     1.2711903436
   18      C      -4.9503986509    -3.5627225749    -0.0572127687
   19      C      -4.0407122285     1.7668771113     0.5834069612
   20      C      -4.3935396229     3.0400554515    -0.2489997533
   21      C      -5.7626044474     2.6245732796    -0.8514972711
   22      C      -5.9939881601     1.2554075781    -0.1251296144
   23      O      -5.3265478253     1.4043262300     1.1600403040
   24      H      -3.1501343771     1.0061127092    -1.2873242192
   25      H      -5.2779362752     0.0762184128    -1.9077738059
   26      H      -3.2384502166     1.9688607191     1.3210444474
   27      H      -4.5518224660     3.8667619213     0.4676777940
   28      H      -3.6285067893     3.3466416013    -0.9833835057
   29      H      -6.5312487253     3.3590246165    -0.5529200285
   30      H      -5.7695797164     2.5060873880    -1.9491625869
   31      H      -7.0710216831     0.9981590879    -0.0652260414
   32      O       2.5785665058    -0.3552925570     1.4168749427
   33      C       6.5243836922    -3.1517776639    -0.2758919702
   34      C       5.8924634535     1.1148567935     0.2481829580
   35      C       6.2013494107     2.4674800970    -0.4728143995
   36      C       4.8250349487     3.1796285689    -0.3615897905
   37      C       4.0175043432     2.1233322241     0.4652601119
   38      O       5.0143825049     1.5167458378     1.3344486856
   39      H       5.3132760821     0.3353092362    -1.7400182567
   40      H       3.1748843450     1.2963417362    -1.4312411598
   41      H       5.8653110218    -3.7946320078    -0.8991670068
   42      H       6.8205291297     0.5985866125     0.5658927231
   43      H       6.9412426908     3.0165999216     0.1376293786
   44      H       6.5935283863     2.3570695060    -1.4987070692
   45      H       4.9431818953     4.1060618940     0.2282175562
   46      H       4.3411026385     3.4174719544    -1.3248374693
   47      H       3.1571893817     2.5811828699     0.9937161943
   48      H       6.3224999668    -3.3715653908     0.7951082021
   49      H       7.5805106975    -3.3982855354    -0.4993855573
   50      H      -4.2477318778    -3.9232093126     0.7236023139
   51      H      -4.8491496541    -4.2103467617    -0.9532649845
   52      H      -5.9872519716    -3.6521188274     0.3317596362
   53      H      -1.0044897402    -2.0707146996     0.8496884728
   54      H      -0.1454568487    -0.6808341744     1.6068544256
   55      H       1.3537868826    -2.0913266799     0.1209330435
   56      H       0.3138455467    -1.7107186361    -1.2884875531
 ----------------------------------------------------------------
 Molecular Point Group                 C1    NOp =  1
 Largest Abelian Subgroup              C1    NOp =  1
 Nuclear Repulsion Energy =  3001.1198629647 hartrees
 There are      113 alpha and      113 beta electrons
 Applying Cartesian multipole field
    Component          Value
    ---------          -----
     (2,0,0)        1.00000E-12
     (0,2,0)        2.00000E-11
     (0,0,2)       -3.00000E-11
 Nucleus-field energy     =     0.0000000617 hartrees
 Requested basis set is STO-3G
 There are 86 shells and 176 basis functions
 A cutoff of  1.0D-12 yielded   1947 shell pairs
 There are      9111 function pairs
 Smallest overlap matrix eigenvalue = 2.07E-01
 Guess MOs from SCF MO coefficient file
 Reading MOs from coefficient file
 Reading MOs from coefficient file
 A restricted hybrid HF-DFT SCF calculation will be
 performed using Pulay DIIS extrapolation
 Exchange:     0.2000 Hartree-Fock + 0.0800 Slater + 0.7200 B88
 Correlation:  0.1900 VWN1RPA + 0.8100 LYP
 Using SG-1 standard quadrature grid
 Dispersion:   Grimme D3
 SCF converges when DIIS error is below 1.0E-08
 Geometry optimization detected.  Setting ReadMinima to 0
 Setting SaveMinima to 0
 using 48 threads for integral computing
 -------------------------------------------------------
 OpenMP Integral computing Module                
 Release: version 1.0, May 2013, Q-Chem Inc. Pittsburgh 
 -------------------------------------------------------
 -------------------------------------------------------
 OpenMP BLAS3 based DFT computing Module                
 Release: version 1.0, May 2013, Q-Chem Inc. Pittsburgh 
 -------------------------------------------------------
 ---------------------------------------
  Cycle       Energy         DIIS Error
 ---------------------------------------
    1   -1510.0891579594      2.79E-03
    2   -1510.2262872866      7.78E-04
    3   -1510.2212036739      1.35E-03
    4   -1510.2287602632      2.77E-04
    5   -1510.2291028831      5.31E-05
    6   -1510.2291147678      1.89E-05
    7   -1510.2291157398      1.23E-05
    8   -1510.2291163971      2.52E-06
    9   -1510.2291164284      7.77E-07
   10   -1510.2291164304      4.37E-07
   11   -1510.2291164312      9.13E-08
   12   -1510.2291164312      2.12E-08
   13   -1510.2291164313      1.61E-08
   14   -1510.2291164313      7.16E-09 Convergence criterion met
 ---------------------------------------
 SCF time:  CPU 98.92 s  wall 2.07 s
 SCF   energy in the final basis set = -1510.22911643
 Total energy in the final basis set = -1510.22911643
 
 --------------------------------------------------------------
 
                    Orbital Energies (a.u.)
 --------------------------------------------------------------
 
 Alpha MOs
 -- Occupied --
-18.941 -18.929 -18.926 -18.924 -18.897 -18.894 -18.870 -18.866
-18.859 -18.857 -10.107 -10.098 -10.097 -10.094 -10.075 -10.073
-10.069 -10.065 -10.063 -10.062 -10.060 -10.060 -10.042 -10.040
-10.035 -10.034 -10.019 -10.018 -10.017 -10.016  -1.029  -1.020
 -1.015  -1.009  -0.991  -0.988  -0.944  -0.934  -0.930  -0.923
 -0.771  -0.767  -0.731  -0.728  -0.722  -0.712  -0.700  -0.672
 -0.661  -0.620  -0.601  -0.580  -0.550  -0.545  -0.538  -0.534
 -0.522  -0.513  -0.488  -0.478  -0.469  -0.456  -0.453  -0.450
 -0.439  -0.438  -0.435  -0.421  -0.417  -0.414  -0.409  -0.405
 -0.393  -0.385  -0.383  -0.370  -0.363  -0.361  -0.357  -0.348
 -0.345  -0.340  -0.339  -0.337  -0.331  -0.324  -0.319  -0.314
 -0.308  -0.304  -0.302  -0.301  -0.295  -0.289  -0.285  -0.272
 -0.266  -0.252  -0.246  -0.238  -0.237  -0.234  -0.229  -0.182
 -0.178  -0.166  -0.159  -0.154  -0.149  -0.148  -0.143  -0.141
 -0.136
 -- Virtual --
  0.095   0.098   0.100   0.106   0.234   0.244   0.257   0.257
  0.282   0.290   0.300   0.305   0.322   0.328   0.337   0.347
  0.350   0.359   0.363   0.366   0.367   0.375   0.380   0.381
  0.385   0.395   0.396   0.403   0.410   0.412   0.413   0.416
  0.418   0.420   0.427   0.428   0.429   0.436   0.438   0.439
  0.445   0.448   0.452   0.455   0.459   0.462   0.467   0.468
  0.473   0.479   0.482   0.488   0.492   0.515   0.517   0.542
  0.547   0.555   0.557   0.635   0.648   0.655   0.673
 --------------------------------------------------------------
 
          Ground-State Mulliken Net Atomic Charges

     Atom                 Charge (a.u.)
  ----------------------------------------
      1 O                    -0.219899
      2 C                     0.218917
      3 C                    -0.079678
      4 C                    -0.082013
      5 C                     0.222936
      6 O                    -0.184705
      7 C                    -0.041985
      8 C                    -0.045114
      9 O                    -0.182586
     10 C                     0.215592
     11 C                    -0.080203
     12 C                    -0.075351
     13 C                     0.221395
     14 O                    -0.222136
     15 O                    -0.188341
     16 O                    -0.185861
     17 O                    -0.216148
     18 C                    -0.118887
     19 C                     0.031582
     20 C                    -0.143144
     21 C                    -0.145471
     22 C                     0.030147
     23 O                    -0.192984
     24 H                     0.084251
     25 H                     0.088622
     26 H                     0.085126
     27 H                     0.076584
     28 H                     0.074253
     29 H                     0.076831
     30 H                     0.072663
     31 H                     0.090356
     32 O                    -0.207902
     33 C                    -0.115306
     34 C                     0.031522
     35 C                    -0.143643
     36 C                    -0.145260
     37 C                     0.032087
     38 O                    -0.191001
     39 H                     0.086858
     40 H                     0.085375
     41 H                     0.087416
     42 H                     0.087382
     43 H                     0.076551
     44 H                     0.073587
     45 H                     0.076633
     46 H                     0.073276
     47 H                     0.083963
     48 H                     0.090470
     49 H                     0.092837
     50 H                     0.087306
     51 H                     0.082856
     52 H                     0.097586
     53 H                     0.093954
     54 H                     0.092462
     55 H                     0.099329
     56 H                     0.086914
  ----------------------------------------
  Sum of atomic charges =    -0.000000

 -----------------------------------------------------------------
                    Cartesian Multipole Moments
 -----------------------------------------------------------------
    Charge (ESU x 10^10)
                -0.0000
    Dipole Moment (Debye)
         X       3.0415      Y       0.4833      Z      -4.0375
       Tot       5.0780
    Quadrupole Moments (Debye-Ang)
        XX    -160.3374     XY      -7.1590     YY    -145.4945
        XZ       0.4470     YZ      -0.4717     ZZ    -164.3239
    Octopole Moments (Debye-Ang^2)
       XXX     234.0809    XXY      -3.6839    XYY      11.6989
       YYY     -61.9707    XXZ     -77.4575    XYZ       1.5619
       YYZ       1.8380    XZZ      -8.3725    YZZ     -12.1345
       ZZZ      -1.5034
    Hexadecapole Moments (Debye-Ang^3)
      XXXX  -21005.4428   XXXY    -689.3129   XXYY   -3684.4236
      XYYY    -102.6132   YYYY   -3411.3597   XXXZ      92.3408
      XXYZ     -72.1286   XYYZ     -15.8140   YYYZ      38.6676
      XXZZ   -3640.1015   XYZZ     -36.7434   YYZZ    -690.8651
      XZZZ     -10.7895   YZZZ       2.8744   ZZZZ    -577.7595
 -----------------------------------------------------------------
 Calculating analytic gradient of the SCF energy
 Gradient of SCF Energy
            1           2           3           4           5           6
    1   0.0103660   0.0211300  -0.0088916   0.0056128  -0.0107158   0.0024882
    2   0.0080249   0.0122608   0.0017771  -0.0119885   0.0049141  -0.0014207
    3   0.0005878  -0.0125968   0.0147900   0.0109356  -0.0124887   0.0270099
            7           8           9          10          11          12
    1   0.0050241  -0.0012767  -0.0156508   0.0114021  -0.0064383  -0.0060218
    2   0.0114374   0.0098047  -0.0083773  -0.0165590   0.0003302  -0.0036127
    3  -0.0020598  -0.0150021   0.0312487  -0.0444195   0.0221578  -0.0021103
           13          14          15          16          17          18
    1   0.0205473   0.0211463  -0.0319541  -0.0449826   0.0029095   0.0136711
    2   0.0306450  -0.0126837  -0.0359454  -0.0198254   0.0183334   0.0231128
    3   0.0365678  -0.0218766   0.0176253   0.0079116  -0.0002759  -0.0101933
           19          20          21          22          23          24
    1  -0.0258205  -0.0047066   0.0061173   0.0230470   0.0069496   0.0024341
    2  -0.0108259  -0.0148155  -0.0065470   0.0007803   0.0036728   0.0026023
    3   0.0007254  -0.0015824   0.0067254   0.0193029  -0.0263024  -0.0002629
           25          26          27          28          29          30
    1  -0.0004467   0.0058032  -0.0034509   0.0010865   0.0017378  -0.0012167
    2  -0.0020664   0.0049373  -0.0005489   0.0033884   0.0038031  -0.0022060
    3  -0.0011932  -0.0060272   0.0037116  -0.0007473   0.0043525  -0.0020089
           31          32          33          34          35          36
    1  -0.0023759   0.0025923   0.0060529  -0.0236405  -0.0122856   0.0016726
    2   0.0034119   0.0022051   0.0267794   0.0068379  -0.0074545  -0.0119603
    3  -0.0093130  -0.0098563  -0.0085658   0.0121966   0.0018077   0.0027027
           37          38          39          40          41          42
    1   0.0201000  -0.0011837   0.0018393   0.0003097  -0.0000692   0.0050500
    2  -0.0156884   0.0037699  -0.0021409   0.0018424   0.0013446   0.0021463
    3   0.0076411  -0.0278561  -0.0014055  -0.0023657  -0.0016160  -0.0075211
           43          44          45          46          47          48
    1  -0.0014047   0.0023800   0.0045765  -0.0024923  -0.0036588   0.0005945
    2   0.0015498   0.0009870   0.0002087   0.0007793   0.0048194   0.0019252
    3   0.0048497  -0.0015754   0.0033794  -0.0011301  -0.0076202   0.0007238
           49          50          51          52          53          54
    1   0.0003323  -0.0007034   0.0001749   0.0002157   0.0025438  -0.0000769
    2  -0.0021005  -0.0005462  -0.0001052  -0.0021940  -0.0025017   0.0005479
    3   0.0004694   0.0007010  -0.0000270   0.0021256  -0.0010737  -0.0005781
           55          56
    1  -0.0009173   0.0004741
    2  -0.0031379  -0.0037278
    3  -0.0019433   0.0013450
 Max gradient component =       4.498E-02
 RMS gradient           =       1.204E-02
 Gradient time:  CPU 29.17 s  wall 0.62 s
 Geometry Optimization Parameters
   NAtoms,    NIC,     NZ,  NCons,   NDum,   NFix, NCnnct, MaxDiis
       56     458       0       9       0       0       0       0

 Cartesian Hessian Update
 Hessian Updated using BFGS Update


** CONSTRAINED OPTIMIZATION IN DELOCALIZED INTERNAL COORDINATES **
   Searching for a Minimum

   Optimization Cycle:   3

                       Coordinates (Angstroms)
     ATOM                X               Y               Z
      1  O         4.1312787837   -1.9937821191    0.0820276946
      2  C         5.0500103364   -1.2688742745   -0.3482556478
      3  C         4.9769029780    0.2385973572   -0.6886649066
      4  C         3.5899357590    0.9319655717   -0.4719690545
      5  C         2.5117079026    0.0865543079    0.2541087484
      6  O         1.3962416645   -0.0722878715   -0.5918507265
      7  C         0.6840942912   -1.3175028575   -0.3177556398
      8  C        -0.5184430135   -1.0911669610    0.6424995643
      9  O        -1.4463328136   -0.1409246639    0.0317457086
     10  C        -2.7933666649   -0.4643893839    0.2648455253
     11  C        -3.6959526468    0.5930772025   -0.4167272849
     12  C        -5.1419196856    0.1302462814   -0.8098353181
     13  C        -5.6131698002   -1.2415756377   -0.2499044525
     14  O        -6.8009101345   -1.6327341572   -0.2311104579
     15  O         6.3381654710   -1.7616197083   -0.5727887068
     16  O        -4.6124336494   -2.2152369687   -0.4068797401
     17  O        -3.1311629625   -1.1281346681    1.2711903436
     18  C        -4.9503986509   -3.5627225749   -0.0572127687
     19  C        -4.0407122285    1.7668771113    0.5834069612
     20  C        -4.3935396229    3.0400554515   -0.2489997533
     21  C        -5.7626044474    2.6245732796   -0.8514972711
     22  C        -5.9939881601    1.2554075781   -0.1251296144
     23  O        -5.3265478253    1.4043262300    1.1600403040
     24  H        -3.1501343771    1.0061127092   -1.2873242192
     25  H        -5.2779362752    0.0762184128   -1.9077738059
     26  H        -3.2384502166    1.9688607191    1.3210444474
     27  H        -4.5518224660    3.8667619213    0.4676777940
     28  H        -3.6285067893    3.3466416013   -0.9833835057
     29  H        -6.5312487253    3.3590246165   -0.5529200285
     30  H        -5.7695797164    2.5060873880   -1.9491625869
     31  H        -7.0710216831    0.9981590879   -0.0652260414
     32  O         2.5785665058   -0.3552925570    1.4168749427
     33  C         6.5243836922   -3.1517776639   -0.2758919702
     34  C         5.8924634535    1.1148567935    0.2481829580
     35  C         6.2013494107    2.4674800970   -0.4728143995
     36  C         4.8250349487    3.1796285689   -0.3615897905
     37  C         4.0175043432    2.1233322241    0.4652601119
     38  O         5.0143825049    1.5167458378    1.3344486856
     39  H         5.3132760821    0.3353092362   -1.7400182567
     40  H         3.1748843450    1.2963417362   -1.4312411598
     41  H         5.8653110218   -3.7946320078   -0.8991670068
     42  H         6.8205291297    0.5985866125    0.5658927231
     43  H         6.9412426908    3.0165999216    0.1376293786
     44  H         6.5935283863    2.3570695060   -1.4987070692
     45  H         4.9431818953    4.1060618940    0.2282175562
     46  H         4.3411026385    3.4174719544   -1.3248374693
     47  H         3.1571893817    2.5811828699    0.9937161943
     48  H         6.3224999668   -3.3715653908    0.7951082021
     49  H         7.5805106975   -3.3982855354   -0.4993855573
     50  H        -4.2477318778   -3.9232093126    0.7236023139
     51  H        -4.8491496541   -4.2103467617   -0.9532649845
     52  H        -5.9872519716   -3.6521188274    0.3317596362
     53  H        -1.0044897402   -2.0707146996    0.8496884728
     54  H        -0.1454568487   -0.6808341744    1.6068544256
     55  H         1.3537868826   -2.0913266799    0.1209330435
     56  H         0.3138455467   -1.7107186361   -1.2884875531
   Point Group: c1    Number of degrees of freedom:   162


   Energy is  -1510.229116431

              Constraints and their Current Values
                                        Value     Constraint
   Dihedral:        1   2   3   4       -0.190       -0.186
   Dihedral:        3   4   5   6     -119.929     -119.922
   Dihedral:        4   5   6   7      151.354      151.370
   Dihedral:        5   6   7   8       95.897       95.892
   Dihedral:        6   7   8   9       59.643       59.643
   Dihedral:        7   8   9  10      141.675      141.673
   Dihedral:        8   9  10  11      179.998     -180.000
   Dihedral:        9  10  11  12      154.645      154.628
   Dihedral:       11  12  13  14      164.664      164.646
 Hessian Updated using BFGS Update

   Using Lagrange Multiplier Algorithm


160 Hessian modes will be used to form the next step
  Hessian Eigenvalues:
    -0.977753   -0.977753   -0.977753   -0.977753   -0.977753   -0.977753
    -0.977728   -0.977322    0.044930    0.045000    0.045001    0.045006
     0.045027    0.045428    0.045564    0.048706    0.048878    0.049505
     0.050545    0.054523    0.059156    0.060011    0.062772    0.062951
     0.066970    0.067076    0.067491    0.068005    0.070237    0.071157
     0.071887    0.073623    0.074156    0.075911    0.076051    0.076764
     0.076983    0.082508    0.082597    0.083599    0.084090    0.084318
     0.084605    0.085401    0.085933    0.086027    0.086765    0.087027
     0.087254    0.088526    0.088942    0.089214    0.089335    0.089805
     0.089988    0.093753    0.093841    0.096608    0.096614    0.111550
     0.111626    0.112788    0.114662    0.115892    0.116081    0.116356
     0.117476    0.117820    0.118719    0.119006    0.122092    0.123379
     0.129639    0.130760    0.131598    0.138606    0.140289    0.158706
     0.160141    0.160818    0.171081    0.171604    0.172036    0.173188
     0.218392    0.220231    0.221026    0.233810    0.240485    0.241998
     0.243074    0.249862    0.249987    0.252875    0.255550    0.258480
     0.264083    0.267441    0.267922    0.278721    0.280812    0.284963
     0.289569    0.295318    0.297447    0.301922    0.308527    0.310609
     0.312368    0.318964    0.320259    0.320544    0.321114    0.321228
     0.322066    0.322352    0.322520    0.323009    0.323235    0.323420
     0.323510    0.323769    0.323804    0.323886    0.324303    0.324499
     0.324666    0.324718    0.324910    0.325064    0.325241    0.325381
     0.326130    0.326755    0.326912    0.331486    0.368199    0.368510
     0.383667    0.391324    0.404122    0.406799    0.459966    0.488138
     0.514886    0.519731    0.528158    0.538625    0.921807    0.927909
     0.942708    1.006865    1.022753    1.022753    1.022753    1.022753
     1.022753    1.022753    1.022871    1.034307

 Minimum Search - Taking P-RFO Step
 Searching for Lamda that Maximizes Along the Constraint modes Only
 Value Taken    Lamda =   0.00001880
 Searching for Lamda that Minimizes Along All other modes
 Value Taken    Lamda =  -0.04289655
 Calculated Step too Large.  Step scaled by  0.627889
 Step Taken.  Stepsize is  0.300000

                             Maximum     Tolerance    Cnvgd?
         Gradient            0.033547       0.000300      NO
         Displacement        0.076035       0.001200      NO
         Energy change     -0.040470       0.000001      NO


 New Cartesian Coordinates Obtained by Inverse Iteration

 Displacement from previous Coordinates is:  1.281459
 Adding empirical dispersion correction 
 ----------------------------------------------------------------
 Doing -D3(op) with
 s6 =   1.00000
 s8 =   0.78311
 a1 =   0.30000
 a2 =   4.25000
 n  =  10.00000
 -D3 energy without 3body term =     -0.0632044812 hartrees
 ----------------------------------------------------------------
             Standard Nuclear Orientation (Angstroms)
    I     Atom           X                Y                Z
 ----------------------------------------------------------------
    1      O       4.1641187726    -1.9997411928     0.0977377584
    2      C       5.0770162554    -1.2648512095    -0.3339842433
    3      C       5.0179274052     0.2519222333    -0.6908762423
    4      C       3.6248695294     0.9579919526    -0.4866780096
    5      C       2.5426908212     0.1242307120     0.2702641596
    6      O       1.4143229634    -0.0544341723    -0.5819138026
    7      C       0.7079219956    -1.3057700544    -0.2628407467
    8      C      -0.4981407085    -1.0668157303     0.7023583052
    9      O      -1.4436607172    -0.1372019230     0.0604739307
   10      C      -2.7951885837    -0.4935555880     0.3239531623
   11      C      -3.7048591678     0.5488477566    -0.3974347668
   12      C      -5.1697787980     0.1153243307    -0.8062649042
   13      C      -5.6886550195    -1.2819368253    -0.3176699213
   14      O      -6.8923757772    -1.6325369404    -0.3273174235
   15      O       6.3911161049    -1.7379721599    -0.5681524193
   16      O      -4.6710282092    -2.2642543784    -0.4669259361
   17      O      -3.1070082286    -1.1942024946     1.3146836780
   18      C      -5.1239843120    -3.6127775923    -0.1562409361
   19      C      -4.0438224927     1.7235103740     0.6238150349
   20      C      -4.3732529810     3.0166988898    -0.2020999457
   21      C      -5.7504196168     2.6250601662    -0.8239867380
   22      C      -6.0173919548     1.2457462743    -0.1113225441
   23      O      -5.3509234100     1.3664767915     1.1952377739
   24      H      -3.1495401426     0.9609946513    -1.2593851071
   25      H      -5.2917867822     0.0883700311    -1.9062024192
   26      H      -3.2536295826     1.8936291190     1.3810013445
   27      H      -4.5190704882     3.8452201096     0.5123642921
   28      H      -3.5960793794     3.3070749553    -0.9280248138
   29      H      -6.5159762509     3.3644199547    -0.5360309673
   30      H      -5.7412604369     2.5176069676    -1.9211987681
   31      H      -7.0952450876     0.9956478235    -0.0509523970
[...]
     15  O         6.1437176745   -1.9729291371   -0.3631025823
     16  O        -4.1136798096   -2.0275152566   -0.9221200058
     17  O        -3.1428603291   -0.9924495532    1.3535744176
     18  C        -4.2610900093   -3.5000837301   -0.9238256706
     19  C        -4.1078386045    1.9818523629    0.5292831072
     20  C        -4.9591292676    3.0384891620   -0.2832379010
     21  C        -6.3855081477    2.3718027772   -0.2640466151
     22  C        -6.0464982089    0.9844242664    0.4055140362
     23  O        -5.0824271255    1.3663742374    1.4627045266
     24  H        -3.2194524560    1.0336155750   -1.3325802227
     25  H        -5.5050471475    0.4390103652   -1.6667916407
     26  H        -3.2488244990    2.4026055523    1.0874323714
     27  H        -4.9573425185    4.0139350287    0.2280113646
     28  H        -4.5700774310    3.1761615210   -1.3051290121
     29  H        -7.0846816270    2.9405435129    0.3700005853
     30  H        -6.8245540040    2.2636183549   -1.2686855819
     31  H        -6.9044477160    0.4283971065    0.8310648032
     32  O         2.6050439278    0.0726819785    1.5114241243
     33  C         6.0497890999   -3.4027137576    0.0145542300
     34  C         5.9683920699    1.0184716042    0.2859733165
     35  C         6.5125090035    2.2144717483   -0.5882762758
     36  C         5.2042700049    3.0747152106   -0.7511259091
     37  C         4.1900615198    2.2802079504    0.1649740246
     38  O         5.0442288563    1.6911068916    1.2248314536
     39  H         5.4192620969    0.1640195789   -1.6847933017
     40  H         3.2640914580    1.1945477188   -1.6009754386
     41  H         5.3694337563   -3.9594965291   -0.6618552336
     42  H         6.7337027608    0.4339978218    0.8323219537
     43  H         7.2910577468    2.7671191167   -0.0381534237
     44  H         6.9290646352    1.8772862682   -1.5508473308
     45  H         5.3428614168    4.1009627860   -0.3761987463
     46  H         4.8586096560    3.1252407311   -1.7963497608
     47  H         3.3857715286    2.8929871926    0.6158654149
     48  H         5.6895869094   -3.5264625510    1.0562515340
     49  H         7.0739790600   -3.8091460455   -0.0744426327
     50  H        -3.7224894441   -3.9248772118   -0.0530131433
     51  H        -3.8163439077   -3.8925079273   -1.8584835396
     52  H        -5.3362583543   -3.7653540640   -0.8650103155
     53  H        -1.0571839270   -1.6281040943    1.2748914230
     54  H        -0.1308203192   -0.1605360821    1.7658777663
     55  H         1.3598496126   -1.8219404940    0.5238301789
     56  H         0.2839194558   -1.6691090110   -0.9281501788
   Point Group: c1    Number of degrees of freedom:   162


   Energy is  -1510.271681987

              Constraints and their Current Values
                                        Value     Constraint
   Dihedral:        1   2   3   4       -0.186       -0.186
   Dihedral:        3   4   5   6     -119.922     -119.922
   Dihedral:        4   5   6   7      151.370      151.370
   Dihedral:        5   6   7   8       95.892       95.892
   Dihedral:        6   7   8   9       59.643       59.643
   Dihedral:        7   8   9  10      141.673      141.673
   Dihedral:        8   9  10  11      180.000     -180.000
   Dihedral:        9  10  11  12      154.628      154.628
   Dihedral:       11  12  13  14      164.646      164.646
 Hessian Updated using BFGS Update

153 Hessian modes will be used to form the next step
  Hessian Eigenvalues:
     0.001776    0.003464    0.007506    0.014334    0.023451    0.037994
     0.045000    0.045131    0.045291    0.045922    0.046424    0.048185
     0.054054    0.054547    0.058923    0.060584    0.063656    0.066281
     0.067173    0.067417    0.067956    0.070251    0.071653    0.073197
     0.073798    0.074375    0.075995    0.076111    0.078051    0.078494
     0.082041    0.082499    0.083960    0.084267    0.084596    0.084775
     0.085597    0.086198    0.086371    0.087054    0.087513    0.087838
     0.089034    0.089287    0.089589    0.089897    0.091306    0.093490
     0.093858    0.094028    0.096575    0.096635    0.111609    0.111649
     0.112838    0.114690    0.115889    0.116124    0.116638    0.117772
     0.118468    0.120352    0.121023    0.122616    0.124026    0.129610
     0.130130    0.132480    0.154997    0.158620    0.159470    0.159999
     0.160043    0.160247    0.161318    0.162910    0.171341    0.172348
     0.195615    0.205488    0.221186    0.222462    0.227343    0.236228
     0.240040    0.241566    0.248921    0.249784    0.250065    0.252290
     0.253718    0.261125    0.261377    0.267347    0.267608    0.275616
     0.277538    0.283143    0.285350    0.295193    0.296680    0.298354
     0.301478    0.307905    0.309692    0.313037    0.319099    0.319505
     0.320996    0.321207    0.322069    0.322185    0.322440    0.322503
     0.323032    0.323230    0.323512    0.323640    0.323799    0.323831
     0.324047    0.324392    0.324591    0.324669    0.324885    0.324899
     0.324933    0.325201    0.325832    0.326166    0.326798    0.326896
     0.331751    0.342620    0.354577    0.365725    0.368700    0.379623
     0.385802    0.409481    0.426095    0.434345    0.445626    0.474049
     0.495052    0.520014    0.535185    0.578302    0.589957    0.922181
     0.929404    0.943931    1.034707

 Minimum Search - Taking Simple RFO Step
 Searching for Lamda that Minimizes Along All modes
 Value Taken    Lamda =   0.00000000
 Step Taken.  Stepsize is  0.009845

                             Maximum     Tolerance    Cnvgd?
         Gradient           0.000039      0.000300     YES
         Displacement       0.003131      0.001200      NO
         Energy change     -0.000001      0.000001     YES

 Final energy is   -1510.27168198693     


 ******************************
 **  OPTIMIZATION CONVERGED  **
 ******************************

                       Coordinates (Angstroms)
     ATOM                X               Y               Z
      1  O         3.8206419758   -1.9547856637    0.0913495300
      2  C         4.8600438734   -1.3524222204   -0.2588233360
      3  C         5.0157958561    0.1538912942   -0.6548888641
      4  C         3.6725184186    0.9846655963   -0.5977073311
      5  C         2.5627631213    0.2993280492    0.2836566841
      6  O         1.4155861357    0.0350078580   -0.5452242920
      7  C         0.6772918706   -1.1443512849   -0.0324381105
      8  C        -0.5168425809   -0.7337320093    0.8948512084
      9  O        -1.4493647892    0.1162222120    0.1145932667
     10  C        -2.8067615506   -0.1885704534    0.4572979827
     11  C        -3.7347974530    0.7429780314   -0.4013581879
     12  C        -5.1813936075    0.1600373289   -0.6449610359
     13  C        -5.3564014121   -1.3966650256   -0.5859290694
     14  O        -6.4430791916   -2.0085847015   -0.4846256258
     15  O         6.1437176745   -1.9729291371   -0.3631025823
     16  O        -4.1136798096   -2.0275152566   -0.9221200058
     17  O        -3.1428603291   -0.9924495532    1.3535744176
     18  C        -4.2610900093   -3.5000837301   -0.9238256706
     19  C        -4.1078386045    1.9818523629    0.5292831072
     20  C        -4.9591292676    3.0384891620   -0.2832379010
     21  C        -6.3855081477    2.3718027772   -0.2640466151
     22  C        -6.0464982089    0.9844242664    0.4055140362
     23  O        -5.0824271255    1.3663742374    1.4627045266
     24  H        -3.2194524560    1.0336155750   -1.3325802227
     25  H        -5.5050471475    0.4390103652   -1.6667916407
     26  H        -3.2488244990    2.4026055523    1.0874323714
     27  H        -4.9573425185    4.0139350287    0.2280113646
     28  H        -4.5700774310    3.1761615210   -1.3051290121
     29  H        -7.0846816270    2.9405435129    0.3700005853
     30  H        -6.8245540040    2.2636183549   -1.2686855819
     31  H        -6.9044477160    0.4283971065    0.8310648032
     32  O         2.6050439278    0.0726819785    1.5114241243
     33  C         6.0497890999   -3.4027137576    0.0145542300
     34  C         5.9683920699    1.0184716042    0.2859733165
     35  C         6.5125090035    2.2144717483   -0.5882762758
     36  C         5.2042700049    3.0747152106   -0.7511259091
     37  C         4.1900615198    2.2802079504    0.1649740246
     38  O         5.0442288563    1.6911068916    1.2248314536
     39  H         5.4192620969    0.1640195789   -1.6847933017
     40  H         3.2640914580    1.1945477188   -1.6009754386
     41  H         5.3694337563   -3.9594965291   -0.6618552336
     42  H         6.7337027608    0.4339978218    0.8323219537
     43  H         7.2910577468    2.7671191167   -0.0381534237
     44  H         6.9290646352    1.8772862682   -1.5508473308
     45  H         5.3428614168    4.1009627860   -0.3761987463
     46  H         4.8586096560    3.1252407311   -1.7963497608
     47  H         3.3857715286    2.8929871926    0.6158654149
     48  H         5.6895869094   -3.5264625510    1.0562515340
     49  H         7.0739790600   -3.8091460455   -0.0744426327
     50  H        -3.7224894441   -3.9248772118   -0.0530131433
     51  H        -3.8163439077   -3.8925079273   -1.8584835396
     52  H        -5.3362583543   -3.7653540640   -0.8650103155
     53  H        -1.0571839270   -1.6281040943    1.2748914230
     54  H        -0.1308203192   -0.1605360821    1.7658777663
     55  H         1.3598496126   -1.8219404940    0.5238301789
     56  H         0.2839194558   -1.6691090110   -0.9281501788

Z-matrix Print:
$molecule
0 1
O 
C  1 1.432784
O  2 1.249998 1 124.266367
C  1 1.483517 2 110.354970 3 4.528007 0
H  4 1.111870 1 109.566438 2 -98.771428 0
H  4 1.111891 1 109.581352 2 20.042610 0
C  4 1.566662 1 108.540809 2 141.672975 0
H  7 1.110141 4 109.351824 1 -57.422979 0
H  7 1.111057 4 109.375534 1 -177.294383 0
O  7 1.482874 4 112.068748 1 59.642967 0
C  10 1.439765 7 110.098103 4 95.892022 0
O  11 1.249227 10 124.019540 7 -32.074824 0
C  2 1.570453 1 107.630708 3 175.471974 0
H  13 1.103279 2 109.981812 1 26.154161 0
C  11 1.574181 10 108.620876 7 151.369980 0
H  15 1.103363 11 109.326643 10 6.108016 0
C  13 1.578544 2 114.007950 1 154.627952 0
H  17 1.107572 13 108.490740 2 -143.619933 0
C  17 1.567621 13 117.594697 2 -25.267020 0
O  19 1.251230 17 125.849225 13 164.645964 0
O  19 1.433650 17 109.351585 13 -26.369295 0
C  21 1.479929 19 110.595700 17 -177.902535 0
H  22 1.106969 21 108.282015 19 131.753832 0
H  22 1.108537 21 109.389924 19 -109.089817 0
H  22 1.108970 21 109.543571 19 11.232441 0
C  15 1.580459 11 112.990868 10 -119.921990 0
H  26 1.106160 15 109.808667 11 138.638170 0
C  26 1.565282 15 114.338391 11 19.273169 0
O  28 1.251327 26 128.075960 15 -0.186007 0
O  28 1.429588 26 108.052562 15 179.698108 0
C  30 1.481800 28 110.078105 26 179.512446 0
H  31 1.105474 30 105.992013 28 -179.156439 0
H  31 1.109141 30 111.568125 28 -59.912061 0
H  31 1.109243 30 111.579605 28 61.655486 0
C  15 1.589957 11 108.399956 10 130.527880 0
H  35 1.107106 15 114.198061 11 -43.425741 0
O  35 1.483219 15 101.922706 11 75.515127 0
C  37 1.479179 35 94.983468 15 59.850074 0
H  38 1.107162 37 111.021367 35 -177.747435 0
C  38 1.578224 37 102.849779 35 57.798439 0
H  40 1.101706 38 112.482948 37 -159.702998 0
H  40 1.101904 38 110.310686 37 78.601299 0
C  40 1.574175 38 100.655810 37 -39.135085 0
H  43 1.101346 40 111.679417 38 122.645614 0
H  43 1.102056 40 112.571322 38 -114.825600 0
C  17 1.591074 13 101.832187 2 101.891667 0
H  46 1.107401 17 114.506904 13 -147.492947 0
O  46 1.480868 17 104.536832 13 -25.729624 0
C  48 1.483210 46 94.906210 17 53.088010 0
H  49 1.107461 48 110.496713 46 178.223816 0
C  46 1.577358 17 106.997506 13 82.492789 0
H  51 1.101710 46 112.728268 17 51.491110 0
H  51 1.101964 46 110.247694 17 173.308646 0
C  51 1.574610 46 100.537936 17 -69.147512 0
H  54 1.101305 51 111.766370 46 -124.246676 0
H  54 1.102078 51 112.580216 46 113.184080 0
$end

 
 --------------------------------------------------------------
 
                    Orbital Energies (a.u.)
 --------------------------------------------------------------
 
 Alpha MOs
 -- Occupied --
-18.942 -18.930 -18.923 -18.915 -18.889 -18.885 -18.884 -18.872
-18.866 -18.865 -10.107 -10.098 -10.092 -10.091 -10.070 -10.064
-10.062 -10.059 -10.059 -10.058 -10.057 -10.055 -10.041 -10.036
-10.035 -10.034 -10.022 -10.021 -10.019 -10.018  -1.019  -1.009
 -1.002  -0.996  -0.971  -0.968  -0.944  -0.934  -0.929  -0.922
 -0.764  -0.761  -0.725  -0.721  -0.711  -0.704  -0.692  -0.667
 -0.657  -0.613  -0.597  -0.574  -0.547  -0.542  -0.538  -0.534
 -0.514  -0.507  -0.481  -0.470  -0.460  -0.454  -0.451  -0.445
 -0.435  -0.431  -0.429  -0.417  -0.412  -0.410  -0.407  -0.401
 -0.385  -0.380  -0.374  -0.362  -0.360  -0.358  -0.352  -0.348
 -0.343  -0.336  -0.331  -0.330  -0.328  -0.320  -0.318  -0.316
 -0.310  -0.305  -0.303  -0.301  -0.292  -0.288  -0.281  -0.273
 -0.267  -0.259  -0.249  -0.243  -0.235  -0.234  -0.231  -0.185
 -0.176  -0.167  -0.161  -0.157  -0.155  -0.147  -0.146  -0.140
 -0.139
 -- Virtual --
  0.092   0.101   0.105   0.112   0.228   0.239   0.243   0.253
  0.260   0.275   0.282   0.287   0.309   0.315   0.327   0.332
  0.336   0.342   0.345   0.349   0.354   0.359   0.369   0.374
  0.378   0.385   0.390   0.400   0.401   0.404   0.405   0.415
  0.418   0.419   0.420   0.422   0.426   0.428   0.430   0.432
  0.435   0.439   0.441   0.442   0.444   0.447   0.453   0.465
  0.468   0.472   0.479   0.484   0.491   0.506   0.511   0.538
  0.541   0.550   0.554   0.634   0.638   0.661   0.662
 --------------------------------------------------------------
 
          Ground-State Mulliken Net Atomic Charges

     Atom                 Charge (a.u.)
  ----------------------------------------
      1 O                    -0.212623
      2 C                     0.212641
      3 C                    -0.079585
      4 C                    -0.080554
      5 C                     0.215206
      6 O                    -0.179295
      7 C                    -0.048016
      8 C                    -0.054800
      9 O                    -0.175050
     10 C                     0.216455
     11 C                    -0.076440
     12 C                    -0.078840
     13 C                     0.215305
     14 O                    -0.216508
     15 O                    -0.169745
     16 O                    -0.171083
     17 O                    -0.214957
     18 C                    -0.135164
     19 C                     0.024657
     20 C                    -0.145277
     21 C                    -0.141939
     22 C                     0.025513
     23 O                    -0.188092
     24 H                     0.087656
     25 H                     0.084021
     26 H                     0.083452
     27 H                     0.078113
     28 H                     0.073469
     29 H                     0.078138
     30 H                     0.073226
     31 H                     0.089759
     32 O                    -0.208998
     33 C                    -0.128332
     34 C                     0.026194
     35 C                    -0.142004
     36 C                    -0.145398
     37 C                     0.025823
     38 O                    -0.184691
     39 H                     0.085469
     40 H                     0.086155
     41 H                     0.089232
     42 H                     0.087347
     43 H                     0.078462
     44 H                     0.073594
     45 H                     0.078383
     46 H                     0.073632
     47 H                     0.084093
     48 H                     0.092096
     49 H                     0.092011
     50 H                     0.087292
     51 H                     0.084681
     52 H                     0.101995
     53 H                     0.096982
     54 H                     0.089286
     55 H                     0.100768
     56 H                     0.086285
  ----------------------------------------
  Sum of atomic charges =     0.000000

 -----------------------------------------------------------------
                    Cartesian Multipole Moments
 -----------------------------------------------------------------
    Charge (ESU x 10^10)
                -0.0000
    Dipole Moment (Debye)
         X       2.7118      Y       0.2470      Z      -3.9657
       Tot       4.8106
    Quadrupole Moments (Debye-Ang)
        XX    -153.9724     XY     -11.1594     YY    -145.5640
        XZ       1.0139     YZ      -1.6595     ZZ    -164.6980
    Octopole Moments (Debye-Ang^2)
       XXX     157.3296    XXY      15.4563    XYY      21.9434
       YYY     -68.8399    XXZ     -71.2056    XYZ     -12.7640
       YYZ      -2.8863    XZZ      -6.1061    YZZ     -19.4383
       ZZZ      -7.2616
    Hexadecapole Moments (Debye-Ang^3)
      XXXX  -20560.0900   XXXY    -644.5707   XXYY   -3741.3508
      XYYY     -99.7486   YYYY   -3347.3529   XXXZ      62.4665
      XXYZ    -120.9730   XYYZ      16.8268   YYYZ     -31.0544
      XXZZ   -3620.0300   XYZZ     -16.9202   YYZZ    -698.0191
      XZZZ      15.6247   YZZZ     -78.5353   ZZZZ    -671.8301
 -----------------------------------------------------------------
Archival summary:
1\1\vega02.cac.cornell.edu\OPT\ProcedureUnspecified\STO-3G\102026\jj585\SunJan1420:16:522018SunJan1420:16:522018\0\\#,OPT,ProcedureUnspecified,STO-3G,\\0,1\O\C,1,1.43278\O,2,1.25,1,124.266\C,1,1.48352,2,110.355,3,4.52801,0\H,4,1.11187,1,109.566,2,-98.7714,0\H,4,1.11189,1,109.581,2,20.0426,0\C,4,1.56666,1,108.541,2,141.673,0\H,7,1.11014,4,109.352,1,-57.423,0\H,7,1.11106,4,109.376,1,-177.294,0\O,7,1.48287,4,112.069,1,59.643,0\C,10,1.43977,7,110.098,4,95.892,0\O,11,1.24923,10,124.02,7,-32.0748,0\C,2,1.57045,1,107.631,3,175.472,0\H,13,1.10328,2,109.982,1,26.1542,0\C,11,1.57418,10,108.621,7,151.37,0\H,15,1.10336,11,109.327,10,6.10802,0\C,13,1.57854,2,114.008,1,154.628,0\H,17,1.10757,13,108.491,2,-143.62,0\C,17,1.56762,13,117.595,2,-25.267,0\O,19,1.25123,17,125.849,13,164.646,0\O,19,1.43365,17,109.352,13,-26.3693,0\C,21,1.47993,19,110.596,17,-177.903,0\H,22,1.10697,21,108.282,19,131.754,0\H,22,1.10854,21,109.39,19,-109.09,0\H,22,1.10897,21,109.544,19,11.2324,0\C,15,1.58046,11,112.991,10,-119.922,0\H,26,1.10616,15,109.809,11,138.638,0\C,26,1.56528,15,114.338,11,19.2732,0\O,28,1.25133,26,128.076,15,-0.186007,0\O,28,1.42959,26,108.053,15,179.698,0\C,30,1.4818,28,110.078,26,179.512,0\H,31,1.10547,30,105.992,28,-179.156,0\H,31,1.10914,30,111.568,28,-59.9121,0\H,31,1.10924,30,111.58,28,61.6555,0\C,15,1.58996,11,108.4,10,130.528,0\H,35,1.10711,15,114.198,11,-43.4257,0\O,35,1.48322,15,101.923,11,75.5151,0\C,37,1.47918,35,94.9835,15,59.8501,0\H,38,1.10716,37,111.021,35,-177.747,0\C,38,1.57822,37,102.85,35,57.7984,0\H,40,1.10171,38,112.483,37,-159.703,0\H,40,1.1019,38,110.311,37,78.6013,0\C,40,1.57418,38,100.656,37,-39.1351,0\H,43,1.10135,40,111.679,38,122.646,0\H,43,1.10206,40,112.571,38,-114.826,0\C,17,1.59107,13,101.832,2,101.892,0\H,46,1.1074,17,114.507,13,-147.493,0\O,46,1.48087,17,104.537,13,-25.7296,0\C,48,1.48321,46,94.9062,17,53.088,0\H,49,1.10746,48,110.497,46,178.224,0\C,46,1.57736,17,106.998,13,82.4928,0\H,51,1.10171,46,112.728,17,51.4911,0\H,51,1.10196,46,110.248,17,173.309,0\C,51,1.57461,46,100.538,17,-69.1475,0\H,54,1.10131,51,111.766,46,-124.247,0\H,54,1.10208,51,112.58,46,113.184,0\\\@

 Total job time:  70.88s(wall), 3369.47s(cpu) 
 Sun Jan 14 20:16:52 2018

        *************************************************************
        *                                                           *
        *  Thank you very much for using Q-Chem.  Have a nice day.  *
        *                                                           *
        *************************************************************


0 sent ACK to 0 
now end server 0 ... 
