mFile = /opt/software/qchem/qchem-5.0.1//bin/mpi/machines
Process 0 of 1 is on vega02.cac.cornell.edu - thread support 0
initial socket setup ...start
initial socket setup ...done 
now start server 0 ... 
vega02.cac.cornell.edu 10.84.3
Q-Chem Developer Version! Running on 10.84.3.*
                  Welcome to Q-Chem
     A Quantum Leap Into The Future Of Chemistry


 Q-Chem 5.0, Q-Chem, Inc., Pleasanton, CA (2017)

 Yihan Shao,  Zhengting Gan,  E. Epifanovsky,  A. T. B. Gilbert,  M. Wormit,  
 J. Kussmann,  A. W. Lange,  A. Behn,  Jia Deng,  Xintian Feng,  D. Ghosh,  
 M. Goldey,  P. R. Horn,  L. D. Jacobson,  I. Kaliman,  T. Kus,  A. Landau,  
 Jie Liu,  E. I. Proynov,  R. M. Richard,  R. P. Steele,  E. J. Sundstrom,  
 H. L. Woodcock III,  P. M. Zimmerman,  D. Zuev,  B. Albrecht,  E. Alguire,  
 S. A. Baeppler,  Z. Benda,  Y. A. Bernard,  E. J. Berquist,  K. B. Bravaya,  
 D. Casanova,  Chun-Min Chang,  Yunqing Chen,  A. Chien,  K. D. Closser,  
 M. P. Coons,  S. Dasgupta,  M. Diedenhofen,  Hainam Do,  R. G. Edgar,  
 Po-Tung Fang,  S. Fatehi,  Qingguo Feng,  Qinghui Ge,  A. Ghysels,  
 J. Gomes,  J. Gonthier,  A. Gunina,  M. W. D. Hanson-Heine,  
 P. H. P. Harbach,  A. W. Hauser,  J. E. Herr,  E. G. Hohenstein,  
 Z. C. Holden,  Kerwin Hui,  T.-C. Jagau,  Hyunjun Ji,  B. Kaduk,  
 K. Khistyaev,  Jaehoon Kim,  P. Klunzinger,  K. Koh,  D. Kosenkov,  
 T. Kowalczyk,  C. M. Krauter,  A. Kunitsa,  Ka Un Lao,  A. Laurent,  
 K. V. Lawler,  Joonho Lee,  D. Lefrancois,  S. Lehtola,  D. S. Levine,  
 Yi-Pei Li,  You-Sheng Lin,  Fenglai Liu,  E. Livshits,  A. Luenser,  
 P. Manohar,  E. Mansoor,  S. F. Manzer,  Shan-Ping Mao,  Yuezhi Mao,  
 N. Mardirossian,  A. V. Marenich,  L. A. Martinez-Martinez,  S. A. Maurer,  
 N. J. Mayhall,  S. C. McKenzie,  J.-M. Mewes,  A. F. Morrison,  K. Nanda,  
 T. S. Nguyen-Beck,  R. Olivares-Amaya,  J. A. Parkhill,  T. M. Perrine,  
 F. Plasser,  S. Prager,  A. Prociuk,  D. R. Rehn,  F. Rob,  M. Schneider,  
 N. Sergueev,  S. M. Sharada,  S. Sharma,  D. W. Small,  T. Stauch,  
 T. Stein,  Yu-Chuan Su,  A. J. W. Thom,  T. Tsuchimochi,  L. Vogt,  
 O. Vydrov,  M. A. Watson,  J. Wenzel,  M. de Wergifosse,  T. A. Wesolowski,  
 A. White,  J. Witte,  A. Yamada,  Jun Yang,  K. Yao,  S. Yeganeh,  
 S. R. Yost,  Zhi-Qiang You,  A. Zech,  Igor Ying Zhang,  Xing Zhang,  
 Yan Zhao,  Ying Zhu,  B. R. Brooks,  G. K. L. Chan,  C. J. Cramer,  
 M. S. Gordon,  W. J. Hehre,  A. Klamt,  M. W. Schmidt,  C. D. Sherrill,  
 D. G. Truhlar,  A. Aspuru-Guzik,  R. Baer,  A. T. Bell,  N. A. Besley,  
 Jeng-Da Chai,  A. Dreuw,  B. D. Dunietz,  T. R. Furlani,  Chao-Ping Hsu,  
 Yousung Jung,  Jing Kong,  D. S. Lambrecht,  WanZhen Liang,  C. Ochsenfeld,  
 V. A. Rassolov,  L. V. Slipchenko,  J. E. Subotnik,  T. Van Voorhis,  
 J. M. Herbert,  A. I. Krylov,  P. M. W. Gill,  M. Head-Gordon

 Contributors to earlier versions of Q-Chem not listed above: 
 R. D. Adamson,  B. Austin,  J. Baker,  G. J. O. Beran,  K. Brandhorst,  
 S. T. Brown,  E. F. C. Byrd,  A. K. Chakraborty,  C.-L. Cheng,  
 Siu Hung Chien,  D. M. Chipman,  D. L. Crittenden,  H. Dachsel,  
 R. A. DiStasio Jr.,  R. J. Doerksen,  A. D. Dutoi,  L. Fusti-Molnar,  
 W. A. Goddard III,  A. Golubeva-Zadorozhnaya,  S. R. Gwaltney,  G. Hawkins,  
 A. Heyden,  S. Hirata,  G. Kedziora,  F. J. Keil,  C. Kelley,  Jihan Kim,  
 R. A. King,  R. Z. Khaliullin,  P. P. Korambath,  W. Kurlancheek,  
 A. M. Lee,  M. S. Lee,  S. V. Levchenko,  Ching Yeh Lin,  D. Liotard,  
 R. C. Lochan,  I. Lotan,  P. E. Maslen,  N. Nair,  D. P. O'Neill,  
 D. Neuhauser,  E. Neuscamman,  C. M. Oana,  R. Olson,  B. Peters,  
 R. Peverati,  P. A. Pieniazek,  Y. M. Rhee,  J. Ritchie,  M. A. Rohrdanz,  
 E. Rosta,  N. J. Russ,  H. F. Schaefer III,  N. E. Schultz,  N. Shenvi,  
 A. C. Simmonett,  A. Sodt,  D. Stuck,  K. S. Thanthiriwatte,  V. Vanovschi,  
 Tao Wang,  A. Warshel,  C. F. Williams,  Q. Wu,  X. Xu,  W. Zhang

 Please cite Q-Chem as follows:
 Y. Shao et al., Mol. Phys. 113, 184-215 (2015)
 DOI: 10.1080/00268976.2014.952696

 Q-Chem 5.0.1 for Intel X86 EM64T Linux

 Parts of Q-Chem use Armadillo 5.200.1 (Boston Tea Smuggler).
 http://arma.sourceforge.net/

 Q-Chem begins on Sun Jan 14 20:32:39 2018  

Host: vega02.cac.cornell.edu
0

     Scratch files written to /scratch/jj585/SOT1001/0553c.save//
 Parallel job on  1  processors

Checking the input file for inconsistencies... 	...done.

--------------------------------------------------------------
User input:
--------------------------------------------------------------
$molecule
0  1
O -3.94934 -3.66094 2.70899
C -3.26408 -4.56952 2.26188
C -3.36658 -6.02376 2.66595
C -2.27333 -6.57303 3.59705
C -1.29943 -5.56331 4.16282
O -0.38374 -5.21763 3.21023
C 0.5678 -4.25116 3.66823
C 1.7596 -4.19577 2.71814
O 1.32861 -3.76706 1.41685
C 1.84193 -2.58574 0.99243
C 1.35164 -2.19039 -0.38014
C 0.5274 -0.89544 -0.42495
C 0.61347 -0.01449 0.80518
O 0.1037 1.09044 0.92279
O -2.32349 -4.28517 1.32981
O 1.17962 -0.43832 1.96433
O 2.89449 -2.12994 1.43332
C 1.24247 0.26495 3.15256
C 2.48415 -1.8392 -1.36809
C 1.98876 -2.00487 -2.80428
C 1.03183 -0.83504 -2.90913
C 1.27392 -0.16036 -1.55372
O 2.62152 -0.44424 -1.26379
H 0.79042 -3.05149 -0.80772
H -0.54803 -1.05055 -0.65138
H 3.40781 -2.43773 -1.20902
H 2.86035 -1.81154 -3.47025
H 1.55397 -2.9969 -3.05258
H 1.36827 -0.18117 -3.74413
H -0.03809 -1.10592 -3.04207
H 1.00628 0.91832 -1.60686
O -1.27292 -5.18725 5.33053
C -2.09641 -3.02751 0.82249
C -4.61694 -6.2806 3.53959
C -5.01398 -7.7547 3.4708
C -3.91105 -8.37871 4.29435
C -3.15607 -7.12211 4.73902
O -4.15836 -6.1459 4.85973
H -3.48439 -6.60787 1.72586
H -1.67652 -7.39723 3.14611
H -1.74737 -2.34411 1.62619
H -5.48874 -5.64966 3.25836
H -5.97427 -7.86665 4.02375
H -5.13186 -8.1634 2.44418
H -4.37126 -8.88171 5.17402
H -3.25486 -9.09188 3.75011
H -2.57452 -7.34264 5.66146
H -3.02127 -2.62707 0.35507
H -1.32215 -3.10843 0.0424
H 1.76725 -0.35187 3.91072
H 0.21798 0.48606 3.52097
H 1.80562 1.21144 3.00817
H 2.51398 -3.53144 3.19561
H 2.21902 -5.20355 2.63199
H 0.99301 -4.56285 4.65094
H 0.09253 -3.25048 3.77344
$end

$opt
CONSTRAINT
tors           1           2           3           4    -104.211
tors           3           4           5           6     -77.128
tors           4           5           6           7    +179.402
tors           5           6           7           8    +164.583
tors           6           7           8           9     +62.666
tors           7           8           9          10    +116.283
tors           8           9          10          11    -180.000
tors           9          10          11          12    +116.779
tors          11          12          13          14    +174.902
ENDCONSTRAINT
$end

$rem
JOBTYPE                   OPT
METHOD                    B3LYP
DFT_D                     d3_op
BASIS                     STO-3G
GEOM_OPT_MAX_CYCLES       100
GEOM_OPT_TOL_GRADIENT     300
GEOM_OPT_TOL_DISPLACEMENT 1200
GEOM_OPT_TOL_ENERGY       100
SYMMETRY                  False
THRESH                    12
SCF_CONVERGENCE           8
MAX_SUB_FILE_NUM          128
MEM_STATIC                400
MEM_TOTAL                 4000
$end
--------------------------------------------------------------
 Adding empirical dispersion correction 
 ----------------------------------------------------------------
 Doing -D3(op) with
 s6 =   1.00000
 s8 =   0.78311
 a1 =   0.30000
 a2 =   4.25000
 n  =  10.00000
 -D3 energy without 3body term =     -0.0695587468 hartrees
 ----------------------------------------------------------------
             Standard Nuclear Orientation (Angstroms)
    I     Atom           X                Y                Z
 ----------------------------------------------------------------
    1      O      -2.5257239371     1.2954839965     2.0160035347
    2      C      -2.4930398004     1.3112718229     0.7938379453
    3      C      -3.6933788325     1.1693660446    -0.1159102345
    4      C      -3.8858408982    -0.1841999377    -0.8192293585
    5      C      -2.9575478783    -1.3014901237    -0.3972742771
    6      O      -1.7290077333    -1.1241507010    -0.9670552772
    7      C      -0.7873937431    -2.1388874354    -0.6024608645
    8      C       0.4115326721    -2.1063798441    -1.5446100075
    9      O       1.0933504194    -0.8478443110    -1.4258111038
   10      C       2.3643177198    -0.9151403766    -0.9575589687
   11      C       3.0262504388     0.4384114666    -0.8556924150
   12      C       3.4098485370     0.8658669960     0.5685299292
   13      C       3.4103248408    -0.2341016447     1.6110123161
   14      O       3.7708153627    -0.1096879138     2.7725353150
   15      O      -1.3000431243     1.4622662444     0.1707179159
   16      O       2.8808370505    -1.4615205587     1.3725340080
   17      O       3.0431355147    -1.9359207072    -1.0426125029
   18      C       2.7743179781    -2.4998924286     2.2785510582
   19      C       4.4009354047     0.5128301007    -1.5533037898
   20      C       4.7298299279     1.9652444230    -1.8965537660
   21      C       4.9864295247     2.5303842029    -0.5145318948
   22      C       4.8807281424     1.2535979257     0.3278343906
   23      O       5.3278713176     0.2347309886    -0.5339348156
   24      H       2.3620938930     1.1854472907    -1.3457121237
   25      H       2.8042380689     1.7058194599     0.9680235602
   26      H       4.4666352135    -0.1214300212    -2.4643948139
   27      H       5.6907669407     1.9537726392    -2.4596080382
   28      H       3.9639674525     2.5043115941    -2.4946173151
   29      H       6.0213076068     2.9382672693    -0.4895997872
   30      H       4.2623456381     3.3021007242    -0.1740411309
   31      H       5.4494123510     1.3699501188     1.2770793588
   32      O      -3.2858459635    -2.2752835146     0.2732608427
   33      C      -0.1029980398     1.6270222968     0.8269085082
   34      C      -5.0176418298     1.2490959194     0.6794415278
   35      C      -6.1629847802     1.6617395380    -0.2442783462
   36      C      -6.3441102893     0.3937991856    -1.0465242437
   37      C      -5.3217467957    -0.5153932116    -0.3573857663
   38      O      -5.3294535790    -0.0864776218     0.9798180830
   39      H      -3.6661839346     2.0341267435    -0.8161118250
   40      H      -3.8477073009    -0.1189154099    -1.9296880290
   41      H       0.1354891418     0.7233444514     1.4279812055
   42      H      -4.9712376509     1.9465425786     1.5446730843
   43      H      -7.0657339036     1.8098283295     0.3909831110
   44      H      -5.9791911897     2.5811208400    -0.8407998851
   45      H      -7.3753161737     0.0127947397    -0.8731126258
   46      H      -6.1532963162     0.4884764336    -2.1374047087
   47      H      -5.5923334542    -1.5804716349    -0.5309376306
   48      H      -0.1424160533     2.5229026471     1.4826861289
   49      H       0.6822122685     1.7869276697     0.0703095090
   50      H       2.2977842934    -3.3683310833     1.7791539251
   51      H       2.1421853780    -2.1934364131     3.1391836202
   52      H       3.7818453000    -2.8006731355     2.6366702798
   53      H       1.0348751656    -2.9934832425    -1.2938255772
   54      H       0.0689517976    -2.2332999201    -2.5937233122
   55      H      -1.2370814351    -3.1503401533    -0.7381720415
   56      H      -0.4680895150    -2.0169892457     0.4565466050
 ----------------------------------------------------------------
 Molecular Point Group                 C1    NOp =  1
 Largest Abelian Subgroup              C1    NOp =  1
 Nuclear Repulsion Energy =  3235.8055784591 hartrees
 There are      113 alpha and      113 beta electrons
 Requested basis set is STO-3G
 There are 86 shells and 176 basis functions

 Total QAlloc Memory Limit   4000 MB
 Mega-Array Size       392 MB
 MEM_STATIC part       400 MB
 A cutoff of  1.0D-12 yielded   2268 shell pairs
 There are     10659 function pairs
 
 -------------------------------------------------------
 OpenMP Integral Computing Module                       
 Release: version 1.0, May 2013, Q-Chem Inc. Pittsburgh 
 -------------------------------------------------------
 Integral Job Info:
 Integral job number is                      11
 Integral operator is                         1
 short-range coefficients                     0
 long-range coefficients              100000000
 Omega coefficients                           0
 if combine SR and LR in K                    0
 Integral screening is                        0
 Integral computing path is                   2
 max size of driver memory is            800000
 size of driver memory is                 45569
 size of scratch memory is              1046100
 max col of scratch BK array                289
 max len of scratch array in speh3           22
 max len of scratch index in speh4            8
 max int batch size is                      520
 min int batch size is                       52
 fixed nKL is                                52
 max L of basis functions is                  1
 order of int derivative is                   0
 number of shells is                         86
 number of basis is                         176
 number of cartesian basis is               176
 number of contracted shell pairs          2268
 number of primitive shell pairs          11598
 maxK2 (contraction) of shell pair            9
 max number of K2 of shell pair               1
 max number of CS2 of shell pair            335
 max number of PS2 of shell pair           1266
 mem total for path MDJ                   51530
 -------------------------------------------------------
 Smallest overlap matrix eigenvalue = 1.93E-01

 Scale SEOQF with 1.000000e-02/1.000000e-01/1.000000e-01

 Standard Electronic Orientation quadrupole field applied
 Nucleus-field energy     =     0.0000000090 hartrees
 Guess from superposition of atomic densities
 Warning:  Energy on first SCF cycle will be non-variational
 A restricted hybrid HF-DFT SCF calculation will be
 performed using Pulay DIIS extrapolation
 Exchange:     0.2000 Hartree-Fock + 0.0800 Slater + 0.7200 B88
 Correlation:  0.1900 VWN1RPA + 0.8100 LYP
 Using SG-1 standard quadrature grid
 Dispersion:   Grimme D3
 SCF converges when DIIS error is below 1.0E-08
 using 48 threads for integral computing
 -------------------------------------------------------
 OpenMP Integral computing Module                
 Release: version 1.0, May 2013, Q-Chem Inc. Pittsburgh 
 -------------------------------------------------------
 -------------------------------------------------------
 OpenMP BLAS3 based DFT computing Module                
 Release: version 1.0, May 2013, Q-Chem Inc. Pittsburgh 
 -------------------------------------------------------
 ---------------------------------------
  Cycle       Energy         DIIS Error
 ---------------------------------------
    1   -1509.4790796345      8.30E-02
    2   -1509.5602607997      1.07E-02
    3   -1507.1803899180      2.74E-02
    4   -1510.0666316054      3.93E-03
    5   -1510.1248422248      1.46E-03
    6   -1510.1327704473      5.72E-04
    7   -1510.1341277235      1.45E-04
    8   -1510.1342144698      3.39E-05
    9   -1510.1342191991      9.29E-06
   10   -1510.1342195430      3.84E-06
   11   -1510.1342196072      8.89E-07
   12   -1510.1342196106      2.03E-07
   13   -1510.1342196108      1.02E-07
   14   -1510.1342196108      4.14E-08
   15   -1510.1342196109      7.25E-09 Convergence criterion met
 ---------------------------------------
 SCF time:  CPU 113.55 s  wall 2.43 s
 SCF   energy in the final basis set = -1510.13421961
 Total energy in the final basis set = -1510.13421961
 
 --------------------------------------------------------------
 
                    Orbital Energies (a.u.)
 --------------------------------------------------------------
 
 Alpha MOs
 -- Occupied --
-18.948 -18.947 -18.934 -18.925 -18.903 -18.897 -18.870 -18.856
-18.851 -18.848 -10.112 -10.111 -10.111 -10.108 -10.088 -10.087
-10.084 -10.082 -10.073 -10.071 -10.065 -10.064 -10.052 -10.041
-10.040 -10.038 -10.021 -10.020 -10.015 -10.014  -1.051  -1.048
 -1.044  -1.039  -1.028  -1.023  -0.956  -0.948  -0.945  -0.936
 -0.789  -0.783  -0.751  -0.746  -0.737  -0.724  -0.718  -0.685
 -0.681  -0.638  -0.613  -0.592  -0.564  -0.551  -0.542  -0.536
 -0.526  -0.522  -0.508  -0.499  -0.488  -0.478  -0.467  -0.465
 -0.453  -0.447  -0.443  -0.433  -0.429  -0.428  -0.423  -0.420
 -0.409  -0.405  -0.394  -0.389  -0.380  -0.370  -0.366  -0.360
 -0.358  -0.349  -0.345  -0.342  -0.336  -0.330  -0.327  -0.316
 -0.315  -0.310  -0.308  -0.305  -0.305  -0.295  -0.291  -0.277
 -0.276  -0.255  -0.246  -0.239  -0.234  -0.224  -0.218  -0.187
 -0.175  -0.172  -0.166  -0.157  -0.156  -0.151  -0.142  -0.141
 -0.131
 -- Virtual --
  0.108   0.109   0.116   0.117   0.231   0.240   0.265   0.272
  0.290   0.294   0.321   0.330   0.335   0.341   0.343   0.350
  0.360   0.369   0.376   0.382   0.386   0.390   0.394   0.395
  0.399   0.402   0.404   0.406   0.409   0.416   0.420   0.424
  0.427   0.431   0.433   0.440   0.441   0.448   0.450   0.457
  0.458   0.465   0.469   0.471   0.476   0.480   0.482   0.489
  0.490   0.494   0.501   0.524   0.530   0.548   0.549   0.561
  0.561   0.582   0.583   0.677   0.681   0.689   0.699
 --------------------------------------------------------------
 
          Ground-State Mulliken Net Atomic Charges

     Atom                 Charge (a.u.)
  ----------------------------------------
      1 O                    -0.234128
      2 C                     0.234660
      3 C                    -0.081511
      4 C                    -0.081838
      5 C                     0.229924
      6 O                    -0.184138
      7 C                    -0.034599
      8 C                    -0.036380
      9 O                    -0.188459
     10 C                     0.236073
     11 C                    -0.084623
     12 C                    -0.079701
     13 C                     0.235457
     14 O                    -0.242101
     15 O                    -0.208784
     16 O                    -0.214042
     17 O                    -0.230337
     18 C                    -0.093652
     19 C                     0.042830
     20 C                    -0.142515
     21 C                    -0.144001
     22 C                     0.040953
     23 O                    -0.208213
     24 H                     0.082171
     25 H                     0.091841
     26 H                     0.087785
     27 H                     0.076965
     28 H                     0.072694
     29 H                     0.077831
     30 H                     0.071593
     31 H                     0.090789
     32 O                    -0.223338
     33 C                    -0.097960
     34 C                     0.041905
     35 C                    -0.143081
     36 C                    -0.144592
     37 C                     0.041843
     38 O                    -0.207761
     39 H                     0.086598
     40 H                     0.086049
     41 H                     0.085188
     42 H                     0.088869
     43 H                     0.075647
     44 H                     0.070777
     45 H                     0.075447
     46 H                     0.070165
     47 H                     0.087022
     48 H                     0.085087
     49 H                     0.093445
     50 H                     0.093848
     51 H                     0.086289
     52 H                     0.091869
     53 H                     0.102659
     54 H                     0.092037
     55 H                     0.091121
     56 H                     0.088328
  ----------------------------------------
  Sum of atomic charges =    -0.000000

 -----------------------------------------------------------------
                    Cartesian Multipole Moments
 -----------------------------------------------------------------
    Charge (ESU x 10^10)
                -0.0000
    Dipole Moment (Debye)
         X      -0.5455      Y       1.8634      Z      -3.4867
       Tot       3.9908
    Quadrupole Moments (Debye-Ang)
        XX    -169.9760     XY       1.7455     YY    -152.0396
        XZ       7.7420     YZ      -0.9933     ZZ    -165.7231
    Octopole Moments (Debye-Ang^2)
       XXX     -68.2203    XXY      66.6774    XYY      14.0391
       YYY     -24.9764    XXZ     -61.5162    XYZ     -22.6538
       YYZ       8.9544    XZZ       6.6527    YZZ     -22.2557
       ZZZ     -20.9475
    Hexadecapole Moments (Debye-Ang^3)
      XXXX  -14171.5408   XXXY      29.3665   XXYY   -2698.1743
      XYYY     -73.7391   YYYY   -2214.0595   XXXZ     114.7003
      XXYZ      -7.6414   XYYZ      54.7730   YYYZ      22.1960
      XXZZ   -2707.4820   XYZZ     -23.2003   YYZZ    -610.1089
      XZZZ     -69.5182   YZZZ      -4.6599   ZZZZ   -1647.5404
 -----------------------------------------------------------------
 Calculating analytic gradient of the SCF energy
 Gradient of SCF Energy
            1           2           3           4           5           6
    1   0.0134102  -0.0049987  -0.0057894   0.0058943   0.0166291  -0.0294210
    2   0.0013190   0.0064304  -0.0387248  -0.0076563  -0.0002916  -0.0376334
    3  -0.0704662  -0.0253944   0.0333617   0.0467296  -0.0051200   0.0320042
            7           8           9          10          11          12
    1   0.0032941  -0.0035498   0.0566171  -0.0470999   0.0431884   0.0219263
    2   0.0324496   0.0222087  -0.0404291   0.0097509  -0.0431944  -0.0143145
    3  -0.0159819   0.0131167   0.0083620   0.0212101   0.0095648   0.0001474
           13          14          15          16          17          18
    1   0.0069851  -0.0411458   0.0225184   0.0470818  -0.0244677  -0.0087334
    2   0.0191767  -0.0435638   0.0016959   0.0058140   0.0554399   0.0179145
    3  -0.0440598  -0.0730847   0.1222897   0.1303181  -0.0030059  -0.0483806
           19          20          21          22          23          24
    1   0.0227854  -0.0034987  -0.0075971  -0.0187270  -0.0620730   0.0001362
    2   0.0198325  -0.0239757  -0.0456529  -0.0374788   0.0599069   0.0035624
    3   0.0644570   0.0459662  -0.0128836  -0.0609859  -0.0088964  -0.0078498
           25          26          27          28          29          30
    1  -0.0020835  -0.0052967   0.0110750  -0.0043958   0.0104106  -0.0067896
    2   0.0037288   0.0075197  -0.0025605   0.0054667  -0.0006443   0.0029945
    3   0.0026980  -0.0104960   0.0009938  -0.0043616  -0.0082133   0.0050368
           31          32          33          34          35          36
    1  -0.0015421   0.0079666  -0.0342159  -0.0112118   0.0269002   0.0302713
    2   0.0123160   0.0395049  -0.0063211  -0.0681521  -0.0447736   0.0093928
    3   0.0037328  -0.0296870  -0.0481222  -0.0291822   0.0024078   0.0385836
           37          38          39          40          41          42
    1   0.0138696   0.0137455  -0.0024542  -0.0034549  -0.0073319  -0.0047213
    2   0.0575280   0.0414201   0.0096632  -0.0053587  -0.0022007   0.0130933
    3   0.0453749  -0.0749484   0.0039538  -0.0062021  -0.0052415  -0.0052377
           43          44          45          46          47          48
    1  -0.0079287   0.0004892  -0.0095196   0.0039969  -0.0057080  -0.0061687
    2  -0.0061593   0.0065556   0.0023724  -0.0007189  -0.0006525   0.0009532
    3   0.0062948  -0.0048080   0.0086305  -0.0075854  -0.0134889  -0.0074249
           49          50          51          52          53          54
    1  -0.0016565  -0.0003431  -0.0014996   0.0008938  -0.0092275   0.0004283
    2   0.0017744  -0.0026186   0.0050017   0.0045543  -0.0059344  -0.0024760
    3   0.0040486   0.0039230  -0.0074857  -0.0074559   0.0008737   0.0007354
           55          56
    1   0.0029547  -0.0008173
    2  -0.0002039   0.0023494
    3  -0.0086248  -0.0001405
 Max gradient component =       1.303E-01
 RMS gradient           =       2.852E-02
 Gradient time:  CPU 31.82 s  wall 0.68 s
 Geometry Optimization Parameters
   NAtoms,    NIC,     NZ,  NCons,   NDum,   NFix, NCnnct, MaxDiis
       56     458       0       9       0       0       0       0


** CONSTRAINED OPTIMIZATION IN DELOCALIZED INTERNAL COORDINATES **
   Searching for a Minimum

   Optimization Cycle:   1

                       Coordinates (Angstroms)
     ATOM                X               Y               Z
      1  O        -2.5257239371    1.2954839965    2.0160035347
      2  C        -2.4930398004    1.3112718229    0.7938379453
      3  C        -3.6933788325    1.1693660446   -0.1159102345
      4  C        -3.8858408982   -0.1841999377   -0.8192293585
      5  C        -2.9575478783   -1.3014901237   -0.3972742771
      6  O        -1.7290077333   -1.1241507010   -0.9670552772
      7  C        -0.7873937431   -2.1388874354   -0.6024608645
      8  C         0.4115326721   -2.1063798441   -1.5446100075
      9  O         1.0933504194   -0.8478443110   -1.4258111038
     10  C         2.3643177198   -0.9151403766   -0.9575589687
     11  C         3.0262504388    0.4384114666   -0.8556924150
     12  C         3.4098485370    0.8658669960    0.5685299292
     13  C         3.4103248408   -0.2341016447    1.6110123161
     14  O         3.7708153627   -0.1096879138    2.7725353150
     15  O        -1.3000431243    1.4622662444    0.1707179159
     16  O         2.8808370505   -1.4615205587    1.3725340080
     17  O         3.0431355147   -1.9359207072   -1.0426125029
     18  C         2.7743179781   -2.4998924286    2.2785510582
     19  C         4.4009354047    0.5128301007   -1.5533037898
     20  C         4.7298299279    1.9652444230   -1.8965537660
     21  C         4.9864295247    2.5303842029   -0.5145318948
     22  C         4.8807281424    1.2535979257    0.3278343906
     23  O         5.3278713176    0.2347309886   -0.5339348156
     24  H         2.3620938930    1.1854472907   -1.3457121237
     25  H         2.8042380689    1.7058194599    0.9680235602
     26  H         4.4666352135   -0.1214300212   -2.4643948139
     27  H         5.6907669407    1.9537726392   -2.4596080382
     28  H         3.9639674525    2.5043115941   -2.4946173151
     29  H         6.0213076068    2.9382672693   -0.4895997872
     30  H         4.2623456381    3.3021007242   -0.1740411309
     31  H         5.4494123510    1.3699501188    1.2770793588
     32  O        -3.2858459635   -2.2752835146    0.2732608427
     33  C        -0.1029980398    1.6270222968    0.8269085082
     34  C        -5.0176418298    1.2490959194    0.6794415278
     35  C        -6.1629847802    1.6617395380   -0.2442783462
     36  C        -6.3441102893    0.3937991856   -1.0465242437
     37  C        -5.3217467957   -0.5153932116   -0.3573857663
     38  O        -5.3294535790   -0.0864776218    0.9798180830
     39  H        -3.6661839346    2.0341267435   -0.8161118250
     40  H        -3.8477073009   -0.1189154099   -1.9296880290
     41  H         0.1354891418    0.7233444514    1.4279812055
     42  H        -4.9712376509    1.9465425786    1.5446730843
     43  H        -7.0657339036    1.8098283295    0.3909831110
     44  H        -5.9791911897    2.5811208400   -0.8407998851
     45  H        -7.3753161737    0.0127947397   -0.8731126258
     46  H        -6.1532963162    0.4884764336   -2.1374047087
     47  H        -5.5923334542   -1.5804716349   -0.5309376306
     48  H        -0.1424160533    2.5229026471    1.4826861289
     49  H         0.6822122685    1.7869276697    0.0703095090
     50  H         2.2977842934   -3.3683310833    1.7791539251
     51  H         2.1421853780   -2.1934364131    3.1391836202
     52  H         3.7818453000   -2.8006731355    2.6366702798
     53  H         1.0348751656   -2.9934832425   -1.2938255772
     54  H         0.0689517976   -2.2332999201   -2.5937233122
     55  H        -1.2370814351   -3.1503401533   -0.7381720415
     56  H        -0.4680895150   -2.0169892457    0.4565466050
   Point Group: c1    Number of degrees of freedom:   162


   Energy is  -1510.134219611

              Constraints and their Current Values
                                        Value     Constraint
   Dihedral:        1   2   3   4     -104.211     -104.211
   Dihedral:        3   4   5   6      -77.128      -77.128
   Dihedral:        4   5   6   7      179.402      179.402
   Dihedral:        5   6   7   8      164.583      164.583
   Dihedral:        6   7   8   9       62.666       62.666
   Dihedral:        7   8   9  10      116.283      116.283
   Dihedral:        8   9  10  11     -180.000     -180.000
   Dihedral:        9  10  11  12      116.779      116.779
   Dihedral:       11  12  13  14      174.902      174.902

 Attempting to Generate Delocalized Internal Coordinates

   Using Lagrange Multiplier Algorithm


169 Hessian modes will be used to form the next step
  Hessian Eigenvalues:
    -0.977753   -0.977753   -0.977753   -0.977753   -0.977753   -0.977753
    -0.977753   -0.977753    0.045000    0.045000    0.045000    0.045000
     0.045000    0.045120    0.045134    0.045569    0.045591    0.047423
     0.048886    0.048902    0.054640    0.059991    0.060095    0.062867
     0.062966    0.066675    0.067103    0.067123    0.067379    0.070368
     0.071157    0.072082    0.073070    0.073568    0.075791    0.076173
     0.076672    0.076717    0.082553    0.082583    0.084082    0.084387
     0.084635    0.084960    0.085933    0.086575    0.087056    0.087156
     0.087212    0.087491    0.088708    0.088887    0.089073    0.089116
     0.089702    0.089897    0.093950    0.094082    0.096605    0.096644
     0.111529    0.111547    0.114356    0.114595    0.116019    0.116759
     0.116781    0.116933    0.117319    0.118594    0.118657    0.121796
     0.122455    0.129508    0.130341    0.130774    0.139172    0.139197
     0.160000    0.160000    0.160000    0.160000    0.160000    0.160000
     0.171118    0.171807    0.172135    0.172377    0.220250    0.221325
     0.231543    0.238693    0.240582    0.248910    0.249482    0.249999
     0.250000    0.250000    0.250000    0.250000    0.250000    0.250000
     0.250000    0.250000    0.258247    0.258847    0.267077    0.267278
     0.278728    0.280727    0.281028    0.283832    0.295088    0.296280
     0.298745    0.308054    0.310698    0.310856    0.313327    0.320555
     0.322005    0.322060    0.322602    0.322814    0.322814    0.322914
     0.323017    0.323060    0.323203    0.323223    0.323333    0.323577
     0.323823    0.324254    0.324435    0.324679    0.324708    0.324717
     0.325001    0.325003    0.325044    0.325177    0.326105    0.326685
     0.334538    0.369123    0.371449    0.384475    0.387464    0.401001
     0.407713    0.487054    0.500262    0.517922    0.533822    0.537331
     0.541019    0.915761    0.923234    0.941950    0.942731    1.022753
     1.022753    1.022753    1.022753    1.022753    1.022753    1.022753
     1.022753

 Minimum Search - Taking P-RFO Step
 Searching for Lamda that Maximizes Along the Constraint modes Only
 Value Taken    Lamda =   0.00064740
 Searching for Lamda that Minimizes Along All other modes
 Value Taken    Lamda =  -0.18194135
 Calculated Step too Large.  Step scaled by  0.504385
 Step Taken.  Stepsize is  0.300000

                             Maximum     Tolerance    Cnvgd?
         Gradient            0.128138       0.000300      NO
         Displacement        0.108673       0.001200      NO
         Energy change     *********       0.000001      NO


 New Cartesian Coordinates Obtained by Inverse Iteration

 Displacement from previous Coordinates is:  1.324317
 Adding empirical dispersion correction 
 ----------------------------------------------------------------
 Doing -D3(op) with
 s6 =   1.00000
 s8 =   0.78311
 a1 =   0.30000
 a2 =   4.25000
 n  =  10.00000
 -D3 energy without 3body term =     -0.0687343418 hartrees
 ----------------------------------------------------------------
             Standard Nuclear Orientation (Angstroms)
    I     Atom           X                Y                Z
 ----------------------------------------------------------------
    1      O      -2.5709713582     1.2117627156     2.0739287546
    2      C      -2.5451060832     1.2704376726     0.8360675518
    3      C      -3.7608807608     1.1670718446    -0.0877366536
    4      C      -3.9526077886    -0.1800208656    -0.8398417508
    5      C      -3.0034228052    -1.3160230218    -0.4349210014
    6      O      -1.7565763022    -1.1091819424    -1.0062853396
    7      C      -0.8021517340    -2.1393203264    -0.6545480156
    8      C       0.4122661175    -2.0753765975    -1.6019975595
    9      O       1.1040115137    -0.8107540589    -1.4643880924
   10      C       2.3973338209    -0.9230516677    -0.9895517864
   11      C       3.0787947911     0.4448312252    -0.8647943875
   12      C       3.4900911238     0.8846350654     0.5772908100
   13      C       3.4790570879    -0.1962812940     1.6675368516
   14      O       3.8689810821    -0.0099309951     2.8329223633
   15      O      -1.3608668124     1.4339342688     0.1579600820
   16      O       2.8966105073    -1.4175467178     1.4049697398
   17      O       3.0523658323    -1.9754650674    -1.0847408789
   18      C       2.7862972897    -2.4237570232     2.3791533814
   19      C       4.4690702793     0.4845801763    -1.5787857447
   20      C       4.8189313729     1.9491301228    -1.9387646374
   21      C       5.0986134045     2.5301384078    -0.5450840638
   22      C       4.9855773906     1.2471934363     0.3223777672
   23      O       5.4177833646     0.1906380024    -0.5451340456
   24      H       2.4239457593     1.1995155713    -1.3486627462
   25      H       2.9025637279     1.7377113143     0.9687124823
   26      H       4.5184787269    -0.1620622290    -2.4795679364
   27      H       5.7683603096     1.9231933384    -2.5112877347
   28      H       4.0561604942     2.4889895493    -2.5321995642
   29      H       6.1327829205     2.9266185289    -0.5252402474
   30      H       4.3893642659     3.3115017731    -0.2092180006
   31      H       5.5613531596     1.3586634145     1.2656376857
   32      O      -3.3196860476    -2.3200636912     0.2186482923
   33      C      -0.1488131820     1.5626460662     0.8521505814
   34      C      -5.0981529629     1.2286364454     0.7213443774
   35      C      -6.2472049830     1.6765861325    -0.2158362762
   36      C      -6.4288293888     0.4112572253    -1.0683326089
   37      C      -5.4051581692    -0.5358893120    -0.3863856164
   38      O      -5.4200357545    -0.1391911653     0.9882342160
   39      H      -3.7293709215     2.0468763097    -0.7644589247
   40      H      -3.9089813532    -0.0808288816    -1.9445279611
   41      H       0.0884149956     0.6380707853     1.4237726812
   42      H      -5.0472427536     1.8917972035     1.6102826174
   43      H      -7.1512050013     1.8169208317     0.4108251523
   44      H      -6.0520592404     2.6072013433    -0.7826747894
   45      H      -7.4579310394     0.0274328848    -0.9225037888
   46      H      -6.2274685673     0.5364837958    -2.1498754093
   47      H      -5.6684561190    -1.5965861144    -0.5825807168
   48      H      -0.1728449337     2.4292722545     1.5496866149
   49      H       0.6439764299     1.7424885704     0.1052056624
   50      H       2.2848024861    -3.2981854227     1.9165009512
   51      H       2.1751017507    -2.0794266491     3.2430090521
   52      H       3.7885216313    -2.7392027933     2.7440856261
   53      H       1.0520526216    -2.9568517928    -1.3731787539
   54      H       0.0706661846    -2.1808431689    -2.6541065901
   55      H      -1.2515910166    -3.1491012560    -0.8027661115
   56      H      -0.4854241539    -2.0381701310     0.4074737257
 ----------------------------------------------------------------
 Molecular Point Group                 C1    NOp =  1
 Largest Abelian Subgroup              C1    NOp =  1
 Nuclear Repulsion Energy =  3195.7396959669 hartrees
 There are      113 alpha and      113 beta electrons
 Applying Cartesian multipole field
    Component          Value
    ---------          -----
     (2,0,0)        1.00000E-12
     (0,2,0)        2.00000E-11
     (0,0,2)       -3.00000E-11
 Nucleus-field energy     =     0.0000000066 hartrees
 Requested basis set is STO-3G
 There are 86 shells and 176 basis functions
 A cutoff of  1.0D-12 yielded   2239 shell pairs
 There are     10507 function pairs
 Smallest overlap matrix eigenvalue = 2.01E-01
 Guess MOs from SCF MO coefficient file
 Reading MOs from coefficient file
 Reading MOs from coefficient file
 A restricted hybrid HF-DFT SCF calculation will be
 performed using Pulay DIIS extrapolation
 Exchange:     0.2000 Hartree-Fock + 0.0800 Slater + 0.7200 B88
 Correlation:  0.1900 VWN1RPA + 0.8100 LYP
 Using SG-1 standard quadrature grid
 Dispersion:   Grimme D3
 SCF converges when DIIS error is below 1.0E-08
 Geometry optimization detected.  Setting ReadMinima to 0
 Setting SaveMinima to 0
 using 48 threads for integral computing
 -------------------------------------------------------
 OpenMP Integral computing Module                
 Release: version 1.0, May 2013, Q-Chem Inc. Pittsburgh 
 -------------------------------------------------------
 -------------------------------------------------------
 OpenMP BLAS3 based DFT computing Module                
 Release: version 1.0, May 2013, Q-Chem Inc. Pittsburgh 
 -------------------------------------------------------
 ---------------------------------------
  Cycle       Energy         DIIS Error
 ---------------------------------------
    1   -1510.0321311572      3.44E-03
    2   -1510.2031733441      9.94E-04
    3   -1510.1943889531      1.76E-03
    4   -1510.2071105834      3.37E-04
    5   -1510.2076176768      6.00E-05
    6   -1510.2076304827      3.09E-05
    7   -1510.2076339686      1.32E-05
    8   -1510.2076347572      2.09E-06
    9   -1510.2076347804      5.46E-07
   10   -1510.2076347816      2.34E-07
   11   -1510.2076347819      1.24E-07
   12   -1510.2076347820      3.54E-08
   13   -1510.2076347821      1.11E-08
   14   -1510.2076347820      4.37E-09 Convergence criterion met
 ---------------------------------------
 SCF time:  CPU 96.99 s  wall 2.03 s
 SCF   energy in the final basis set = -1510.20763478
 Total energy in the final basis set = -1510.20763478
 
 --------------------------------------------------------------
 
                    Orbital Energies (a.u.)
 --------------------------------------------------------------
 
 Alpha MOs
 -- Occupied --
-18.944 -18.944 -18.936 -18.934 -18.901 -18.895 -18.871 -18.859
-18.856 -18.854 -10.107 -10.106 -10.105 -10.105 -10.085 -10.084
-10.079 -10.079 -10.069 -10.068 -10.062 -10.061 -10.050 -10.040
-10.040 -10.038 -10.021 -10.019 -10.015 -10.014  -1.038  -1.035
 -1.032  -1.027  -1.008  -1.003  -0.948  -0.941  -0.939  -0.934
 -0.779  -0.775  -0.743  -0.737  -0.729  -0.717  -0.711  -0.678
 -0.677  -0.631  -0.609  -0.588  -0.559  -0.548  -0.540  -0.535
 -0.522  -0.517  -0.502  -0.493  -0.481  -0.470  -0.460  -0.459
 -0.447  -0.443  -0.437  -0.426  -0.424  -0.423  -0.418  -0.414
 -0.404  -0.399  -0.389  -0.382  -0.375  -0.365  -0.361  -0.356
 -0.354  -0.345  -0.342  -0.341  -0.336  -0.331  -0.328  -0.314
 -0.312  -0.308  -0.306  -0.302  -0.301  -0.294  -0.287  -0.274
 -0.273  -0.255  -0.246  -0.239  -0.234  -0.230  -0.225  -0.184
 -0.176  -0.172  -0.169  -0.155  -0.155  -0.149  -0.145  -0.143
 -0.139
 -- Virtual --
  0.101   0.104   0.108   0.110   0.227   0.236   0.259   0.268
  0.282   0.285   0.306   0.321   0.324   0.326   0.340   0.348
  0.353   0.363   0.365   0.372   0.378   0.379   0.383   0.387
  0.390   0.396   0.397   0.403   0.404   0.405   0.412   0.417
  0.421   0.422   0.424   0.429   0.432   0.438   0.440   0.444
  0.447   0.452   0.462   0.463   0.466   0.470   0.474   0.476
  0.482   0.486   0.490   0.499   0.514   0.520   0.531   0.550
  0.551   0.561   0.566   0.650   0.656   0.662   0.677
 --------------------------------------------------------------
 
          Ground-State Mulliken Net Atomic Charges

     Atom                 Charge (a.u.)
  ----------------------------------------
      1 O                    -0.225895
      2 C                     0.222756
      3 C                    -0.080172
      4 C                    -0.079670
      5 C                     0.220114
      6 O                    -0.179124
      7 C                    -0.038141
      8 C                    -0.040550
      9 O                    -0.182831
     10 C                     0.225981
     11 C                    -0.083006
     12 C                    -0.078168
     13 C                     0.223408
     14 O                    -0.232568
     15 O                    -0.195421
     16 O                    -0.200039
     17 O                    -0.223123
     18 C                    -0.101972
     19 C                     0.037357
     20 C                    -0.143537
     21 C                    -0.144780
     22 C                     0.035568
     23 O                    -0.199141
     24 H                     0.082892
     25 H                     0.089650
     26 H                     0.087328
     27 H                     0.077083
     28 H                     0.073246
     29 H                     0.077828
     30 H                     0.072344
     31 H                     0.090378
     32 O                    -0.218238
     33 C                    -0.105155
     34 C                     0.036648
     35 C                    -0.143961
     36 C                    -0.145248
     37 C                     0.036646
     38 O                    -0.199073
     39 H                     0.086117
     40 H                     0.086066
     41 H                     0.085396
     42 H                     0.088492
     43 H                     0.075797
     44 H                     0.071424
     45 H                     0.075857
     46 H                     0.070925
     47 H                     0.086897
     48 H                     0.085213
     49 H                     0.093111
     50 H                     0.094491
     51 H                     0.087099
     52 H                     0.092031
     53 H                     0.102359
     54 H                     0.090727
     55 H                     0.091185
     56 H                     0.087399
  ----------------------------------------
  Sum of atomic charges =     0.000000

 -----------------------------------------------------------------
                    Cartesian Multipole Moments
 -----------------------------------------------------------------
    Charge (ESU x 10^10)
                 0.0000
    Dipole Moment (Debye)
         X      -0.4738      Y       1.9196      Z      -3.2754
       Tot       3.8259
    Quadrupole Moments (Debye-Ang)
        XX    -169.7558     XY       1.0711     YY    -152.4800
        XZ       7.9756     YZ      -1.2108     ZZ    -164.8986
    Octopole Moments (Debye-Ang^2)
       XXX     -70.6297    XXY      69.6223    XYY      14.0237
       YYY     -21.3649    XXZ     -63.1023    XYZ     -25.3447
       YYZ      10.2966    XZZ       7.5004    YZZ     -23.0948
       ZZZ     -19.1335
    Hexadecapole Moments (Debye-Ang^3)
      XXXX  -14636.5433   XXXY      -1.0219   XXYY   -2766.0752
      XYYY     -92.4269   YYYY   -2183.0940   XXXZ     131.1502
      XXYZ     -13.3196   XYYZ      54.5932   YYYZ      11.2363
      XXZZ   -2793.6942   XYZZ     -37.6387   YYZZ    -613.7712
      XZZZ     -67.2353   YZZZ     -19.0436   ZZZZ   -1727.7666
 -----------------------------------------------------------------
 Calculating analytic gradient of the SCF energy
 Gradient of SCF Energy
            1           2           3           4           5           6
    1   0.0059467  -0.0027374  -0.0016551   0.0059227   0.0130521  -0.0186964
    2   0.0011667   0.0074113  -0.0275416  -0.0038028   0.0062062  -0.0276451
    3  -0.0318216  -0.0333702   0.0195188   0.0285750  -0.0056071   0.0207648
            7           8           9          10          11          12
    1   0.0020039   0.0004762   0.0360519  -0.0414232   0.0256390   0.0124312
    2   0.0232237   0.0167259  -0.0304508   0.0150541  -0.0276830  -0.0032334
    3  -0.0089396   0.0093123  -0.0001483   0.0211585   0.0002819   0.0065480
           13          14          15          16          17          18
    1   0.0021514  -0.0205712   0.0166059   0.0308776  -0.0074407  -0.0070504
    2   0.0084446  -0.0206458  -0.0028722  -0.0024187   0.0283268   0.0142334
    3  -0.0504988  -0.0260310   0.0860041   0.0922808  -0.0062443  -0.0403635
           19          20          21          22          23          24
    1   0.0166529  -0.0042082  -0.0049401  -0.0100766  -0.0365841   0.0010655
    2   0.0076598  -0.0131774  -0.0250178  -0.0286810   0.0371824   0.0021576
    3   0.0408274   0.0265795  -0.0061310  -0.0371340  -0.0046831  -0.0064933
           25          26          27          28          29          30
    1  -0.0007929  -0.0052390   0.0071908  -0.0014467   0.0063925  -0.0036917
    2   0.0007968   0.0075956  -0.0024448   0.0037652  -0.0013323   0.0017970
    3   0.0032883  -0.0088050   0.0016699  -0.0034745  -0.0065251   0.0038097
           31          32          33          34          35          36
    1  -0.0020120   0.0022773  -0.0252773  -0.0064781   0.0169645   0.0168225
    2   0.0113907   0.0198891  -0.0030864  -0.0450729  -0.0230332   0.0030410
    3   0.0026037  -0.0154759  -0.0373752  -0.0147918   0.0002147   0.0197645
           37          38          39          40          41          42
    1   0.0085880   0.0089436  -0.0025237  -0.0032746  -0.0036997  -0.0037132
    2   0.0333128   0.0270031   0.0076436  -0.0049270  -0.0019911   0.0113650
    3   0.0335658  -0.0456889   0.0044677  -0.0041446  -0.0024497  -0.0051856
           43          44          45          46          47          48
    1  -0.0044940  -0.0008560  -0.0057928   0.0022473  -0.0042319  -0.0028409
    2  -0.0050297   0.0044533   0.0022013  -0.0012514   0.0006609   0.0020808
    3   0.0041795  -0.0022093   0.0063804  -0.0045647  -0.0121078  -0.0038754
           49          50          51          52          53          54
    1  -0.0002179  -0.0005794  -0.0018812   0.0014500  -0.0073986   0.0007178
    2   0.0018338  -0.0027054   0.0026913   0.0017466  -0.0052846  -0.0024218
    3   0.0030713   0.0030413  -0.0034959  -0.0041353   0.0000569   0.0002466
           55          56
    1   0.0019884  -0.0006346
    2  -0.0004948   0.0011843
    3  -0.0065945   0.0001535
 Max gradient component =       9.228E-02
 RMS gradient           =       1.877E-02
 Gradient time:  CPU 29.56 s  wall 0.62 s
 Geometry Optimization Parameters
   NAtoms,    NIC,     NZ,  NCons,   NDum,   NFix, NCnnct, MaxDiis
       56     458       0       9       0       0       0       0

 Cartesian Hessian Update
 Hessian Updated using BFGS Update


** CONSTRAINED OPTIMIZATION IN DELOCALIZED INTERNAL COORDINATES **
   Searching for a Minimum

   Optimization Cycle:   2

                       Coordinates (Angstroms)
     ATOM                X               Y               Z
      1  O        -2.5709713582    1.2117627156    2.0739287546
      2  C        -2.5451060832    1.2704376726    0.8360675518
      3  C        -3.7608807608    1.1670718446   -0.0877366536
      4  C        -3.9526077886   -0.1800208656   -0.8398417508
      5  C        -3.0034228052   -1.3160230218   -0.4349210014
      6  O        -1.7565763022   -1.1091819424   -1.0062853396
      7  C        -0.8021517340   -2.1393203264   -0.6545480156
      8  C         0.4122661175   -2.0753765975   -1.6019975595
      9  O         1.1040115137   -0.8107540589   -1.4643880924
     10  C         2.3973338209   -0.9230516677   -0.9895517864
     11  C         3.0787947911    0.4448312252   -0.8647943875
     12  C         3.4900911238    0.8846350654    0.5772908100
     13  C         3.4790570879   -0.1962812940    1.6675368516
     14  O         3.8689810821   -0.0099309951    2.8329223633
     15  O        -1.3608668124    1.4339342688    0.1579600820
     16  O         2.8966105073   -1.4175467178    1.4049697398
     17  O         3.0523658323   -1.9754650674   -1.0847408789
     18  C         2.7862972897   -2.4237570232    2.3791533814
     19  C         4.4690702793    0.4845801763   -1.5787857447
     20  C         4.8189313729    1.9491301228   -1.9387646374
     21  C         5.0986134045    2.5301384078   -0.5450840638
     22  C         4.9855773906    1.2471934363    0.3223777672
     23  O         5.4177833646    0.1906380024   -0.5451340456
     24  H         2.4239457593    1.1995155713   -1.3486627462
     25  H         2.9025637279    1.7377113143    0.9687124823
     26  H         4.5184787269   -0.1620622290   -2.4795679364
     27  H         5.7683603096    1.9231933384   -2.5112877347
     28  H         4.0561604942    2.4889895493   -2.5321995642
     29  H         6.1327829205    2.9266185289   -0.5252402474
     30  H         4.3893642659    3.3115017731   -0.2092180006
     31  H         5.5613531596    1.3586634145    1.2656376857
     32  O        -3.3196860476   -2.3200636912    0.2186482923
     33  C        -0.1488131820    1.5626460662    0.8521505814
     34  C        -5.0981529629    1.2286364454    0.7213443774
     35  C        -6.2472049830    1.6765861325   -0.2158362762
     36  C        -6.4288293888    0.4112572253   -1.0683326089
     37  C        -5.4051581692   -0.5358893120   -0.3863856164
     38  O        -5.4200357545   -0.1391911653    0.9882342160
     39  H        -3.7293709215    2.0468763097   -0.7644589247
     40  H        -3.9089813532   -0.0808288816   -1.9445279611
     41  H         0.0884149956    0.6380707853    1.4237726812
     42  H        -5.0472427536    1.8917972035    1.6102826174
     43  H        -7.1512050013    1.8169208317    0.4108251523
     44  H        -6.0520592404    2.6072013433   -0.7826747894
     45  H        -7.4579310394    0.0274328848   -0.9225037888
     46  H        -6.2274685673    0.5364837958   -2.1498754093
     47  H        -5.6684561190   -1.5965861144   -0.5825807168
     48  H        -0.1728449337    2.4292722545    1.5496866149
     49  H         0.6439764299    1.7424885704    0.1052056624
     50  H         2.2848024861   -3.2981854227    1.9165009512
     51  H         2.1751017507   -2.0794266491    3.2430090521
     52  H         3.7885216313   -2.7392027933    2.7440856261
     53  H         1.0520526216   -2.9568517928   -1.3731787539
     54  H         0.0706661846   -2.1808431689   -2.6541065901
     55  H        -1.2515910166   -3.1491012560   -0.8027661115
     56  H        -0.4854241539   -2.0381701310    0.4074737257
   Point Group: c1    Number of degrees of freedom:   162


   Energy is  -1510.207634782

              Constraints and their Current Values
                                        Value     Constraint
   Dihedral:        1   2   3   4     -104.192     -104.211
   Dihedral:        3   4   5   6      -77.159      -77.128
   Dihedral:        4   5   6   7      179.399      179.402
   Dihedral:        5   6   7   8      164.561      164.583
   Dihedral:        6   7   8   9       62.648       62.666
   Dihedral:        7   8   9  10      116.275      116.283
   Dihedral:        8   9  10  11      179.997     -180.000
   Dihedral:        9  10  11  12      116.841      116.779
   Dihedral:       11  12  13  14      174.902      174.902
 Hessian Updated using BFGS Update

   Using Lagrange Multiplier Algorithm


157 Hessian modes will be used to form the next step
  Hessian Eigenvalues:
    -0.977753   -0.977753   -0.977753   -0.977753   -0.977753   -0.977753
    -0.977753   -0.977004    0.044981    0.045000    0.045002    0.045117
     0.045156    0.045569    0.045599    0.047314    0.048893    0.048902
     0.054639    0.059972    0.060057    0.062932    0.063004    0.066670
     0.067105    0.067123    0.067383    0.070357    0.071158    0.071966
     0.073053    0.073616    0.075756    0.076134    0.076570    0.076764
     0.082553    0.082572    0.084080    0.084351    0.084830    0.084960
     0.086036    0.086575    0.086951    0.087142    0.087194    0.087653
     0.088562    0.088967    0.089039    0.089222    0.089756    0.089886
     0.093972    0.094090    0.096606    0.096654    0.111535    0.111611
     0.114363    0.114607    0.116019    0.116731    0.116779    0.116908
     0.117251    0.118576    0.118865    0.121861    0.122469    0.129479
     0.130346    0.130737    0.139078    0.141408    0.159751    0.161449
     0.170578    0.171791    0.171864    0.172748    0.217387    0.220935
     0.228740    0.232613    0.238698    0.240597    0.248915    0.249832
     0.249999    0.255188    0.258330    0.264650    0.267238    0.267932
     0.279017    0.280792    0.283006    0.287429    0.295682    0.297406
     0.301515    0.308742    0.310445    0.312124    0.320347    0.320654
     0.322030    0.322354    0.322631    0.322811    0.322831    0.323015
     0.323050    0.323070    0.323203    0.323321    0.323537    0.323677
     0.323851    0.324291    0.324464    0.324651    0.324696    0.324830
     0.325002    0.325044    0.325140    0.325991    0.326640    0.330145
     0.334643    0.369080    0.371448    0.385906    0.400436    0.406436
     0.424133    0.474060    0.496576    0.519031    0.534695    0.537262
     0.541572    0.918086    0.923775    0.941774    0.996889    1.022753
     1.022753    1.022753    1.022753    1.022753    1.022753    1.022753
     1.033765

 Minimum Search - Taking P-RFO Step
 Searching for Lamda that Maximizes Along the Constraint modes Only
 Value Taken    Lamda =   0.00008141
 Searching for Lamda that Minimizes Along All other modes
 Value Taken    Lamda =  -0.08809105
 Calculated Step too Large.  Step scaled by  0.589941
 Step Taken.  Stepsize is  0.300000

                             Maximum     Tolerance    Cnvgd?
         Gradient            0.073414       0.000300      NO
         Displacement        0.097468       0.001200      NO
         Energy change     -0.073415       0.000001      NO


 New Cartesian Coordinates Obtained by Inverse Iteration

 Displacement from previous Coordinates is:  1.039335
 Adding empirical dispersion correction 
 ----------------------------------------------------------------
 Doing -D3(op) with
 s6 =   1.00000
 s8 =   0.78311
 a1 =   0.30000
 a2 =   4.25000
 n  =  10.00000
 -D3 energy without 3body term =     -0.0694991283 hartrees
 ----------------------------------------------------------------
             Standard Nuclear Orientation (Angstroms)
    I     Atom           X                Y                Z
 ----------------------------------------------------------------
    1      O      -2.5074584737     1.1306424843     2.0866694384
    2      C      -2.5077445947     1.2075346963     0.8415616212
    3      C      -3.7468280986     1.1615575513    -0.0848506619
    4      C      -3.9694512306    -0.1860149655    -0.8510183906
    5      C      -3.0201959751    -1.3363626727    -0.4285740868
    6      O      -1.7608130452    -1.1188448478    -1.0125209491
    7      C      -0.8024353810    -2.1604655628    -0.6474169191
    8      C       0.4115698975    -2.0840535881    -1.6107390586
    9      O       1.0946347594    -0.8014232277    -1.4674165571
   10      C       2.4104567749    -0.9378501968    -0.9918856912
   11      C       3.0715464724     0.4573104922    -0.8650230128
   12      C       3.4876444914     0.9091853371     0.5809667873
   13      C       3.4638953698    -0.1754563066     1.6893963794
   14      O       3.8532630718     0.0056902454     2.8625824738
   15      O      -1.3340694236     1.3337471828     0.0971135036
   16      O       2.8541308528    -1.3829479846     1.3553317960
   17      O       3.0490185837    -2.0101534711    -1.0702356470
   18      C       2.7665887507    -2.3612807169     2.3996374494
   19      C       4.4731183810     0.4980455726    -1.5906817469
   20      C       4.8018178511     1.9802725287    -1.9604748512
   21      C       5.0810826863     2.5774458022    -0.5548960227
   22      C       4.9946408896     1.2857166949     0.3279438147
   23      O       5.4446501615     0.2116988065    -0.5453139592
   24      H       2.4072698124     1.2017175576    -1.3454981357
   25      H       2.8951295961     1.7614885547     0.9641716027
   26      H       4.5303563440    -0.1656014588    -2.4762150723
   27      H       5.7420829703     1.9729526460    -2.5414095171
   28      H       4.0247382375     2.4993350300    -2.5478870911
   29      H       6.1027650657     2.9953693908    -0.5313418038
   30      H       4.3595315236     3.3448367556    -0.2240998973
   31      H       5.5703237047     1.3922089393     1.2697910406
   32      O      -3.3272979625    -2.3442543974     0.2372600492
   33      C      -0.1185574529     1.3841668780     0.8538558935
   34      C      -5.0889386494     1.2532436254     0.7365364846
   35      C      -6.2288956921     1.7359778265    -0.2188794556
   36      C      -6.4388253694     0.4639462511    -1.0868363024
   37      C      -5.4389771055    -0.5248956005    -0.3954797141
   38      O      -5.4504890716    -0.1289396354     1.0031283044
   39      H      -3.6889404172     2.0362706214    -0.7621674879
   40      H      -3.9170634951    -0.0797843941    -1.9520278379
   41      H       0.0595124159     0.4367019756     1.4075102742
   42      H      -5.0144191515     1.8948102078     1.6372625494
   43      H      -7.1322666846     1.9056196171     0.3947537340
   44      H      -5.9993805612     2.6579651226    -0.7806283760
   45      H      -7.4749534917     0.1038196166    -0.9598158399
   46      H      -6.2235205536     0.5912803269    -2.1621219111
   47      H      -5.7150701335    -1.5825268191    -0.5799773677
   48      H      -0.1182040541     2.2271706484     1.5790420987
   49      H       0.7015400422     1.5393297333     0.1296107052
   50      H       2.2627432112    -3.2495267963     1.9710259902
   51      H       2.1696404201    -1.9887624689     3.2608993456
   52      H       3.7722999684    -2.6600828667     2.7667311246
   53      H       1.0822761108    -2.9455198093    -1.3948680975
   54      H       0.0615043826    -2.1868709711    -2.6603914616
   55      H      -1.2565483845    -3.1698861827    -0.7760306770
   56      H      -0.4791371373    -2.0524496867     0.4117404261
 ----------------------------------------------------------------
 Molecular Point Group                 C1    NOp =  1
 Largest Abelian Subgroup              C1    NOp =  1
 Nuclear Repulsion Energy =  3189.3746997843 hartrees
 There are      113 alpha and      113 beta electrons
 Applying Cartesian multipole field
    Component          Value
    ---------          -----
     (2,0,0)        1.00000E-12
     (0,2,0)        2.00000E-11
     (0,0,2)       -3.00000E-11
 Nucleus-field energy     =     0.0000000058 hartrees
 Requested basis set is STO-3G
 There are 86 shells and 176 basis functions
 A cutoff of  1.0D-12 yielded   2239 shell pairs
 There are     10534 function pairs
 Smallest overlap matrix eigenvalue = 2.07E-01
 Guess MOs from SCF MO coefficient file
 Reading MOs from coefficient file
 Reading MOs from coefficient file
 A restricted hybrid HF-DFT SCF calculation will be
 performed using Pulay DIIS extrapolation
 Exchange:     0.2000 Hartree-Fock + 0.0800 Slater + 0.7200 B88
 Correlation:  0.1900 VWN1RPA + 0.8100 LYP
 Using SG-1 standard quadrature grid
 Dispersion:   Grimme D3
 SCF converges when DIIS error is below 1.0E-08
 Geometry optimization detected.  Setting ReadMinima to 0
 Setting SaveMinima to 0
 using 48 threads for integral computing
 -------------------------------------------------------
 OpenMP Integral computing Module                
 Release: version 1.0, May 2013, Q-Chem Inc. Pittsburgh 
 -------------------------------------------------------
 -------------------------------------------------------
 OpenMP BLAS3 based DFT computing Module                
 Release: version 1.0, May 2013, Q-Chem Inc. Pittsburgh 
 -------------------------------------------------------
 ---------------------------------------
  Cycle       Energy         DIIS Error
 ---------------------------------------
    1   -1510.1075766012      2.77E-03
    2   -1510.2440196487      9.31E-04
    3   -1510.2353954798      1.71E-03
    4   -1510.2475533185      2.85E-04
    5   -1510.2479083251      5.93E-05
    6   -1510.2479203438      3.13E-05
    7   -1510.2479239811      1.30E-05
    8   -1510.2479247472      2.04E-06
    9   -1510.2479247692      7.10E-07
   10   -1510.2479247710      4.19E-07
   11   -1510.2479247718      1.39E-07
   12   -1510.2479247719      3.21E-08
   13   -1510.2479247719      1.99E-08
   14   -1510.2479247719      1.03E-08
   15   -1510.2479247720      1.28E-09 Convergence criterion met
 ---------------------------------------
 SCF time:  CPU 106.95 s  wall 2.23 s
 SCF   energy in the final basis set = -1510.24792477
 Total energy in the final basis set = -1510.24792477
 
 --------------------------------------------------------------
 
                    Orbital Energies (a.u.)
 --------------------------------------------------------------
 
 Alpha MOs
 -- Occupied --
-18.942 -18.940 -18.939 -18.937 -18.899 -18.892 -18.873 -18.865
-18.862 -18.860 -10.105 -10.102 -10.102 -10.101 -10.081 -10.079
-10.075 -10.072 -10.067 -10.066 -10.059 -10.059 -10.048 -10.041
-10.039 -10.038 -10.021 -10.020 -10.016 -10.015  -1.031  -1.027
 -1.022  -1.017  -0.993  -0.987  -0.944  -0.939  -0.938  -0.931
 -0.775  -0.770  -0.737  -0.732  -0.723  -0.712  -0.706  -0.673
 -0.671  -0.626  -0.605  -0.584  -0.556  -0.547  -0.539  -0.535
 -0.520  -0.514  -0.496  -0.487  -0.473  -0.464  -0.457  -0.456
 -0.443  -0.439  -0.433  -0.421  -0.421  -0.419  -0.414  -0.410
 -0.399  -0.395  -0.382  -0.376  -0.371  -0.361  -0.356  -0.352
 -0.349  -0.343  -0.340  -0.339  -0.336  -0.331  -0.330  -0.314
 -0.310  -0.308  -0.305  -0.301  -0.300  -0.293  -0.285  -0.273
 -0.271  -0.257  -0.248  -0.241  -0.238  -0.234  -0.233  -0.184
 -0.181  -0.171  -0.170  -0.156  -0.154  -0.148  -0.147  -0.145
 -0.144
 -- Virtual --
  0.099   0.100   0.103   0.107   0.225   0.235   0.255   0.264
  0.275   0.280   0.296   0.311   0.313   0.315   0.334   0.343
  0.348   0.355   0.356   0.360   0.364   0.366   0.377   0.380
  0.383   0.388   0.393   0.397   0.404   0.406   0.407   0.411
  0.417   0.417   0.419   0.423   0.428   0.430   0.434   0.437
  0.439   0.440   0.448   0.456   0.464   0.465   0.467   0.470
  0.473   0.473   0.482   0.491   0.498   0.509   0.523   0.544
  0.546   0.551   0.557   0.638   0.644   0.651   0.664
 --------------------------------------------------------------
 
          Ground-State Mulliken Net Atomic Charges

     Atom                 Charge (a.u.)
  ----------------------------------------
      1 O                    -0.219442
      2 C                     0.213814
      3 C                    -0.079496
      4 C                    -0.078538
      5 C                     0.212975
      6 O                    -0.173920
      7 C                    -0.041892
      8 C                    -0.045174
      9 O                    -0.178493
     10 C                     0.221404
     11 C                    -0.083453
     12 C                    -0.078394
     13 C                     0.216501
     14 O                    -0.225617
     15 O                    -0.180658
     16 O                    -0.184077
     17 O                    -0.218851
     18 C                    -0.112344
     19 C                     0.032807
     20 C                    -0.144211
     21 C                    -0.145325
     22 C                     0.031069
     23 O                    -0.192172
     24 H                     0.084266
     25 H                     0.087797
     26 H                     0.086829
     27 H                     0.077454
     28 H                     0.073969
     29 H                     0.078117
     30 H                     0.073133
     31 H                     0.089480
     32 O                    -0.214013
     33 C                    -0.114499
     34 C                     0.031542
     35 C                    -0.144501
     36 C                    -0.145691
     37 C                     0.031872
     38 O                    -0.192113
     39 H                     0.085697
     40 H                     0.086345
     41 H                     0.085235
     42 H                     0.087854
     43 H                     0.076206
     44 H                     0.072076
     45 H                     0.076303
     46 H                     0.071622
     47 H                     0.086659
     48 H                     0.085371
     49 H                     0.092347
     50 H                     0.093881
     51 H                     0.088669
     52 H                     0.093384
     53 H                     0.101818
     54 H                     0.089307
     55 H                     0.090961
     56 H                     0.086104
  ----------------------------------------
  Sum of atomic charges =     0.000000

 -----------------------------------------------------------------
                    Cartesian Multipole Moments
 -----------------------------------------------------------------
    Charge (ESU x 10^10)
                -0.0000
    Dipole Moment (Debye)
         X      -0.3887      Y       1.9587      Z      -3.0896
       Tot       3.6787
    Quadrupole Moments (Debye-Ang)
        XX    -169.3627     XY       0.7784     YY    -152.7841
        XZ       8.3113     YZ      -1.2352     ZZ    -164.3799
    Octopole Moments (Debye-Ang^2)
       XXX     -69.8038    XXY      70.0207    XYY      13.6678
       YYY     -19.3063    XXZ     -62.1986    XYZ     -25.7676
       YYZ      10.3125    XZZ       8.5778    YZZ     -22.2541
       ZZZ     -17.4558
    Hexadecapole Moments (Debye-Ang^3)
      XXXX  -14635.2532   XXXY     -25.2747   XXYY   -2753.9106
      XYYY    -105.0068   YYYY   -2177.4289   XXXZ     149.7629
      XXYZ      -8.8434   XYYZ      51.0643   YYYZ      17.0627
      XXZZ   -2783.2715   XYZZ     -46.7712   YYZZ    -614.3133
      XZZZ     -67.9802   YZZZ     -13.1695   ZZZZ   -1743.6313
 -----------------------------------------------------------------
 Calculating analytic gradient of the SCF energy
 Gradient of SCF Energy
            1           2           3           4           5           6
    1   0.0024169   0.0004597  -0.0000765   0.0066963   0.0088345  -0.0106872
    2   0.0000183   0.0064266  -0.0183849   0.0004572   0.0079513  -0.0150719
    3  -0.0118490  -0.0242547   0.0080806   0.0139634  -0.0023115   0.0111418
            7           8           9          10          11          12
    1   0.0011104   0.0014744   0.0206360  -0.0295733   0.0114233   0.0045693
    2   0.0158030   0.0109386  -0.0180880   0.0138104  -0.0139412   0.0006096
    3  -0.0034995   0.0053297  -0.0041861   0.0239963  -0.0011356   0.0036032
           13          14          15          16          17          18
    1   0.0019707  -0.0116475   0.0089272   0.0189035   0.0002635  -0.0033230
    2  -0.0011147  -0.0100781  -0.0051068  -0.0005097   0.0112827   0.0106455
    3  -0.0358045  -0.0095669   0.0489075   0.0484109  -0.0037404  -0.0253432
           19          20          21          22          23          24
    1   0.0111740  -0.0049267  -0.0030033  -0.0033523  -0.0182431   0.0017503
    2   0.0004963  -0.0058896  -0.0106093  -0.0196267   0.0188221   0.0018338
    3   0.0240890   0.0128483  -0.0017239  -0.0212943  -0.0021322  -0.0045578
           25          26          27          28          29          30
    1  -0.0009010  -0.0046839   0.0041258   0.0005698   0.0033308  -0.0013510
    2  -0.0003174   0.0064947  -0.0020638   0.0021441  -0.0015577   0.0006053
    3   0.0032882  -0.0064995   0.0020987  -0.0028077  -0.0046023   0.0026882
           31          32          33          34          35          36
    1  -0.0025669  -0.0006980  -0.0166460  -0.0039388   0.0099447   0.0085323
    2   0.0090948   0.0067662  -0.0007484  -0.0270253  -0.0092905   0.0007811
    3   0.0017676  -0.0071510  -0.0221654  -0.0045316  -0.0014664   0.0072178
           37          38          39          40          41          42
    1   0.0045159   0.0047143  -0.0024156  -0.0031713  -0.0015614  -0.0021459
    2   0.0162369   0.0140803   0.0053494  -0.0039711  -0.0012061   0.0088179
    3   0.0220309  -0.0235827   0.0039612  -0.0023830  -0.0009351  -0.0048469
           43          44          45          46          47          48
    1  -0.0020262  -0.0016127  -0.0027224   0.0009250  -0.0025281  -0.0007151
    2  -0.0040764   0.0027163   0.0020347  -0.0015855   0.0011591   0.0016465
    3   0.0024953  -0.0003682   0.0045933  -0.0022142  -0.0097452  -0.0017233
           49          50          51          52          53          54
    1   0.0014989  -0.0003436  -0.0014383   0.0010593  -0.0053559   0.0006588
    2   0.0014870  -0.0016406   0.0009147   0.0000826  -0.0043796  -0.0025606
    3   0.0012762   0.0020081  -0.0010618  -0.0014896  -0.0005744  -0.0001042
           55          56
    1   0.0016618  -0.0004925
    2  -0.0005647  -0.0000987
    3  -0.0044896   0.0003455
 Max gradient component =       4.891E-02
 RMS gradient           =       1.086E-02
 Gradient time:  CPU 32.20 s  wall 0.68 s
 Geometry Optimization Parameters
   NAtoms,    NIC,     NZ,  NCons,   NDum,   NFix, NCnnct, MaxDiis
       56     458       0       9       0       0       0       0

 Cartesian Hessian Update
 Hessian Updated using BFGS Update


** CONSTRAINED OPTIMIZATION IN DELOCALIZED INTERNAL COORDINATES **
   Searching for a Minimum

   Optimization Cycle:   3

                       Coordinates (Angstroms)
     ATOM                X               Y               Z
      1  O        -2.5074584737    1.1306424843    2.0866694384
      2  C        -2.5077445947    1.2075346963    0.8415616212
      3  C        -3.7468280986    1.1615575513   -0.0848506619
      4  C        -3.9694512306   -0.1860149655   -0.8510183906
      5  C        -3.0201959751   -1.3363626727   -0.4285740868
      6  O        -1.7608130452   -1.1188448478   -1.0125209491
      7  C        -0.8024353810   -2.1604655628   -0.6474169191
      8  C         0.4115698975   -2.0840535881   -1.6107390586
      9  O         1.0946347594   -0.8014232277   -1.4674165571
     10  C         2.4104567749   -0.9378501968   -0.9918856912
     11  C         3.0715464724    0.4573104922   -0.8650230128
     12  C         3.4876444914    0.9091853371    0.5809667873
     13  C         3.4638953698   -0.1754563066    1.6893963794
     14  O         3.8532630718    0.0056902454    2.8625824738
     15  O        -1.3340694236    1.3337471828    0.0971135036
     16  O         2.8541308528   -1.3829479846    1.3553317960
     17  O         3.0490185837   -2.0101534711   -1.0702356470
     18  C         2.7665887507   -2.3612807169    2.3996374494
     19  C         4.4731183810    0.4980455726   -1.5906817469
     20  C         4.8018178511    1.9802725287   -1.9604748512
     21  C         5.0810826863    2.5774458022   -0.5548960227
     22  C         4.9946408896    1.2857166949    0.3279438147
     23  O         5.4446501615    0.2116988065   -0.5453139592
     24  H         2.4072698124    1.2017175576   -1.3454981357
     25  H         2.8951295961    1.7614885547    0.9641716027
     26  H         4.5303563440   -0.1656014588   -2.4762150723
     27  H         5.7420829703    1.9729526460   -2.5414095171
     28  H         4.0247382375    2.4993350300   -2.5478870911
     29  H         6.1027650657    2.9953693908   -0.5313418038
     30  H         4.3595315236    3.3448367556   -0.2240998973
     31  H         5.5703237047    1.3922089393    1.2697910406
     32  O        -3.3272979625   -2.3442543974    0.2372600492
     33  C        -0.1185574529    1.3841668780    0.8538558935
     34  C        -5.0889386494    1.2532436254    0.7365364846
     35  C        -6.2288956921    1.7359778265   -0.2188794556
     36  C        -6.4388253694    0.4639462511   -1.0868363024
     37  C        -5.4389771055   -0.5248956005   -0.3954797141
     38  O        -5.4504890716   -0.1289396354    1.0031283044
     39  H        -3.6889404172    2.0362706214   -0.7621674879
     40  H        -3.9170634951   -0.0797843941   -1.9520278379
     41  H         0.0595124159    0.4367019756    1.4075102742
     42  H        -5.0144191515    1.8948102078    1.6372625494
     43  H        -7.1322666846    1.9056196171    0.3947537340
     44  H        -5.9993805612    2.6579651226   -0.7806283760
     45  H        -7.4749534917    0.1038196166   -0.9598158399
     46  H        -6.2235205536    0.5912803269   -2.1621219111
     47  H        -5.7150701335   -1.5825268191   -0.5799773677
     48  H        -0.1182040541    2.2271706484    1.5790420987
     49  H         0.7015400422    1.5393297333    0.1296107052
     50  H         2.2627432112   -3.2495267963    1.9710259902
     51  H         2.1696404201   -1.9887624689    3.2608993456
     52  H         3.7722999684   -2.6600828667    2.7667311246
     53  H         1.0822761108   -2.9455198093   -1.3948680975
     54  H         0.0615043826   -2.1868709711   -2.6603914616
     55  H        -1.2565483845   -3.1698861827   -0.7760306770
     56  H        -0.4791371373   -2.0524496867    0.4117404261
   Point Group: c1    Number of degrees of freedom:   162


   Energy is  -1510.247924772

              Constraints and their Current Values
                                        Value     Constraint
   Dihedral:        1   2   3   4     -104.212     -104.211
   Dihedral:        3   4   5   6      -77.145      -77.128
   Dihedral:        4   5   6   7      179.416      179.402
   Dihedral:        5   6   7   8      164.567      164.583
   Dihedral:        6   7   8   9       62.683       62.666
   Dihedral:        7   8   9  10      116.300      116.283
   Dihedral:        8   9  10  11      179.997     -180.000
   Dihedral:        9  10  11  12      116.806      116.779
   Dihedral:       11  12  13  14      174.902      174.902
 Hessian Updated using BFGS Update

   Using Lagrange Multiplier Algorithm


160 Hessian modes will be used to form the next step
  Hessian Eigenvalues:
    -0.977754   -0.977753   -0.977753   -0.977753   -0.977753   -0.977753
    -0.977638   -0.975447    0.044751    0.045000    0.045001    0.045046
     0.045062    0.045168    0.045500    0.045569    0.047853    0.048770
     0.048902    0.054632    0.058753    0.060068    0.062802    0.062963
     0.066687    0.067034    0.067124    0.067392    0.070295    0.071000
     0.071481    0.073100    0.073543    0.075867    0.076144    0.076514
     0.077116    0.082551    0.082588    0.084082    0.084264    0.084851
     0.084959    0.085622    0.086576    0.086995    0.087115    0.087188
     0.087634    0.088588    0.088989    0.089123    0.089581    0.089758
     0.090475    0.093844    0.094067    0.096576    0.096610    0.111536
     0.111606    0.114361    0.114595    0.116013    0.116227    0.116790
     0.116996    0.117143    0.118680    0.119454    0.121674    0.122457
     0.129407    0.130336    0.130580    0.138579    0.140400    0.159536
     0.160028    0.161522    0.171272    0.171804    0.171837    0.174439
     0.216844    0.221760    0.228776    0.236017    0.238697    0.240624
     0.248926    0.249837    0.249999    0.254400    0.258306    0.262724
     0.266979    0.267304    0.275618    0.280662    0.281651    0.283211
     0.293335    0.295702    0.298695    0.303079    0.307738    0.311622
     0.312741    0.318459    0.320585    0.322029    0.322318    0.322569
     0.322810    0.322816    0.323010    0.323033    0.323067    0.323207
     0.323318    0.323488    0.323668    0.323876    0.324314    0.324476
     0.324669    0.324699    0.324828    0.325005    0.325050    0.325131
     0.326119    0.326682    0.330587    0.335275    0.369006    0.371409
     0.386391    0.394089    0.404231    0.406730    0.465445    0.495420
     0.516830    0.528959    0.535867    0.540522    0.918729    0.925599
     0.942462    1.001605    1.022753    1.022753    1.022753    1.022753
     1.022753    1.022753    1.023875    1.038130

 Minimum Search - Taking P-RFO Step
 Searching for Lamda that Maximizes Along the Constraint modes Only
 Value Taken    Lamda =   0.00019785
 Searching for Lamda that Minimizes Along All other modes
 Value Taken    Lamda =  -0.04510624
 Calculated Step too Large.  Step scaled by  0.608581
 Step Taken.  Stepsize is  0.300000

                             Maximum     Tolerance    Cnvgd?
         Gradient            0.035492       0.000300      NO
         Displacement        0.071852       0.001200      NO
         Energy change     -0.040290       0.000001      NO


 New Cartesian Coordinates Obtained by Inverse Iteration

 Displacement from previous Coordinates is:  2.475211
 Adding empirical dispersion correction 
 ----------------------------------------------------------------
 Doing -D3(op) with
 s6 =   1.00000
 s8 =   0.78311
 a1 =   0.30000
 a2 =   4.25000
 n  =  10.00000
 -D3 energy without 3body term =     -0.0680017184 hartrees
 ----------------------------------------------------------------
             Standard Nuclear Orientation (Angstroms)
    I     Atom           X                Y                Z
 ----------------------------------------------------------------
    1      O      -2.5540716792     1.0060760125     2.1245880593
    2      C      -2.5836871635     1.1593653193     0.8845815037
    3      C      -3.8400328634     1.1481724792    -0.0390046904
    4      C      -4.0372814097    -0.1675399592    -0.8881868126
    5      C      -3.0426686831    -1.3209963165    -0.5347758896
    6      O      -1.7794800651    -1.0365652454    -1.1176667882
    7      C      -0.8122514519    -2.0994369723    -0.7913225322
    8      C       0.4160191518    -1.9712262318    -1.7444084551
    9      O       1.1162950009    -0.6918866105    -1.5534837280
   10      C       2.4400607200    -0.9161169441    -1.0766173793
   11      C       3.1484023038     0.4635302925    -0.8870243499
   12      C       3.6060529814     0.9090227781     0.5678089737
   13      C       3.5256033940    -0.1207981949     1.7485306949
   14      O       3.9466604925     0.1055080949     2.9045348976
   15      O      -1.4276152172     1.3706219316     0.0992739819
   16      O       2.8057663338    -1.2986714054     1.4678418261
   17      O       3.0122108506    -2.0247230042    -1.1840500235
   18      C       2.7015187750    -2.1736554952     2.6308029558
   19      C       4.5560156767     0.4249820090    -1.6248152266
   20      C       4.9578168516     1.8934344829    -2.0093026064
   21      C       5.2772350978     2.4886994599    -0.6030371247
   22      C       5.1371400507     1.2056933890     0.3006493320
   23      O       5.5276565700     0.0873541438    -0.5719726306
   24      H       2.5156739624     1.2386573491    -1.3558810664
   25      H       3.0653884271     1.8016066933     0.9330191629
   26      H       4.5779104539    -0.2594464273    -2.4948792848
   27      H       5.8864924075     1.8448684075    -2.6031648006
   28      H       4.1956423357     2.4399655961    -2.5882982775
   29      H       6.3135451638     2.8638879943    -0.5813502202
   30      H       4.5924433120     3.2896824853    -0.2791933598
   31      H       5.7251532461     1.2797060607     1.2369013395
   32      O      -3.3055953686    -2.3736941531     0.0839831756
[...]
     16  O         2.0607136810   -0.8287455976    1.2256931437
     17  O         3.0933318702   -1.9951897306   -1.1084177094
     18  C         1.5886708120   -1.6118902462    2.3934714883
     19  C         4.5490529420    0.5613872182   -1.7898342852
     20  C         5.0703682980    2.0504218868   -1.8874852015
     21  C         5.6049841793    2.2879702971   -0.4264973605
     22  C         5.1887533160    0.9315705327    0.2632925492
     23  O         5.4431867414   -0.0722234307   -0.7930383574
     24  H         2.4283912895    1.2764704167   -1.4554292829
     25  H         3.2626413578    1.9669733404    0.6346997784
     26  H         4.5669177443   -0.0075971466   -2.7393445476
     27  H         5.8763266153    2.1303580955   -2.6338731567
     28  H         4.2643615027    2.7495103083   -2.1626124420
     29  H         6.7009022373    2.4006877980   -0.4129182318
     30  H         5.1519668687    3.1660989940    0.0607144593
     31  H         5.7361077908    0.6779275157    1.1920046253
     32  O        -3.1013578081   -2.4604824911    0.2691483042
     33  C        -0.0209639386    1.3842907903    0.7877990219
     34  C        -5.0118004558    1.0750076837    0.9228288916
     35  C        -6.2027969011    1.5604039789    0.0084242477
     36  C        -6.4376334699    0.2822299525   -0.8808959320
     37  C        -5.3749181102   -0.7166577322   -0.2725215631
     38  O        -5.3249640928   -0.3523388910    1.1624316067
     39  H        -3.6487232721    1.8894543902   -0.6593617523
     40  H        -3.8959753447   -0.1191563143   -1.8726243632
     41  H         0.5547485575    0.4436986902    0.6442089293
     42  H        -4.8924577488    1.6091974919    1.8853535677
     43  H        -7.0881213609    1.7917520130    0.6219890411
     44  H        -5.9408497749    2.4511637889   -0.5847637437
     45  H        -7.4569391950   -0.1163628446   -0.7567724515
     46  H        -6.2613583782    0.4716546393   -1.9520760221
     47  H        -5.6088543172   -1.7927660175   -0.3868797024
     48  H        -0.2257691420    1.5257677455    1.8678021385
     49  H         0.5679034693    2.2342918091    0.3953047219
     50  H         0.9522688575   -2.4193158612    1.9874806227
     51  H         0.9902477372   -0.9804431310    3.0819053480
     52  H         2.4367058999   -2.0504555445    2.9553887310
     53  H         1.2773585061   -2.8348181783   -1.6222266347
     54  H         0.1168408282   -2.1147787533   -2.8283784361
     55  H        -1.1106838243   -3.2116925041   -0.8421583715
     56  H        -0.2821018761   -2.0621303529    0.2656726141
   Point Group: c1    Number of degrees of freedom:   162


   Energy is  -1510.285413976

              Constraints and their Current Values
                                        Value     Constraint
   Dihedral:        1   2   3   4     -104.211     -104.211
   Dihedral:        3   4   5   6      -77.128      -77.128
   Dihedral:        4   5   6   7      179.402      179.402
   Dihedral:        5   6   7   8      164.583      164.583
   Dihedral:        6   7   8   9       62.666       62.666
   Dihedral:        7   8   9  10      116.283      116.283
   Dihedral:        8   9  10  11     -180.000     -180.000
   Dihedral:        9  10  11  12      116.779      116.779
   Dihedral:       11  12  13  14      174.902      174.902
 Hessian Updated using BFGS Update

153 Hessian modes will be used to form the next step
  Hessian Eigenvalues:
     0.001212    0.002193    0.003338    0.004157    0.008973    0.009880
     0.018737    0.025441    0.032924    0.043629    0.046646    0.047959
     0.054209    0.055011    0.056281    0.059298    0.061522    0.063734
     0.065868    0.067102    0.067530    0.069927    0.070571    0.071979
     0.073662    0.074983    0.076405    0.077432    0.077788    0.078394
     0.082556    0.082880    0.083909    0.084150    0.084939    0.085442
     0.085963    0.086632    0.087192    0.087946    0.088088    0.088688
     0.089036    0.089532    0.089722    0.090385    0.091787    0.092906
     0.093966    0.094637    0.096634    0.096810    0.111542    0.111599
     0.115590    0.116146    0.118018    0.118229    0.119492    0.120066
     0.120776    0.121752    0.122579    0.123380    0.124995    0.130095
     0.133091    0.143159    0.157161    0.159400    0.160413    0.161626
     0.162168    0.163995    0.169063    0.170949    0.173277    0.174740
     0.198722    0.212573    0.228966    0.234178    0.237957    0.240781
     0.244305    0.249322    0.252127    0.254869    0.257734    0.263258
     0.267088    0.267339    0.274084    0.275873    0.279344    0.280996
     0.283788    0.294946    0.295276    0.297141    0.303100    0.307172
     0.307498    0.312421    0.315572    0.319867    0.320926    0.321989
     0.322045    0.322326    0.322717    0.322855    0.322988    0.323137
     0.323288    0.323327    0.323456    0.323568    0.323770    0.324096
     0.324362    0.324581    0.324711    0.325011    0.325134    0.325736
     0.326174    0.327077    0.329432    0.330715    0.336559    0.336787
     0.347634    0.366933    0.369831    0.376896    0.394025    0.402954
     0.418749    0.447834    0.458720    0.490853    0.513309    0.522047
     0.530223    0.555353    0.673003    0.761447    0.922879    0.927809
     0.944331    1.012042    1.324214

 Minimum Search - Taking Simple RFO Step
 Searching for Lamda that Minimizes Along All modes
 Value Taken    Lamda =   0.00000000
 Step Taken.  Stepsize is  0.007625

                             Maximum     Tolerance    Cnvgd?
         Gradient           0.000044      0.000300     YES
         Displacement       0.002819      0.001200      NO
         Energy change     -0.000000      0.000001     YES

 Final energy is   -1510.28541397641     


 ******************************
 **  OPTIMIZATION CONVERGED  **
 ******************************

                       Coordinates (Angstroms)
     ATOM                X               Y               Z
      1  O        -2.2956956829    0.9198447829    2.1432286095
      2  C        -2.3904477241    1.0544011847    0.9030602235
      3  C        -3.6982215026    1.0324922139    0.0365751034
      4  C        -3.9309570164   -0.3125549749   -0.7855537781
      5  C        -2.9048474859   -1.4478765625   -0.4371048718
      6  O        -1.6649810627   -1.1521293884   -1.0863943352
      7  C        -0.6604820750   -2.1971254224   -0.7698165666
      8  C         0.5083893034   -2.0477405729   -1.7919118102
      9  O         1.1535640518   -0.7232605007   -1.6258723996
     10  C         2.5183256799   -0.8888656577   -1.2031957281
     11  C         3.1427226749    0.5412778546   -1.0460733393
     12  C         3.6026761942    0.9365491422    0.4176013569
     13  C         3.1005446738    0.0752503574    1.6275055005
     14  O         3.4560790957    0.2195913593    2.8166701085
     15  O        -1.2938600061    1.3420056659    0.0315769300
     16  O         2.0607136810   -0.8287455976    1.2256931437
     17  O         3.0933318702   -1.9951897306   -1.1084177094
     18  C         1.5886708120   -1.6118902462    2.3934714883
     19  C         4.5490529420    0.5613872182   -1.7898342852
     20  C         5.0703682980    2.0504218868   -1.8874852015
     21  C         5.6049841793    2.2879702971   -0.4264973605
     22  C         5.1887533160    0.9315705327    0.2632925492
     23  O         5.4431867414   -0.0722234307   -0.7930383574
     24  H         2.4283912895    1.2764704167   -1.4554292829
     25  H         3.2626413578    1.9669733404    0.6346997784
     26  H         4.5669177443   -0.0075971466   -2.7393445476
     27  H         5.8763266153    2.1303580955   -2.6338731567
     28  H         4.2643615027    2.7495103083   -2.1626124420
     29  H         6.7009022373    2.4006877980   -0.4129182318
     30  H         5.1519668687    3.1660989940    0.0607144593
     31  H         5.7361077908    0.6779275157    1.1920046253
     32  O        -3.1013578081   -2.4604824911    0.2691483042
     33  C        -0.0209639386    1.3842907903    0.7877990219
     34  C        -5.0118004558    1.0750076837    0.9228288916
     35  C        -6.2027969011    1.5604039789    0.0084242477
     36  C        -6.4376334699    0.2822299525   -0.8808959320
     37  C        -5.3749181102   -0.7166577322   -0.2725215631
     38  O        -5.3249640928   -0.3523388910    1.1624316067
     39  H        -3.6487232721    1.8894543902   -0.6593617523
     40  H        -3.8959753447   -0.1191563143   -1.8726243632
     41  H         0.5547485575    0.4436986902    0.6442089293
     42  H        -4.8924577488    1.6091974919    1.8853535677
     43  H        -7.0881213609    1.7917520130    0.6219890411
     44  H        -5.9408497749    2.4511637889   -0.5847637437
     45  H        -7.4569391950   -0.1163628446   -0.7567724515
     46  H        -6.2613583782    0.4716546393   -1.9520760221
     47  H        -5.6088543172   -1.7927660175   -0.3868797024
     48  H        -0.2257691420    1.5257677455    1.8678021385
     49  H         0.5679034693    2.2342918091    0.3953047219
     50  H         0.9522688575   -2.4193158612    1.9874806227
     51  H         0.9902477372   -0.9804431310    3.0819053480
     52  H         2.4367058999   -2.0504555445    2.9553887310
     53  H         1.2773585061   -2.8348181783   -1.6222266347
     54  H         0.1168408282   -2.1147787533   -2.8283784361
     55  H        -1.1106838243   -3.2116925041   -0.8421583715
     56  H        -0.2821018761   -2.0621303529    0.2656726141

Z-matrix Print:
$molecule
0 1
O 
C  1 1.435239
O  2 1.249541 1 123.047660
C  1 1.483188 2 110.043214 3 -4.830540 0
H  4 1.105338 1 106.245425 2 -168.616332 0
H  4 1.107815 1 111.393173 2 -49.137116 0
H  4 1.109404 1 111.083085 2 72.422510 0
C  2 1.567750 1 111.224537 3 -174.146710 0
H  8 1.106585 2 105.173796 1 111.111527 0
C  8 1.584342 2 118.876293 1 -11.120808 0
H  10 1.103789 8 111.366002 2 109.254703 0
C  10 1.568397 8 115.824800 2 -14.952306 0
O  12 1.250427 10 128.032032 8 -69.251551 0
O  12 1.438282 10 107.590427 8 116.778987 0
C  14 1.482588 12 110.058150 10 -180.000000 0
H  15 1.109985 14 108.181969 12 -123.699189 0
H  15 1.113372 14 108.295467 12 -4.416766 0
C  15 1.559889 14 109.770653 12 116.283018 0
H  18 1.110690 15 110.118156 14 -57.283875 0
H  18 1.112322 15 110.366228 14 -176.455851 0
O  18 1.483663 15 107.461387 14 62.666018 0
C  21 1.430494 18 110.142151 15 164.582989 0
O  22 1.250112 21 124.065435 18 -1.331693 0
C  22 1.569482 21 108.441752 18 179.401990 0
H  24 1.104694 22 108.929906 21 46.918532 0
C  24 1.584779 22 109.838529 21 171.275928 0
H  26 1.107164 24 114.011408 22 -37.673265 0
O  26 1.481322 24 102.718000 22 81.607781 0
C  28 1.480810 26 95.017130 24 58.335239 0
H  29 1.107274 28 110.313671 26 -178.747639 0
C  29 1.578042 28 103.334515 26 56.762663 0
H  31 1.101718 29 110.387852 28 81.297907 0
H  31 1.101790 29 112.408949 28 -157.113720 0
C  31 1.574728 29 100.960288 28 -36.654341 0
H  34 1.101484 31 111.597509 29 119.668370 0
H  34 1.101990 31 112.679699 29 -117.772638 0
C  29 1.585163 28 103.878277 26 -55.969157 0
H  37 1.105062 29 111.618191 28 148.617802 0
C  37 1.568932 29 112.431887 28 -90.565132 0
O  39 1.251040 37 127.524971 29 10.409185 0
O  39 1.429931 37 107.785128 29 -166.073622 0
C  41 1.481190 39 110.708930 37 179.746054 0
H  42 1.106037 41 107.355751 39 -138.985503 0
H  42 1.108317 41 110.020009 39 -18.999577 0
H  42 1.112105 41 110.782042 39 101.884921 0
C  10 1.591022 8 99.910229 2 -131.158105 0
H  46 1.107083 10 114.123534 8 160.133824 0
O  46 1.481398 10 102.330581 8 40.945584 0
C  48 1.479248 46 94.959192 10 -59.379117 0
H  49 1.107447 48 111.003098 46 178.128752 0
C  49 1.577618 48 103.051179 46 -57.446976 0
H  51 1.101685 49 112.547877 48 159.156984 0
H  51 1.101783 49 110.181853 48 -79.235843 0
C  51 1.573763 49 100.748573 48 38.497598 0
H  54 1.101387 51 111.689567 49 -121.932230 0
H  54 1.101847 51 112.614627 49 115.467070 0
$end

 
 --------------------------------------------------------------
 
                    Orbital Energies (a.u.)
 --------------------------------------------------------------
 
 Alpha MOs
 -- Occupied --
-18.952 -18.933 -18.930 -18.929 -18.893 -18.887 -18.884 -18.874
-18.872 -18.871 -10.112 -10.100 -10.097 -10.095 -10.074 -10.073
-10.069 -10.065 -10.064 -10.056 -10.056 -10.048 -10.046 -10.042
-10.037 -10.035 -10.025 -10.024 -10.019 -10.018  -1.025  -1.014
 -1.008  -1.005  -0.975  -0.967  -0.948  -0.939  -0.932  -0.930
 -0.769  -0.761  -0.730  -0.724  -0.714  -0.706  -0.699  -0.671
 -0.656  -0.619  -0.600  -0.579  -0.551  -0.545  -0.540  -0.535
 -0.518  -0.509  -0.487  -0.477  -0.462  -0.458  -0.455  -0.449
 -0.441  -0.434  -0.428  -0.425  -0.418  -0.412  -0.406  -0.401
 -0.394  -0.387  -0.375  -0.366  -0.365  -0.360  -0.356  -0.349
 -0.344  -0.340  -0.337  -0.335  -0.330  -0.330  -0.328  -0.318
 -0.311  -0.309  -0.305  -0.303  -0.298  -0.292  -0.278  -0.277
 -0.272  -0.258  -0.254  -0.246  -0.241  -0.238  -0.231  -0.193
 -0.179  -0.171  -0.166  -0.163  -0.158  -0.155  -0.149  -0.147
 -0.141
 -- Virtual --
  0.089   0.099   0.102   0.104   0.217   0.227   0.246   0.249
  0.263   0.271   0.275   0.289   0.303   0.304   0.317   0.326
  0.334   0.337   0.341   0.348   0.350   0.358   0.370   0.372
  0.378   0.380   0.385   0.390   0.391   0.401   0.411   0.412
  0.413   0.415   0.416   0.417   0.420   0.422   0.426   0.434
  0.434   0.435   0.440   0.446   0.449   0.453   0.462   0.463
  0.469   0.469   0.486   0.489   0.498   0.502   0.508   0.537
  0.543   0.547   0.553   0.625   0.636   0.651   0.657
 --------------------------------------------------------------
 
          Ground-State Mulliken Net Atomic Charges

     Atom                 Charge (a.u.)
  ----------------------------------------
      1 O                    -0.215477
      2 C                     0.205919
      3 C                    -0.078155
      4 C                    -0.077117
      5 C                     0.205187
      6 O                    -0.168125
      7 C                    -0.047926
      8 C                    -0.054414
      9 O                    -0.171036
     10 C                     0.216460
     11 C                    -0.079873
     12 C                    -0.079610
     13 C                     0.212943
     14 O                    -0.208329
     15 O                    -0.166275
     16 O                    -0.169081
     17 O                    -0.215887
     18 C                    -0.127734
     19 C                     0.026560
     20 C                    -0.145148
     21 C                    -0.142534
     22 C                     0.025953
     23 O                    -0.185043
     24 H                     0.088319
     25 H                     0.085950
     26 H                     0.084794
     27 H                     0.079216
     28 H                     0.074101
     29 H                     0.079607
     30 H                     0.074226
     31 H                     0.088799
     32 O                    -0.211288
     33 C                    -0.143951
     34 C                     0.024330
     35 C                    -0.143496
     36 C                    -0.144676
     37 C                     0.024992
     38 O                    -0.186737
     39 H                     0.085199
     40 H                     0.085728
     41 H                     0.096853
     42 H                     0.087877
     43 H                     0.077876
     44 H                     0.072549
     45 H                     0.077858
     46 H                     0.072409
     47 H                     0.087120
     48 H                     0.092120
     49 H                     0.077744
     50 H                     0.092621
     51 H                     0.094325
     52 H                     0.098129
     53 H                     0.102990
     54 H                     0.086959
     55 H                     0.091961
     56 H                     0.084239
  ----------------------------------------
  Sum of atomic charges =     0.000000

 -----------------------------------------------------------------
                    Cartesian Multipole Moments
 -----------------------------------------------------------------
    Charge (ESU x 10^10)
                -0.0000
    Dipole Moment (Debye)
         X      -0.1177      Y       2.3574      Z      -2.7523
       Tot       3.6258
    Quadrupole Moments (Debye-Ang)
        XX    -163.1528     XY       3.0449     YY    -155.6354
        XZ       7.7932     YZ      -0.2228     ZZ    -163.2755
    Octopole Moments (Debye-Ang^2)
       XXX     -61.1449    XXY      81.4815    XYY       7.5868
       YYY      -4.7323    XXZ     -49.5510    XYZ     -26.9431
       YYZ       6.4681    XZZ      10.8380    YZZ     -16.9515
       ZZZ      -7.9724
    Hexadecapole Moments (Debye-Ang^3)
      XXXX  -14153.1438   XXXY    -193.9413   XXYY   -2701.9248
      XYYY    -307.5540   YYYY   -1938.4937   XXXZ     442.9425
      XXYZ     -28.6400   XYYZ     120.6005   YYYZ     -53.6232
      XXZZ   -2729.2863   XYZZ    -128.2525   YYZZ    -589.4776
      XZZZ     204.7602   YZZZ     -85.9811   ZZZZ   -1781.4954
 -----------------------------------------------------------------
Archival summary:
1\1\vega02.cac.cornell.edu\OPT\ProcedureUnspecified\STO-3G\102026\jj585\SunJan1420:34:422018SunJan1420:34:422018\0\\#,OPT,ProcedureUnspecified,STO-3G,\\0,1\O\C,1,1.43524\O,2,1.24954,1,123.048\C,1,1.48319,2,110.043,3,-4.83054,0\H,4,1.10534,1,106.245,2,-168.616,0\H,4,1.10781,1,111.393,2,-49.1371,0\H,4,1.1094,1,111.083,2,72.4225,0\C,2,1.56775,1,111.225,3,-174.147,0\H,8,1.10658,2,105.174,1,111.112,0\C,8,1.58434,2,118.876,1,-11.1208,0\H,10,1.10379,8,111.366,2,109.255,0\C,10,1.5684,8,115.825,2,-14.9523,0\O,12,1.25043,10,128.032,8,-69.2516,0\O,12,1.43828,10,107.59,8,116.779,0\C,14,1.48259,12,110.058,10,-180,0\H,15,1.10999,14,108.182,12,-123.699,0\H,15,1.11337,14,108.295,12,-4.41677,0\C,15,1.55989,14,109.771,12,116.283,0\H,18,1.11069,15,110.118,14,-57.2839,0\H,18,1.11232,15,110.366,14,-176.456,0\O,18,1.48366,15,107.461,14,62.666,0\C,21,1.43049,18,110.142,15,164.583,0\O,22,1.25011,21,124.065,18,-1.33169,0\C,22,1.56948,21,108.442,18,179.402,0\H,24,1.10469,22,108.93,21,46.9185,0\C,24,1.58478,22,109.839,21,171.276,0\H,26,1.10716,24,114.011,22,-37.6733,0\O,26,1.48132,24,102.718,22,81.6078,0\C,28,1.48081,26,95.0171,24,58.3352,0\H,29,1.10727,28,110.314,26,-178.748,0\C,29,1.57804,28,103.335,26,56.7627,0\H,31,1.10172,29,110.388,28,81.2979,0\H,31,1.10179,29,112.409,28,-157.114,0\C,31,1.57473,29,100.96,28,-36.6543,0\H,34,1.10148,31,111.598,29,119.668,0\H,34,1.10199,31,112.68,29,-117.773,0\C,29,1.58516,28,103.878,26,-55.9692,0\H,37,1.10506,29,111.618,28,148.618,0\C,37,1.56893,29,112.432,28,-90.5651,0\O,39,1.25104,37,127.525,29,10.4092,0\O,39,1.42993,37,107.785,29,-166.074,0\C,41,1.48119,39,110.709,37,179.746,0\H,42,1.10604,41,107.356,39,-138.986,0\H,42,1.10832,41,110.02,39,-18.9996,0\H,42,1.1121,41,110.782,39,101.885,0\C,10,1.59102,8,99.9102,2,-131.158,0\H,46,1.10708,10,114.124,8,160.134,0\O,46,1.4814,10,102.331,8,40.9456,0\C,48,1.47925,46,94.9592,10,-59.3791,0\H,49,1.10745,48,111.003,46,178.129,0\C,49,1.57762,48,103.051,46,-57.447,0\H,51,1.10169,49,112.548,48,159.157,0\H,51,1.10178,49,110.182,48,-79.2358,0\C,51,1.57376,49,100.749,48,38.4976,0\H,54,1.10139,51,111.69,49,-121.932,0\H,54,1.10185,51,112.615,49,115.467,0\\\@

 Total job time:  123.19s(wall), 5876.87s(cpu) 
 Sun Jan 14 20:34:42 2018

        *************************************************************
        *                                                           *
        *  Thank you very much for using Q-Chem.  Have a nice day.  *
        *                                                           *
        *************************************************************


0 sent ACK to 0 
now end server 0 ... 
