mFile = /opt/software/qchem/qchem-5.0.1//bin/mpi/machines
Process 0 of 1 is on vega02.cac.cornell.edu - thread support 0
initial socket setup ...start
initial socket setup ...done 
now start server 0 ... 
vega02.cac.cornell.edu 10.84.3
Q-Chem Developer Version! Running on 10.84.3.*
                  Welcome to Q-Chem
     A Quantum Leap Into The Future Of Chemistry


 Q-Chem 5.0, Q-Chem, Inc., Pleasanton, CA (2017)

 Yihan Shao,  Zhengting Gan,  E. Epifanovsky,  A. T. B. Gilbert,  M. Wormit,  
 J. Kussmann,  A. W. Lange,  A. Behn,  Jia Deng,  Xintian Feng,  D. Ghosh,  
 M. Goldey,  P. R. Horn,  L. D. Jacobson,  I. Kaliman,  T. Kus,  A. Landau,  
 Jie Liu,  E. I. Proynov,  R. M. Richard,  R. P. Steele,  E. J. Sundstrom,  
 H. L. Woodcock III,  P. M. Zimmerman,  D. Zuev,  B. Albrecht,  E. Alguire,  
 S. A. Baeppler,  Z. Benda,  Y. A. Bernard,  E. J. Berquist,  K. B. Bravaya,  
 D. Casanova,  Chun-Min Chang,  Yunqing Chen,  A. Chien,  K. D. Closser,  
 M. P. Coons,  S. Dasgupta,  M. Diedenhofen,  Hainam Do,  R. G. Edgar,  
 Po-Tung Fang,  S. Fatehi,  Qingguo Feng,  Qinghui Ge,  A. Ghysels,  
 J. Gomes,  J. Gonthier,  A. Gunina,  M. W. D. Hanson-Heine,  
 P. H. P. Harbach,  A. W. Hauser,  J. E. Herr,  E. G. Hohenstein,  
 Z. C. Holden,  Kerwin Hui,  T.-C. Jagau,  Hyunjun Ji,  B. Kaduk,  
 K. Khistyaev,  Jaehoon Kim,  P. Klunzinger,  K. Koh,  D. Kosenkov,  
 T. Kowalczyk,  C. M. Krauter,  A. Kunitsa,  Ka Un Lao,  A. Laurent,  
 K. V. Lawler,  Joonho Lee,  D. Lefrancois,  S. Lehtola,  D. S. Levine,  
 Yi-Pei Li,  You-Sheng Lin,  Fenglai Liu,  E. Livshits,  A. Luenser,  
 P. Manohar,  E. Mansoor,  S. F. Manzer,  Shan-Ping Mao,  Yuezhi Mao,  
 N. Mardirossian,  A. V. Marenich,  L. A. Martinez-Martinez,  S. A. Maurer,  
 N. J. Mayhall,  S. C. McKenzie,  J.-M. Mewes,  A. F. Morrison,  K. Nanda,  
 T. S. Nguyen-Beck,  R. Olivares-Amaya,  J. A. Parkhill,  T. M. Perrine,  
 F. Plasser,  S. Prager,  A. Prociuk,  D. R. Rehn,  F. Rob,  M. Schneider,  
 N. Sergueev,  S. M. Sharada,  S. Sharma,  D. W. Small,  T. Stauch,  
 T. Stein,  Yu-Chuan Su,  A. J. W. Thom,  T. Tsuchimochi,  L. Vogt,  
 O. Vydrov,  M. A. Watson,  J. Wenzel,  M. de Wergifosse,  T. A. Wesolowski,  
 A. White,  J. Witte,  A. Yamada,  Jun Yang,  K. Yao,  S. Yeganeh,  
 S. R. Yost,  Zhi-Qiang You,  A. Zech,  Igor Ying Zhang,  Xing Zhang,  
 Yan Zhao,  Ying Zhu,  B. R. Brooks,  G. K. L. Chan,  C. J. Cramer,  
 M. S. Gordon,  W. J. Hehre,  A. Klamt,  M. W. Schmidt,  C. D. Sherrill,  
 D. G. Truhlar,  A. Aspuru-Guzik,  R. Baer,  A. T. Bell,  N. A. Besley,  
 Jeng-Da Chai,  A. Dreuw,  B. D. Dunietz,  T. R. Furlani,  Chao-Ping Hsu,  
 Yousung Jung,  Jing Kong,  D. S. Lambrecht,  WanZhen Liang,  C. Ochsenfeld,  
 V. A. Rassolov,  L. V. Slipchenko,  J. E. Subotnik,  T. Van Voorhis,  
 J. M. Herbert,  A. I. Krylov,  P. M. W. Gill,  M. Head-Gordon

 Contributors to earlier versions of Q-Chem not listed above: 
 R. D. Adamson,  B. Austin,  J. Baker,  G. J. O. Beran,  K. Brandhorst,  
 S. T. Brown,  E. F. C. Byrd,  A. K. Chakraborty,  C.-L. Cheng,  
 Siu Hung Chien,  D. M. Chipman,  D. L. Crittenden,  H. Dachsel,  
 R. A. DiStasio Jr.,  R. J. Doerksen,  A. D. Dutoi,  L. Fusti-Molnar,  
 W. A. Goddard III,  A. Golubeva-Zadorozhnaya,  S. R. Gwaltney,  G. Hawkins,  
 A. Heyden,  S. Hirata,  G. Kedziora,  F. J. Keil,  C. Kelley,  Jihan Kim,  
 R. A. King,  R. Z. Khaliullin,  P. P. Korambath,  W. Kurlancheek,  
 A. M. Lee,  M. S. Lee,  S. V. Levchenko,  Ching Yeh Lin,  D. Liotard,  
 R. C. Lochan,  I. Lotan,  P. E. Maslen,  N. Nair,  D. P. O'Neill,  
 D. Neuhauser,  E. Neuscamman,  C. M. Oana,  R. Olson,  B. Peters,  
 R. Peverati,  P. A. Pieniazek,  Y. M. Rhee,  J. Ritchie,  M. A. Rohrdanz,  
 E. Rosta,  N. J. Russ,  H. F. Schaefer III,  N. E. Schultz,  N. Shenvi,  
 A. C. Simmonett,  A. Sodt,  D. Stuck,  K. S. Thanthiriwatte,  V. Vanovschi,  
 Tao Wang,  A. Warshel,  C. F. Williams,  Q. Wu,  X. Xu,  W. Zhang

 Please cite Q-Chem as follows:
 Y. Shao et al., Mol. Phys. 113, 184-215 (2015)
 DOI: 10.1080/00268976.2014.952696

 Q-Chem 5.0.1 for Intel X86 EM64T Linux

 Parts of Q-Chem use Armadillo 5.200.1 (Boston Tea Smuggler).
 http://arma.sourceforge.net/

 Q-Chem begins on Sun Jan 14 20:59:12 2018  

Host: vega02.cac.cornell.edu
0

     Scratch files written to /scratch/jj585/SOT1001/0559r.save//
 Parallel job on  1  processors

Checking the input file for inconsistencies... 	...done.

--------------------------------------------------------------
User input:
--------------------------------------------------------------
$molecule
0  1
O -4.2358570462 2.146004363 1.0878299255
C -3.725329095 1.80156678 0.0017346202
C -4.0662715612 0.549992068 -0.8792404475
C -3.4840671444 -0.8170474369 -0.3073179456
C -2.5488043759 -0.6558205484 0.9369253878
O -1.3004364234 -1.2841362937 0.6187206888
C -0.3570073907 -1.1545623023 1.7568253315
C 0.8061368125 -2.1685172348 1.5279134542
O 1.5479500654 -1.8102397046 0.2961867141
C 2.8708049381 -1.3535452735 0.6225476498
C 3.5859830973 -0.9964318928 -0.7269531838
C 3.8452978433 0.543861255 -1.0009912439
C 3.2158441649 1.5987480901 -0.0274214649
O 3.5154467217 2.8134564756 0.0072153606
O -2.6313947986 2.4933206203 -0.6217627263
O 2.1572534411 1.0207119302 0.7434652771
O 3.3546475665 -1.3641450357 1.7754628666
C 1.5537718849 2.0402606862 1.6348089545
C 5.0838923673 -1.5318299998 -0.6971154785
C 5.6661082866 -1.5146005184 -2.1656599851
C 5.9529197348 0.0201820319 -2.3634326445
C 5.4351793403 0.601344595 -0.9903575793
O 5.8142775002 -0.441261162 -0.0112937972
H 2.9973050104 -1.4436972408 -1.5468171245
H 3.4687019993 0.8032373366 -2.0088311095
H 5.2138205055 -2.48481079 -0.1484846623
H 6.5909228149 -2.1103386833 -2.2203941586
H 4.9463792765 -1.9113156237 -2.8995483516
H 7.0304092401 0.2175295357 -2.4809827223
H 5.4184160599 0.4485633952 -3.2262545981
H 5.8480645365 1.5873176145 -0.7006586741
O -2.793102583 -0.1072522805 2.033183011
C -2.2154613985 3.6388362982 0.2194847329
C -5.6237464451 0.2422444309 -0.8354166405
C -5.9659651192 -0.8019617304 -1.9709830474
C -5.4237727689 -2.1354115578 -1.3348029283
C -4.8307674962 -1.5989878245 0.0274674281
O -5.7766436734 -0.532260437 0.4172420608
H -3.7005411895 0.7328922562 -1.9048311129
H -2.9047581737 -1.3439973635 -1.0856266835
H -1.9736687613 3.3184810928 1.2536208512
H -6.2665322583 1.1431536998 -0.8104614245
H -7.0534695623 -0.8464322093 -2.1403378125
H -5.4693572321 -0.5544598034 -2.9227506374
H -6.2388662809 -2.8510809703 -1.1416834284
H -4.6605143381 -2.6281980084 -1.9579274391
H -4.7400362085 -2.3511827076 0.8348421927
H -3.0049972809 4.4164741448 0.2714751091
H -1.3141588963 4.0621082496 -0.2611921306
H 1.6300846234 1.6884272337 2.6819713381
H 0.4877120327 2.1721140269 1.3631831501
H 2.0977000323 2.9982456094 1.5066755356
H 1.512507671 -2.139898428 2.3878360892
H 0.4007072284 -3.1934689247 1.3984694875
H -0.8735295559 -1.3662307349 2.7188759699
H 0.0482399154 -0.1224480952 1.8020631025
$end

$rem
JOBTYPE                   OPT
METHOD                    B3LYP
DFT_D                     d3_op
BASIS                     STO-3G
GEOM_OPT_MAX_CYCLES       100
GEOM_OPT_TOL_GRADIENT     300
GEOM_OPT_TOL_DISPLACEMENT 1200
GEOM_OPT_TOL_ENERGY       100
SYMMETRY                  False
THRESH                    12
SCF_CONVERGENCE           8
MAX_SUB_FILE_NUM          128
MEM_STATIC                400
MEM_TOTAL                 4000
$end
--------------------------------------------------------------
 Adding empirical dispersion correction 
 ----------------------------------------------------------------
 Doing -D3(op) with
 s6 =   1.00000
 s8 =   0.78311
 a1 =   0.30000
 a2 =   4.25000
 n  =  10.00000
 -D3 energy without 3body term =     -0.0655930788 hartrees
 ----------------------------------------------------------------
             Standard Nuclear Orientation (Angstroms)
    I     Atom           X                Y                Z
 ----------------------------------------------------------------
    1      O      -4.3030602654     2.1244559534     0.7315783582
    2      C      -3.7460411674     1.6900871131    -0.2979518671
    3      C      -4.0244869745     0.3493643838    -1.0619731955
    4      C      -3.4292042857    -0.9383658948    -0.3393089656
    5      C      -2.5428407700    -0.6301518603     0.9129752894
    6      O      -1.2688136967    -1.2511820602     0.6993542271
    7      C      -0.3697513420    -0.9845933372     1.8494617315
    8      C       0.8255238111    -1.9829419677     1.7598681463
    9      O       1.6013598565    -1.7259527084     0.5238117543
   10      C       2.9001180262    -1.2025449058     0.8467634017
   11      C       3.6535405976    -0.9589652111    -0.5071884539
   12      C       3.8841582321     0.5538814170    -0.9230665172
   13      C       3.1947087781     1.6806863037    -0.0793802720
   14      O       3.4627176124     2.9009137227    -0.1548400239
   15      O      -2.6481976599     2.3481314910    -0.9503948082
   16      O       2.1241430864     1.1511594948     0.7096044872
   17      O       3.3429709257    -1.0868831547     2.0103497586
   18      C       1.4644267455     2.2355091580     1.4758442429
   19      C       5.1622575799    -1.4465493504    -0.3756271480
   20      C       5.7954737887    -1.5564594172    -1.8188361452
   21      C       6.0509999913    -0.0408731040    -2.1574167052
   22      C       5.4707555455     0.6568198363    -0.8660294202
   23      O       5.8406769658    -0.2741055820     0.2229352611
   24      H       3.1055050102    -1.5005423342    -1.2978314059
   25      H       3.5371557372     0.7028927531    -1.9633676594
   26      H       5.2962541934    -2.3373596362     0.2682295304
   27      H       6.7361185069    -2.1284486930    -1.7842314476
   28      H       5.1122148729    -2.0430369931    -2.5332480528
   29      H       7.1267554612     0.1742756146    -2.2584557571
   30      H       5.5369187428     0.2859904616    -3.0753203896
   31      H       5.8485806270     1.6775928035    -0.6615466743
   32      O      -2.8392945735     0.0157706672     1.9412207688
   33      C      -2.2907979102     3.5815734521    -0.2129733569
   34      C      -5.5744360837     0.0036875287    -1.0391167125
   35      C      -5.8502836576    -1.1556408554    -2.0768339218
   36      C      -5.2980817244    -2.4048050050    -1.2948824635
   37      C      -4.7671267313    -1.7214355986     0.0265861320
   38      O      -5.7523366230    -0.6487666902     0.2780940015
   39      H      -3.6273336542     0.4414395574    -2.0880525292
   40      H      -2.8098398393    -1.5223077724    -1.0424726494
   41      H      -2.0778929456     3.3706757206     0.8550726492
   42      H      -6.2398205657     0.8842912042    -1.1241727710
   43      H      -6.9296781664    -1.2470062468    -2.2765447958
   44      H      -5.3265877019    -0.9884077295    -3.0315662248
   45      H      -6.1015216349    -3.1208315852    -1.0589894170
   46      H      -4.5012775805    -2.9344308751    -1.8410378150
   47      H      -4.6864205673    -2.3883319365     0.9067106168
   48      H      -3.1006988037     4.3380571565    -0.2638012715
   49      H      -1.3838103939     3.9810570334    -0.7032203414
   50      H       1.5123249990     1.9899143847     2.5545232659
   51      H       0.4057085560     2.3101694284     1.1577387120
   52      H       1.9886524476     3.1913170383     1.2718103607
   53      H       1.5000945398    -1.8506212709     2.6354772653
   54      H       0.4504416012    -3.0266308642     1.7188598787
   55      H      -0.9145944907    -1.1157343019     2.8102364678
   56      H       0.0079513284     0.0579919035     1.8060073837
 ----------------------------------------------------------------
 Molecular Point Group                 C1    NOp =  1
 Largest Abelian Subgroup              C1    NOp =  1
 Nuclear Repulsion Energy =  3096.6090107343 hartrees
 There are      113 alpha and      113 beta electrons
 Requested basis set is STO-3G
 There are 86 shells and 176 basis functions

 Total QAlloc Memory Limit   4000 MB
 Mega-Array Size       392 MB
 MEM_STATIC part       400 MB
 A cutoff of  1.0D-12 yielded   2112 shell pairs
 There are      9948 function pairs
 
 -------------------------------------------------------
 OpenMP Integral Computing Module                       
 Release: version 1.0, May 2013, Q-Chem Inc. Pittsburgh 
 -------------------------------------------------------
 Integral Job Info:
 Integral job number is                      11
 Integral operator is                         1
 short-range coefficients                     0
 long-range coefficients              100000000
 Omega coefficients                           0
 if combine SR and LR in K                    0
 Integral screening is                        0
 Integral computing path is                   2
 max size of driver memory is            800000
 size of driver memory is                 45569
 size of scratch memory is              1046100
 max col of scratch BK array                289
 max len of scratch array in speh3           22
 max len of scratch index in speh4            8
 max int batch size is                      520
 min int batch size is                       52
 fixed nKL is                                52
 max L of basis functions is                  1
 order of int derivative is                   0
 number of shells is                         86
 number of basis is                         176
 number of cartesian basis is               176
 number of contracted shell pairs          2112
 number of primitive shell pairs          10751
 maxK2 (contraction) of shell pair            9
 max number of K2 of shell pair               1
 max number of CS2 of shell pair            323
 max number of PS2 of shell pair           1206
 mem total for path MDJ                   49782
 -------------------------------------------------------
 Smallest overlap matrix eigenvalue = 2.13E-01

 Scale SEOQF with 1.000000e-02/1.000000e-01/1.000000e-01

 Standard Electronic Orientation quadrupole field applied
 Nucleus-field energy     =     0.0000000203 hartrees
 Guess from superposition of atomic densities
 Warning:  Energy on first SCF cycle will be non-variational
 A restricted hybrid HF-DFT SCF calculation will be
 performed using Pulay DIIS extrapolation
 Exchange:     0.2000 Hartree-Fock + 0.0800 Slater + 0.7200 B88
 Correlation:  0.1900 VWN1RPA + 0.8100 LYP
 Using SG-1 standard quadrature grid
 Dispersion:   Grimme D3
 SCF converges when DIIS error is below 1.0E-08
 using 48 threads for integral computing
 -------------------------------------------------------
 OpenMP Integral computing Module                
 Release: version 1.0, May 2013, Q-Chem Inc. Pittsburgh 
 -------------------------------------------------------
 -------------------------------------------------------
 OpenMP BLAS3 based DFT computing Module                
 Release: version 1.0, May 2013, Q-Chem Inc. Pittsburgh 
 -------------------------------------------------------
 ---------------------------------------
  Cycle       Energy         DIIS Error
 ---------------------------------------
    1   -1507.6381227263      7.47E-02
    2   -1509.7230412961      1.06E-02
    3   -1507.0549508215      2.89E-02
    4   -1510.1656496418      5.05E-03
    5   -1510.2681814067      1.61E-03
    6   -1510.2786134777      4.65E-04
    7   -1510.2794604401      1.71E-04
    8   -1510.2795829404      4.15E-05
    9   -1510.2795893931      1.71E-05
   10   -1510.2795905423      6.13E-06
   11   -1510.2795907013      1.56E-06
   12   -1510.2795907122      3.76E-07
   13   -1510.2795907126      2.60E-07
   14   -1510.2795907128      6.16E-08
   15   -1510.2795907127      1.38E-08
   16   -1510.2795907129      5.88E-09 Convergence criterion met
 ---------------------------------------
 SCF time:  CPU 119.79 s  wall 2.55 s
 SCF   energy in the final basis set = -1510.27959071
 Total energy in the final basis set = -1510.27959071
 
 --------------------------------------------------------------
 
                    Orbital Energies (a.u.)
 --------------------------------------------------------------
 
 Alpha MOs
 -- Occupied --
-18.945 -18.931 -18.930 -18.927 -18.890 -18.889 -18.882 -18.874
-18.874 -18.870 -10.108 -10.099 -10.097 -10.095 -10.071 -10.068
-10.065 -10.063 -10.062 -10.061 -10.061 -10.060 -10.044 -10.039
-10.038 -10.037 -10.023 -10.021 -10.021 -10.020  -1.020  -1.013
 -1.007  -1.004  -0.973  -0.971  -0.944  -0.938  -0.932  -0.929
 -0.766  -0.763  -0.729  -0.723  -0.715  -0.707  -0.698  -0.667
 -0.663  -0.618  -0.600  -0.579  -0.549  -0.545  -0.540  -0.537
 -0.516  -0.511  -0.484  -0.474  -0.463  -0.455  -0.452  -0.450
 -0.438  -0.432  -0.432  -0.420  -0.418  -0.414  -0.411  -0.405
 -0.391  -0.386  -0.376  -0.369  -0.362  -0.356  -0.353  -0.349
 -0.345  -0.339  -0.338  -0.332  -0.332  -0.328  -0.327  -0.316
 -0.309  -0.308  -0.307  -0.300  -0.298  -0.293  -0.278  -0.274
 -0.273  -0.258  -0.251  -0.248  -0.241  -0.236  -0.234  -0.183
 -0.179  -0.174  -0.168  -0.166  -0.157  -0.152  -0.146  -0.145
 -0.143
 -- Virtual --
  0.093   0.098   0.102   0.105   0.220   0.231   0.245   0.251
  0.263   0.269   0.278   0.287   0.305   0.307   0.326   0.326
  0.331   0.337   0.341   0.348   0.350   0.365   0.370   0.372
  0.380   0.383   0.388   0.397   0.400   0.402   0.408   0.408
  0.412   0.415   0.417   0.419   0.421   0.422   0.424   0.427
  0.428   0.433   0.435   0.437   0.442   0.449   0.455   0.465
  0.465   0.466   0.484   0.485   0.489   0.501   0.503   0.540
  0.542   0.550   0.550   0.626   0.642   0.653   0.666
 --------------------------------------------------------------
 
          Ground-State Mulliken Net Atomic Charges

     Atom                 Charge (a.u.)
  ----------------------------------------
      1 O                    -0.200720
      2 C                     0.205839
      3 C                    -0.078834
      4 C                    -0.079634
      5 C                     0.202370
      6 O                    -0.171860
      7 C                    -0.049956
      8 C                    -0.053673
      9 O                    -0.172263
     10 C                     0.217879
     11 C                    -0.079434
     12 C                    -0.077860
     13 C                     0.214210
     14 O                    -0.214508
     15 O                    -0.173327
     16 O                    -0.168323
     17 O                    -0.217880
     18 C                    -0.137394
     19 C                     0.026280
     20 C                    -0.144760
     21 C                    -0.143175
     22 C                     0.025225
     23 O                    -0.186411
     24 H                     0.087200
     25 H                     0.086961
     26 H                     0.084735
     27 H                     0.078651
     28 H                     0.073758
     29 H                     0.078959
     30 H                     0.073712
     31 H                     0.089203
     32 O                    -0.209033
     33 C                    -0.130246
     34 C                     0.026484
     35 C                    -0.144555
     36 C                    -0.143246
     37 C                     0.026617
     38 O                    -0.183053
     39 H                     0.085678
     40 H                     0.087153
     41 H                     0.089195
     42 H                     0.085077
     43 H                     0.078252
     44 H                     0.073491
     45 H                     0.078138
     46 H                     0.073831
     47 H                     0.083690
     48 H                     0.088137
     49 H                     0.088593
     50 H                     0.090509
     51 H                     0.086323
     52 H                     0.105932
     53 H                     0.102145
     54 H                     0.086363
     55 H                     0.091730
     56 H                     0.087826
  ----------------------------------------
  Sum of atomic charges =    -0.000000

 -----------------------------------------------------------------
                    Cartesian Multipole Moments
 -----------------------------------------------------------------
    Charge (ESU x 10^10)
                -0.0000
    Dipole Moment (Debye)
         X       0.4230      Y      -1.5348      Z      -3.4876
       Tot       3.8338
    Quadrupole Moments (Debye-Ang)
        XX    -174.2867     XY       0.9397     YY    -153.3540
        XZ       2.4024     YZ      -0.2631     ZZ    -158.5358
    Octopole Moments (Debye-Ang^2)
       XXX      17.9384    XXY     -43.4253    XYY     -22.3081
       YYY      12.1457    XXZ    -125.2998    XYZ      17.0666
       YYZ      19.5080    XZZ       4.9500    YZZ      -0.4492
       ZZZ      20.6228
    Hexadecapole Moments (Debye-Ang^3)
      XXXX  -16131.9220   XXXY       5.0806   XXYY   -3020.3485
      XYYY    -134.8399   YYYY   -2668.1127   XXXZ      57.3934
      XXYZ     -14.5613   XYYZ      28.8856   YYYZ     -31.0735
      XXZZ   -2925.6235   XYZZ      32.9074   YYZZ    -710.7336
      XZZZ      -4.6670   YZZZ     -20.0812   ZZZZ   -1592.5354
 -----------------------------------------------------------------
 Calculating analytic gradient of the SCF energy
 Gradient of SCF Energy
            1           2           3           4           5           6
    1   0.0024762  -0.0046998   0.0032895  -0.0010167  -0.0000836  -0.0004245
    2  -0.0018215   0.0025415  -0.0003805  -0.0010047   0.0003709   0.0004425
    3   0.0020516  -0.0028468  -0.0002185   0.0011946   0.0001822   0.0000737
            7           8           9          10          11          12
    1   0.0009150  -0.0013237   0.0004224   0.0008062  -0.0030516   0.0026325
    2   0.0003525  -0.0001611   0.0006648  -0.0016180   0.0008208   0.0002209
    3  -0.0016342   0.0010194   0.0003437   0.0001416  -0.0021748   0.0015298
           13          14          15          16          17          18
    1   0.0025235  -0.0024886   0.0000365   0.0000368   0.0000200  -0.0000242
    2  -0.0005682   0.0003546   0.0000395  -0.0000104   0.0001078   0.0000005
    3   0.0032269  -0.0026340  -0.0000047  -0.0000949   0.0000698  -0.0000045
           19          20          21          22          23          24
    1  -0.0003396   0.0003247  -0.0001797   0.0001839  -0.0001246   0.0000226
    2   0.0001946  -0.0003160  -0.0000646  -0.0000405   0.0000088  -0.0000525
    3  -0.0003039   0.0001049  -0.0000082   0.0000144   0.0000632   0.0000340
           25          26          27          28          29          30
    1  -0.0001169   0.0000038  -0.0000004  -0.0000122  -0.0000050   0.0000788
    2   0.0000977  -0.0000558   0.0000341   0.0000036   0.0000312   0.0000822
    3  -0.0000317   0.0000519   0.0000210   0.0000328  -0.0000282  -0.0000087
           31          32          33          34          35          36
    1   0.0000088  -0.0000610   0.0000067  -0.0003367   0.0002926  -0.0000316
    2   0.0000148  -0.0000113   0.0000514  -0.0000270   0.0002262   0.0001337
    3   0.0000009  -0.0000521   0.0001067  -0.0003155   0.0001396  -0.0004270
           37          38          39          40          41          42
    1   0.0000728   0.0000640   0.0000072  -0.0000875   0.0000131  -0.0000124
    2  -0.0000576  -0.0000257  -0.0001133   0.0000168  -0.0000025  -0.0000807
    3   0.0003781  -0.0001148   0.0000485  -0.0000496  -0.0000113  -0.0000596
           43          44          45          46          47          48
    1   0.0000248   0.0000278   0.0000440  -0.0001111  -0.0000399  -0.0000213
    2   0.0000003  -0.0000985  -0.0000383   0.0000206  -0.0000100  -0.0000206
    3  -0.0000101   0.0001863   0.0000660  -0.0000314   0.0000539  -0.0000521
           49          50          51          52          53          54
    1   0.0000202   0.0000155  -0.0000007  -0.0000080   0.0001658   0.0000184
    2  -0.0000235   0.0000146  -0.0000667   0.0000009  -0.0001965   0.0000493
    3   0.0000052   0.0000138   0.0000251  -0.0000308   0.0000160  -0.0000115
           55          56
    1   0.0000935  -0.0000461
    2  -0.0000063  -0.0000252
    3  -0.0000195  -0.0000173
 Max gradient component =       4.700E-03
 RMS gradient           =       8.858E-04
 Gradient time:  CPU 30.44 s  wall 0.66 s
 Geometry Optimization Parameters
   NAtoms,    NIC,     NZ,  NCons,   NDum,   NFix, NCnnct, MaxDiis
       56     458       0       0       0       0       0       0


** GEOMETRY OPTIMIZATION IN DELOCALIZED INTERNAL COORDINATES **
   Searching for a Minimum

   Optimization Cycle:   1

                       Coordinates (Angstroms)
     ATOM                X               Y               Z
      1  O        -4.3030602654    2.1244559534    0.7315783582
      2  C        -3.7460411674    1.6900871131   -0.2979518671
      3  C        -4.0244869745    0.3493643838   -1.0619731955
      4  C        -3.4292042857   -0.9383658948   -0.3393089656
      5  C        -2.5428407700   -0.6301518603    0.9129752894
      6  O        -1.2688136967   -1.2511820602    0.6993542271
      7  C        -0.3697513420   -0.9845933372    1.8494617315
      8  C         0.8255238111   -1.9829419677    1.7598681463
      9  O         1.6013598565   -1.7259527084    0.5238117543
     10  C         2.9001180262   -1.2025449058    0.8467634017
     11  C         3.6535405976   -0.9589652111   -0.5071884539
     12  C         3.8841582321    0.5538814170   -0.9230665172
     13  C         3.1947087781    1.6806863037   -0.0793802720
     14  O         3.4627176124    2.9009137227   -0.1548400239
     15  O        -2.6481976599    2.3481314910   -0.9503948082
     16  O         2.1241430864    1.1511594948    0.7096044872
     17  O         3.3429709257   -1.0868831547    2.0103497586
     18  C         1.4644267455    2.2355091580    1.4758442429
     19  C         5.1622575799   -1.4465493504   -0.3756271480
     20  C         5.7954737887   -1.5564594172   -1.8188361452
     21  C         6.0509999913   -0.0408731040   -2.1574167052
     22  C         5.4707555455    0.6568198363   -0.8660294202
     23  O         5.8406769658   -0.2741055820    0.2229352611
     24  H         3.1055050102   -1.5005423342   -1.2978314059
     25  H         3.5371557372    0.7028927531   -1.9633676594
     26  H         5.2962541934   -2.3373596362    0.2682295304
     27  H         6.7361185069   -2.1284486930   -1.7842314476
     28  H         5.1122148729   -2.0430369931   -2.5332480528
     29  H         7.1267554612    0.1742756146   -2.2584557571
     30  H         5.5369187428    0.2859904616   -3.0753203896
     31  H         5.8485806270    1.6775928035   -0.6615466743
     32  O        -2.8392945735    0.0157706672    1.9412207688
     33  C        -2.2907979102    3.5815734521   -0.2129733569
     34  C        -5.5744360837    0.0036875287   -1.0391167125
     35  C        -5.8502836576   -1.1556408554   -2.0768339218
     36  C        -5.2980817244   -2.4048050050   -1.2948824635
     37  C        -4.7671267313   -1.7214355986    0.0265861320
     38  O        -5.7523366230   -0.6487666902    0.2780940015
     39  H        -3.6273336542    0.4414395574   -2.0880525292
     40  H        -2.8098398393   -1.5223077724   -1.0424726494
     41  H        -2.0778929456    3.3706757206    0.8550726492
     42  H        -6.2398205657    0.8842912042   -1.1241727710
     43  H        -6.9296781664   -1.2470062468   -2.2765447958
     44  H        -5.3265877019   -0.9884077295   -3.0315662248
     45  H        -6.1015216349   -3.1208315852   -1.0589894170
     46  H        -4.5012775805   -2.9344308751   -1.8410378150
     47  H        -4.6864205673   -2.3883319365    0.9067106168
     48  H        -3.1006988037    4.3380571565   -0.2638012715
     49  H        -1.3838103939    3.9810570334   -0.7032203414
     50  H         1.5123249990    1.9899143847    2.5545232659
     51  H         0.4057085560    2.3101694284    1.1577387120
     52  H         1.9886524476    3.1913170383    1.2718103607
     53  H         1.5000945398   -1.8506212709    2.6354772653
     54  H         0.4504416012   -3.0266308642    1.7188598787
     55  H        -0.9145944907   -1.1157343019    2.8102364678
     56  H         0.0079513284    0.0579919035    1.8060073837
   Point Group: c1    Number of degrees of freedom:   162


   Energy is  -1510.279590713


 Attempting to Generate Delocalized Internal Coordinates

162 Hessian modes will be used to form the next step
  Hessian Eigenvalues:
     0.002000    0.002000    0.002000    0.002000    0.002000    0.002691
     0.002691    0.004105    0.004119    0.004361    0.004539    0.004613
     0.004716    0.004822    0.004951    0.006807    0.006846    0.010748
     0.010797    0.011235    0.011487    0.021696    0.021751    0.025769
     0.026139    0.030705    0.030891    0.035243    0.035469    0.039443
     0.040928    0.041911    0.041917    0.044030    0.046098    0.046710
     0.047316    0.049873    0.051025    0.051115    0.051461    0.053585
     0.054139    0.054479    0.055022    0.055185    0.055970    0.056200
     0.057325    0.058364    0.058619    0.060457    0.060566    0.063746
     0.063767    0.064120    0.064143    0.069660    0.069775    0.072919
     0.072954    0.092289    0.092584    0.092844    0.094157    0.095694
     0.095955    0.096708    0.101146    0.101468    0.102421    0.108081
     0.110238    0.111390    0.111448    0.121487    0.121780    0.134859
     0.136228    0.157913    0.158734    0.160000    0.160000    0.160000
     0.160000    0.160000    0.160000    0.163517    0.163943    0.218905
     0.219713    0.220113    0.220913    0.224687    0.228069    0.238520
     0.238682    0.239350    0.239741    0.244644    0.244711    0.249120
     0.249288    0.249729    0.249984    0.250000    0.250000    0.250000
     0.250000    0.250000    0.250000    0.250000    0.250000    0.252953
     0.253514    0.261371    0.261714    0.262209    0.264238    0.268232
     0.293153    0.294065    0.307826    0.308204    0.322621    0.323611
     0.326213    0.326271    0.326626    0.326751    0.326999    0.328134
     0.328668    0.328853    0.328907    0.328987    0.329205    0.329492
     0.330604    0.332322    0.332326    0.332461    0.334828    0.334892
     0.334946    0.334951    0.334976    0.334986    0.335157    0.335228
     0.341204    0.342713    0.343617    0.344729    0.399970    0.400484
     0.405134    0.407838    0.826521    0.830996    0.832532    0.837746

 Minimum Search - Taking Simple RFO Step
 Searching for Lamda that Minimizes Along All modes
 Value Taken    Lamda =  -0.00555221
 Calculated Step too Large.  Step scaled by  0.388007
 Step Taken.  Stepsize is  0.300000

                             Maximum     Tolerance    Cnvgd?
         Gradient           0.003589      0.000300      NO
         Displacement       0.084492      0.001200      NO
         Energy change     *********      0.000001      NO


 New Cartesian Coordinates Obtained by Inverse Iteration

 Displacement from previous Coordinates is:  2.729543
 Adding empirical dispersion correction 
 ----------------------------------------------------------------
 Doing -D3(op) with
 s6 =   1.00000
 s8 =   0.78311
 a1 =   0.30000
 a2 =   4.25000
 n  =  10.00000
 -D3 energy without 3body term =     -0.0666053697 hartrees
 ----------------------------------------------------------------
             Standard Nuclear Orientation (Angstroms)
    I     Atom           X                Y                Z
 ----------------------------------------------------------------
    1      O      -4.1545891369     2.1762449417     0.7032532393
    2      C      -3.5442829201     1.6591054312    -0.2553905330
    3      C      -3.8881300772     0.3397642730    -1.0300591979
    4      C      -3.3945755798    -0.9834859188    -0.2965972578
    5      C      -2.5299564117    -0.7320276985     0.9832843307
    6      O      -1.2648465485    -1.3747705020     0.7812984649
    7      C      -0.3682134182    -1.1071445862     1.9330514246
    8      C       0.8535857749    -2.0705671948     1.8203381840
    9      O       1.6003408572    -1.7882883312     0.5720500852
   10      C       2.8629294343    -1.1711533963     0.8721936994
   11      C       3.6111216922    -0.9579571367    -0.4896650247
   12      C       3.7443175198     0.5398936428    -0.9944439682
   13      C       2.9806732912     1.6671322388    -0.2179703968
   14      O       3.2369761479     2.8901719012    -0.2885234583
   15      O      -2.3718079183     2.2300099471    -0.8581326642
   16      O       1.9164898399     1.1226580128     0.5695128234
   17      O       3.2938290085    -0.9774601792     2.0298592908
   18      C       1.2184251775     2.2025152787     1.3076402254
   19      C       5.1469006257    -1.3381020247    -0.3234629827
   20      C       5.7966725361    -1.4894550630    -1.7555295243
   21      C       5.9564019070     0.0173729640    -2.1803223088
   22      C       5.3207150599     0.7486516869    -0.9345047992
   23      O       5.7421933273    -0.0910749957     0.2085417199
   24      H       3.1054769436    -1.5790089177    -1.2495286988
   25      H       3.3998562220     0.6080973245    -2.0439310667
   26      H       5.3333207870    -2.1795128789     0.3716836114
   27      H       6.7720195094    -1.9962258783    -1.6841847114
   28      H       5.1518507060    -2.0597293290    -2.4432735692
   29      H       7.0167652547     0.2960701044    -2.2884942376
   30      H       5.4298729113     0.2562624326    -3.1180659273
   31      H       5.6295945847     1.8020557328    -0.7880398360
   32      O      -2.8190327037    -0.0709223657     2.0039628947
   33      C      -1.9840932637     3.4631631406    -0.1357443393
   34      C      -5.4565162980     0.0923101502    -1.0541394580
   35      C      -5.7741260594    -1.0441009153    -2.1055796511
   36      C      -5.3218834862    -2.3279792154    -1.3151840589
   37      C      -4.7885942252    -1.6839344323     0.0248339432
   38      O      -5.7127139812    -0.5531092733     0.2537216294
   39      H      -3.4535299194     0.4070003812    -2.0428400720
   40      H      -2.7900979085    -1.6008873724    -0.9839828758
   41      H      -1.8470412441     3.2741862883     0.9487081096
   42      H      -6.0627519225     1.0132597220    -1.1533148166
   43      H      -6.8510748743    -1.0679328206    -2.3357248608
   44      H      -5.2146232221    -0.9057056207    -3.0446031199
   45      H      -6.1742667371    -2.9941678901    -1.1066664862
   46      H      -4.5434280859    -2.9034056829    -1.8411871165
   47      H      -4.7752022113    -2.3579306786     0.9031081100
   48      H      -2.7423333433     4.2639716664    -0.2564206551
   49      H      -1.0275600359     3.7929567951    -0.5816510235
   50      H       1.2585426975     1.9773619776     2.3910793602
   51      H       0.1623961191     2.2436180072     0.9748048295
   52      H       1.7200272842     3.1681238842     1.0931561673
   53      H       1.5371033094    -1.9184420221     2.6856607759
   54      H       0.5104053567    -3.1253434678     1.7829211018
   55      H      -0.9043987801    -1.2627047927     2.8950981871
   56      H      -0.0148552155    -0.0556287050     1.9008310011
 ----------------------------------------------------------------
 Molecular Point Group                 C1    NOp =  1
 Largest Abelian Subgroup              C1    NOp =  1
 Nuclear Repulsion Energy =  3120.6426920235 hartrees
 There are      113 alpha and      113 beta electrons
 Applying Cartesian multipole field
    Component          Value
    ---------          -----
     (2,0,0)        1.00000E-12
     (0,2,0)        2.00000E-11
     (0,0,2)       -3.00000E-11
 Nucleus-field energy     =     0.0000000183 hartrees
 Requested basis set is STO-3G
 There are 86 shells and 176 basis functions
 A cutoff of  1.0D-12 yielded   2153 shell pairs
 There are     10127 function pairs
 Smallest overlap matrix eigenvalue = 2.13E-01
 Guess MOs from SCF MO coefficient file
 Reading MOs from coefficient file
 Reading MOs from coefficient file
 A restricted hybrid HF-DFT SCF calculation will be
 performed using Pulay DIIS extrapolation
 Exchange:     0.2000 Hartree-Fock + 0.0800 Slater + 0.7200 B88
 Correlation:  0.1900 VWN1RPA + 0.8100 LYP
 Using SG-1 standard quadrature grid
 Dispersion:   Grimme D3
 SCF converges when DIIS error is below 1.0E-08
 Geometry optimization detected.  Setting ReadMinima to 0
 Setting SaveMinima to 0
 using 48 threads for integral computing
 -------------------------------------------------------
 OpenMP Integral computing Module                
 Release: version 1.0, May 2013, Q-Chem Inc. Pittsburgh 
 -------------------------------------------------------
 -------------------------------------------------------
 OpenMP BLAS3 based DFT computing Module                
 Release: version 1.0, May 2013, Q-Chem Inc. Pittsburgh 
 -------------------------------------------------------
 ---------------------------------------
  Cycle       Energy         DIIS Error
 ---------------------------------------
    1   -1510.2143746074      3.73E-03
    2   -1510.2796557112      2.98E-04
    3   -1510.2797446092      3.80E-04
    4   -1510.2802584004      1.70E-04
    5   -1510.2803698307      5.88E-05
    6   -1510.2803848779      1.87E-05
    7   -1510.2803862247      9.31E-06
    8   -1510.2803865907      2.52E-06
    9   -1510.2803866204      5.97E-07
   10   -1510.2803866216      4.62E-07
   11   -1510.2803866226      1.67E-07
   12   -1510.2803866227      3.12E-08
   13   -1510.2803866227      1.45E-08
   14   -1510.2803866228      6.40E-09 Convergence criterion met
 ---------------------------------------
 SCF time:  CPU 98.97 s  wall 2.07 s
 SCF   energy in the final basis set = -1510.28038662
 Total energy in the final basis set = -1510.28038662
 
 --------------------------------------------------------------
 
                    Orbital Energies (a.u.)
 --------------------------------------------------------------
 
 Alpha MOs
 -- Occupied --
-18.945 -18.932 -18.931 -18.927 -18.890 -18.889 -18.882 -18.875
-18.875 -18.870 -10.108 -10.099 -10.097 -10.096 -10.071 -10.069
-10.065 -10.064 -10.062 -10.061 -10.061 -10.060 -10.044 -10.039
-10.038 -10.037 -10.022 -10.021 -10.021 -10.020  -1.020  -1.013
 -1.008  -1.005  -0.973  -0.971  -0.943  -0.938  -0.933  -0.929
 -0.766  -0.763  -0.729  -0.723  -0.715  -0.707  -0.698  -0.668
 -0.663  -0.618  -0.600  -0.579  -0.549  -0.545  -0.540  -0.537
 -0.516  -0.511  -0.484  -0.474  -0.464  -0.455  -0.452  -0.450
 -0.438  -0.432  -0.431  -0.424  -0.418  -0.415  -0.409  -0.403
 -0.392  -0.385  -0.376  -0.369  -0.362  -0.356  -0.353  -0.349
 -0.346  -0.339  -0.339  -0.332  -0.332  -0.328  -0.327  -0.316
 -0.309  -0.308  -0.307  -0.300  -0.298  -0.293  -0.279  -0.274
 -0.273  -0.259  -0.252  -0.248  -0.242  -0.236  -0.234  -0.183
 -0.179  -0.175  -0.169  -0.165  -0.157  -0.153  -0.146  -0.145
 -0.144
 -- Virtual --
  0.093   0.097   0.102   0.106   0.220   0.231   0.245   0.251
  0.261   0.269   0.279   0.287   0.304   0.306   0.326   0.326
  0.331   0.336   0.341   0.347   0.351   0.365   0.370   0.372
  0.379   0.382   0.389   0.398   0.398   0.402   0.408   0.409
  0.410   0.414   0.417   0.419   0.420   0.421   0.423   0.427
  0.429   0.432   0.436   0.437   0.443   0.449   0.463   0.465
  0.465   0.470   0.484   0.487   0.489   0.501   0.503   0.540
  0.541   0.550   0.550   0.627   0.642   0.652   0.664
 --------------------------------------------------------------
 
          Ground-State Mulliken Net Atomic Charges

     Atom                 Charge (a.u.)
  ----------------------------------------
      1 O                    -0.201477
      2 C                     0.206556
      3 C                    -0.078748
      4 C                    -0.079709
      5 C                     0.202530
      6 O                    -0.171335
      7 C                    -0.049532
      8 C                    -0.053404
      9 O                    -0.171562
     10 C                     0.217302
     11 C                    -0.079253
     12 C                    -0.077991
     13 C                     0.214019
     14 O                    -0.214716
     15 O                    -0.173562
     16 O                    -0.168244
     17 O                    -0.217973
     18 C                    -0.138394
     19 C                     0.026292
     20 C                    -0.144753
     21 C                    -0.143229
     22 C                     0.025075
     23 O                    -0.186436
     24 H                     0.087242
     25 H                     0.086520
     26 H                     0.084809
     27 H                     0.078610
     28 H                     0.073712
     29 H                     0.078941
     30 H                     0.073588
     31 H                     0.089722
     32 O                    -0.209770
     33 C                    -0.130872
     34 C                     0.026545
     35 C                    -0.144454
     36 C                    -0.143295
     37 C                     0.026415
     38 O                    -0.183183
     39 H                     0.086010
     40 H                     0.087104
     41 H                     0.089246
     42 H                     0.085665
     43 H                     0.078356
     44 H                     0.073444
     45 H                     0.078119
     46 H                     0.073777
     47 H                     0.083652
     48 H                     0.088979
     49 H                     0.089338
     50 H                     0.089754
     51 H                     0.087735
     52 H                     0.104976
     53 H                     0.101764
     54 H                     0.086684
     55 H                     0.091200
     56 H                     0.088210
  ----------------------------------------
  Sum of atomic charges =    -0.000000

 -----------------------------------------------------------------
                    Cartesian Multipole Moments
 -----------------------------------------------------------------
    Charge (ESU x 10^10)
                -0.0000
    Dipole Moment (Debye)
         X       0.4738      Y      -1.7982      Z      -3.4603
       Tot       3.9283
    Quadrupole Moments (Debye-Ang)
        XX    -173.8295     XY       0.5453     YY    -153.6747
        XZ       2.3819     YZ      -1.1318     ZZ    -158.3055
    Octopole Moments (Debye-Ang^2)
       XXX      26.0599    XXY     -51.1459    XYY     -18.0176
       YYY       9.3881    XXZ    -119.7252    XYZ      14.9305
       YYZ      20.6535    XZZ       4.3368    YZZ      -2.5982
       ZZZ      19.8804
    Hexadecapole Moments (Debye-Ang^3)
      XXXX  -15506.1927   XXXY     -36.1614   XXYY   -2910.4696
      XYYY    -150.6727   YYYY   -2614.2760   XXXZ      93.6444
      XXYZ     -19.2568   XYYZ      45.1957   YYYZ      10.9217
      XXZZ   -2821.0561   XYZZ      11.0746   YYZZ    -698.7466
      XZZZ      33.2854   YZZZ      17.4140   ZZZZ   -1609.9930
 -----------------------------------------------------------------
 Calculating analytic gradient of the SCF energy
 Gradient of SCF Energy
            1           2           3           4           5           6
    1   0.0003640   0.0001627   0.0012621  -0.0001503  -0.0019226   0.0001726
    2  -0.0003897  -0.0008084   0.0006164   0.0013504  -0.0031571   0.0014125
    3   0.0005165   0.0008473  -0.0011762   0.0004893   0.0021778  -0.0002901
            7           8           9          10          11          12
    1   0.0005168  -0.0007022   0.0000741   0.0006288  -0.0017225   0.0027273
    2  -0.0004045  -0.0002667   0.0015279  -0.0004783  -0.0001750   0.0000017
    3  -0.0015355   0.0007899   0.0002342   0.0004624  -0.0013767   0.0024508
           13          14          15          16          17          18
    1  -0.0020854  -0.0004917  -0.0011576   0.0004608   0.0003145   0.0006868
    2  -0.0001332   0.0000535   0.0010322   0.0006341  -0.0006383   0.0001285
    3  -0.0024224  -0.0004821  -0.0011624   0.0009375   0.0001345   0.0004711
           19          20          21          22          23          24
    1  -0.0000568   0.0001307  -0.0000459  -0.0000517   0.0000038   0.0000415
    2   0.0000305  -0.0001849   0.0001002  -0.0001770  -0.0002124   0.0000480
    3  -0.0004057   0.0001608  -0.0001203   0.0002348   0.0002869  -0.0000833
           25          26          27          28          29          30
    1  -0.0000410   0.0000723  -0.0000179   0.0000222   0.0000299   0.0000199
    2   0.0006835  -0.0000371   0.0000379   0.0000023   0.0000284  -0.0000336
    3   0.0001152   0.0000994   0.0000040  -0.0000327  -0.0000636   0.0000982
           31          32          33          34          35          36
    1   0.0001546   0.0008726   0.0006948  -0.0002432  -0.0001552   0.0000906
    2  -0.0001201   0.0006491  -0.0002645   0.0000440   0.0003047   0.0001152
    3  -0.0001249  -0.0005950   0.0004724  -0.0006699  -0.0000412  -0.0001757
           37          38          39          40          41          42
    1  -0.0003032   0.0001771   0.0001638  -0.0000530   0.0005632  -0.0000560
    2  -0.0001693  -0.0002601  -0.0003525   0.0001283  -0.0005160  -0.0001233
    3   0.0004491  -0.0000505   0.0001801  -0.0001651   0.0000220  -0.0000871
           43          44          45          46          47          48
    1  -0.0000309   0.0000902   0.0000112   0.0000054   0.0000576   0.0001210
    2  -0.0000405  -0.0001162   0.0000553  -0.0001283   0.0000254   0.0000453
    3  -0.0000570   0.0001946   0.0000242   0.0000462   0.0000080  -0.0000523
           49          50          51          52          53          54
    1   0.0002378  -0.0002732  -0.0016239  -0.0001203   0.0004247  -0.0000812
    2  -0.0002514  -0.0001235   0.0008819   0.0000617  -0.0004553  -0.0001224
    3   0.0001082   0.0000181  -0.0006136  -0.0002100  -0.0000532   0.0004047
           55          56
    1  -0.0000734   0.0001034
    2   0.0003558  -0.0002153
    3   0.0000179  -0.0004094
 Max gradient component =       3.157E-03
 RMS gradient           =       6.948E-04
 Gradient time:  CPU 30.22 s  wall 0.65 s
 Geometry Optimization Parameters
   NAtoms,    NIC,     NZ,  NCons,   NDum,   NFix, NCnnct, MaxDiis
       56     458       0       0       0       0       0       0

 Cartesian Hessian Update
 Hessian Updated using BFGS Update


** GEOMETRY OPTIMIZATION IN DELOCALIZED INTERNAL COORDINATES **
   Searching for a Minimum

   Optimization Cycle:   2

                       Coordinates (Angstroms)
     ATOM                X               Y               Z
      1  O        -4.1545891369    2.1762449417    0.7032532393
      2  C        -3.5442829201    1.6591054312   -0.2553905330
      3  C        -3.8881300772    0.3397642730   -1.0300591979
      4  C        -3.3945755798   -0.9834859188   -0.2965972578
      5  C        -2.5299564117   -0.7320276985    0.9832843307
      6  O        -1.2648465485   -1.3747705020    0.7812984649
      7  C        -0.3682134182   -1.1071445862    1.9330514246
      8  C         0.8535857749   -2.0705671948    1.8203381840
      9  O         1.6003408572   -1.7882883312    0.5720500852
     10  C         2.8629294343   -1.1711533963    0.8721936994
     11  C         3.6111216922   -0.9579571367   -0.4896650247
     12  C         3.7443175198    0.5398936428   -0.9944439682
     13  C         2.9806732912    1.6671322388   -0.2179703968
     14  O         3.2369761479    2.8901719012   -0.2885234583
     15  O        -2.3718079183    2.2300099471   -0.8581326642
     16  O         1.9164898399    1.1226580128    0.5695128234
     17  O         3.2938290085   -0.9774601792    2.0298592908
     18  C         1.2184251775    2.2025152787    1.3076402254
     19  C         5.1469006257   -1.3381020247   -0.3234629827
     20  C         5.7966725361   -1.4894550630   -1.7555295243
     21  C         5.9564019070    0.0173729640   -2.1803223088
     22  C         5.3207150599    0.7486516869   -0.9345047992
     23  O         5.7421933273   -0.0910749957    0.2085417199
     24  H         3.1054769436   -1.5790089177   -1.2495286988
     25  H         3.3998562220    0.6080973245   -2.0439310667
     26  H         5.3333207870   -2.1795128789    0.3716836114
     27  H         6.7720195094   -1.9962258783   -1.6841847114
     28  H         5.1518507060   -2.0597293290   -2.4432735692
     29  H         7.0167652547    0.2960701044   -2.2884942376
     30  H         5.4298729113    0.2562624326   -3.1180659273
     31  H         5.6295945847    1.8020557328   -0.7880398360
     32  O        -2.8190327037   -0.0709223657    2.0039628947
     33  C        -1.9840932637    3.4631631406   -0.1357443393
     34  C        -5.4565162980    0.0923101502   -1.0541394580
     35  C        -5.7741260594   -1.0441009153   -2.1055796511
     36  C        -5.3218834862   -2.3279792154   -1.3151840589
     37  C        -4.7885942252   -1.6839344323    0.0248339432
     38  O        -5.7127139812   -0.5531092733    0.2537216294
     39  H        -3.4535299194    0.4070003812   -2.0428400720
     40  H        -2.7900979085   -1.6008873724   -0.9839828758
     41  H        -1.8470412441    3.2741862883    0.9487081096
     42  H        -6.0627519225    1.0132597220   -1.1533148166
     43  H        -6.8510748743   -1.0679328206   -2.3357248608
     44  H        -5.2146232221   -0.9057056207   -3.0446031199
     45  H        -6.1742667371   -2.9941678901   -1.1066664862
     46  H        -4.5434280859   -2.9034056829   -1.8411871165
     47  H        -4.7752022113   -2.3579306786    0.9031081100
     48  H        -2.7423333433    4.2639716664   -0.2564206551
     49  H        -1.0275600359    3.7929567951   -0.5816510235
     50  H         1.2585426975    1.9773619776    2.3910793602
     51  H         0.1623961191    2.2436180072    0.9748048295
     52  H         1.7200272842    3.1681238842    1.0931561673
     53  H         1.5371033094   -1.9184420221    2.6856607759
     54  H         0.5104053567   -3.1253434678    1.7829211018
     55  H        -0.9043987801   -1.2627047927    2.8950981871
     56  H        -0.0148552155   -0.0556287050    1.9008310011
   Point Group: c1    Number of degrees of freedom:   162


   Energy is  -1510.280386623

 Hessian Updated using BFGS Update

149 Hessian modes will be used to form the next step
  Hessian Eigenvalues:
     0.001439    0.002460    0.002683    0.002764    0.003236    0.004305
     0.004363    0.004482    0.004658    0.004720    0.004951    0.006680
     0.006838    0.008869    0.010448    0.011036    0.011451    0.021503
     0.021742    0.024799    0.026079    0.029791    0.030847    0.032956
     0.035412    0.036500    0.039043    0.041127    0.041911    0.041960
     0.043326    0.046345    0.046752    0.048643    0.049997    0.051025
     0.051425    0.053563    0.054048    0.054470    0.054963    0.055099
     0.055786    0.056169    0.057199    0.057638    0.058524    0.060072
     0.060478    0.063714    0.063762    0.064115    0.064142    0.069627
     0.069684    0.071681    0.072945    0.073630    0.092455    0.092683
     0.092812    0.094228    0.095784    0.096666    0.098457    0.101190
     0.101534    0.102593    0.108121    0.110385    0.111372    0.113141
     0.121703    0.130358    0.135395    0.142537    0.158374    0.159860
     0.159997    0.162257    0.163560    0.172480    0.218895    0.220013
     0.220409    0.223724    0.227053    0.231259    0.238616    0.239047
     0.239320    0.239742    0.244646    0.244732    0.249121    0.249288
     0.249523    0.249737    0.249984    0.252951    0.253513    0.261364
     0.261681    0.261937    0.264149    0.267764    0.293008    0.293977
     0.307012    0.308149    0.322584    0.323573    0.323899    0.326230
     0.326291    0.326627    0.326771    0.327000    0.328666    0.328853
     0.328904    0.328985    0.329203    0.329484    0.330599    0.332315
     0.332325    0.332461    0.334827    0.334886    0.334934    0.334939
     0.334953    0.334982    0.335151    0.335227    0.337860    0.342128
     0.343605    0.344713    0.364525    0.400297    0.401358    0.407513
     0.410014    0.826520    0.830995    0.832573    0.837749

 Minimum Search - Taking Simple RFO Step
 Searching for Lamda that Minimizes Along All modes
 Value Taken    Lamda =  -0.00514471
 Calculated Step too Large.  Step scaled by  0.428383
 Step Taken.  Stepsize is  0.300000

                             Maximum     Tolerance    Cnvgd?
         Gradient           0.014377      0.000300      NO
         Displacement       0.095524      0.001200      NO
         Energy change     -0.000796      0.000001      NO


 New Cartesian Coordinates Obtained by Inverse Iteration

 Displacement from previous Coordinates is:  1.917127
 Adding empirical dispersion correction 
 ----------------------------------------------------------------
 Doing -D3(op) with
 s6 =   1.00000
 s8 =   0.78311
 a1 =   0.30000
 a2 =   4.25000
 n  =  10.00000
 -D3 energy without 3body term =     -0.0656137530 hartrees
 ----------------------------------------------------------------
             Standard Nuclear Orientation (Angstroms)
    I     Atom           X                Y                Z
 ----------------------------------------------------------------
    1      O      -4.3185374732     2.2213722041     0.6292038358
    2      C      -3.6383105998     1.6737442039    -0.2631610092
    3      C      -3.9414635249     0.3423474551    -1.0346368226
    4      C      -3.3970261300    -0.9671780918    -0.3128029896
    5      C      -2.5272678373    -0.6994680569     0.9607038382
    6      O      -1.2648001670    -1.3502385610     0.7655787126
    7      C      -0.3773159493    -1.1052922436     1.9298560467
    8      C       0.8506297512    -2.0598247355     1.7988363614
    9      O       1.5941002516    -1.7581793289     0.5532528906
   10      C       2.8597119328    -1.1496130424     0.8594182584
   11      C       3.6152232290    -0.9465530613    -0.4997717996
   12      C       3.7906661745     0.5531224741    -0.9857277142
   13      C       3.0882610540     1.6883655172    -0.1656124354
   14      O       3.4502500445     2.8861545124    -0.1375364972
   15      O      -2.4861704016     2.2797326398    -0.8704290625
   16      O       2.0179177337     1.1624166854     0.6259929404
   17      O       3.2931408461    -0.9731769279     2.0188538287
   18      C       1.4276937084     2.2302896410     1.4677805976
   19      C       5.1382277058    -1.3793100000    -0.3473142986
   20      C       5.7692620827    -1.5379495386    -1.7869734260
   21      C       5.9734251493    -0.0332650330    -2.1996076257
   22      C       5.3743283248     0.7059028227    -0.9404771200
   23      O       5.7791530104    -0.1580730053     0.1903867203
   24      H       3.0862534508    -1.5412920362    -1.2647911049
   25      H       3.4365403342     0.6556072169    -2.0291416769
   26      H       5.3017475428    -2.2333937985     0.3379367032
   27      H       6.7282427036    -2.0767992443    -1.7298730457
   28      H       5.0997822619    -2.0804929285    -2.4735994891
   29      H       7.0411938576     0.2118169211    -2.3158723288
   30      H       5.4454981009     0.2313269224    -3.1296651846
   31      H       5.7201014266     1.7466230204    -0.7859124881
   32      O      -2.8285576144    -0.0609527956     1.9922364003
   33      C      -2.2065999054     3.5827870733    -0.2248729636
   34      C      -5.5005306097     0.0432676006    -1.0494153927
   35      C      -5.7892212669    -1.0995134821    -2.1028441312
   36      C      -5.2879227183    -2.3704519517    -1.3208918446
   37      C      -4.7651142131    -1.7136789979     0.0168441517
   38      O      -5.7245761201    -0.6149818962     0.2579270853
   39      H      -3.5138555744     0.4261094683    -2.0492468456
   40      H      -2.7801868122    -1.5617104321    -1.0093401675
   41      H      -2.0972737145     3.4788168071     0.8740617620
   42      H      -6.1373863240     0.9442860960    -1.1400615246
   43      H      -6.8667633452    -1.1582032521    -2.3237976374
   44      H      -5.2430686751    -0.9388376866    -3.0463645539
   45      H      -6.1160881026    -3.0652442140    -1.1081497197
   46      H      -4.4949902127    -2.9177702175    -1.8552948311
   47      H      -4.7222234037    -2.3903599919     0.8920576909
   48      H      -3.0114805312     4.3195102792    -0.4254066599
   49      H      -1.2588686614     3.9466383362    -0.6629470103
   50      H       1.4972761212     1.9258049160     2.5301134580
   51      H       0.3645258459     2.3638358023     1.1878346395
   52      H       1.9855147894     3.1735915909     1.2975038048
   53      H       1.5331365092    -1.9170605733     2.6663980296
   54      H       0.5129235551    -3.1156611691     1.7450355115
   55      H      -0.9174019605    -1.2830746965     2.8859088751
   56      H      -0.0274472924    -0.0520705768     1.9212517706
 ----------------------------------------------------------------
 Molecular Point Group                 C1    NOp =  1
 Largest Abelian Subgroup              C1    NOp =  1
 Nuclear Repulsion Energy =  3103.8112826064 hartrees
 There are      113 alpha and      113 beta electrons
 Applying Cartesian multipole field
    Component          Value
    ---------          -----
     (2,0,0)        1.00000E-12
     (0,2,0)        2.00000E-11
     (0,0,2)       -3.00000E-11
 Nucleus-field energy     =     0.0000000194 hartrees
 Requested basis set is STO-3G
 There are 86 shells and 176 basis functions
 A cutoff of  1.0D-12 yielded   2128 shell pairs
 There are     10027 function pairs
 Smallest overlap matrix eigenvalue = 2.13E-01
 Guess MOs from SCF MO coefficient file
 Reading MOs from coefficient file
 Reading MOs from coefficient file
 A restricted hybrid HF-DFT SCF calculation will be
 performed using Pulay DIIS extrapolation
 Exchange:     0.2000 Hartree-Fock + 0.0800 Slater + 0.7200 B88
 Correlation:  0.1900 VWN1RPA + 0.8100 LYP
 Using SG-1 standard quadrature grid
 Dispersion:   Grimme D3
 SCF converges when DIIS error is below 1.0E-08
 Geometry optimization detected.  Setting ReadMinima to 0
 Setting SaveMinima to 0
 using 48 threads for integral computing
 -------------------------------------------------------
 OpenMP Integral computing Module                
 Release: version 1.0, May 2013, Q-Chem Inc. Pittsburgh 
 -------------------------------------------------------
 -------------------------------------------------------
 OpenMP BLAS3 based DFT computing Module                
 Release: version 1.0, May 2013, Q-Chem Inc. Pittsburgh 
 -------------------------------------------------------
 ---------------------------------------
  Cycle       Energy         DIIS Error
 ---------------------------------------
    1   -1510.2340644628      3.38E-03
    2   -1510.2800131439      2.10E-04
    3   -1510.2803629022      1.52E-04
    4   -1510.2803831141      1.51E-04
    5   -1510.2804801145      3.81E-05
    6   -1510.2804855911      1.36E-05
    7   -1510.2804862632      6.75E-06
    8   -1510.2804864612      1.21E-06
    9   -1510.2804864678      3.84E-07
   10   -1510.2804864683      2.37E-07
   11   -1510.2804864686      6.48E-08
   12   -1510.2804864686      1.85E-08
   13   -1510.2804864686      8.07E-09 Convergence criterion met
 ---------------------------------------
 SCF time:  CPU 93.42 s  wall 1.95 s
 SCF   energy in the final basis set = -1510.28048647
 Total energy in the final basis set = -1510.28048647
 
 --------------------------------------------------------------
 
                    Orbital Energies (a.u.)
 --------------------------------------------------------------
 
 Alpha MOs
 -- Occupied --
-18.945 -18.932 -18.931 -18.927 -18.890 -18.889 -18.882 -18.874
-18.874 -18.869 -10.108 -10.099 -10.097 -10.095 -10.072 -10.069
-10.064 -10.063 -10.062 -10.061 -10.061 -10.060 -10.043 -10.039
-10.038 -10.036 -10.022 -10.021 -10.021 -10.020  -1.020  -1.013
 -1.008  -1.004  -0.973  -0.970  -0.943  -0.938  -0.933  -0.929
 -0.766  -0.763  -0.729  -0.723  -0.715  -0.707  -0.698  -0.666
 -0.663  -0.618  -0.600  -0.579  -0.549  -0.545  -0.540  -0.537
 -0.515  -0.511  -0.484  -0.474  -0.463  -0.454  -0.452  -0.450
 -0.438  -0.432  -0.431  -0.420  -0.417  -0.414  -0.410  -0.405
 -0.392  -0.386  -0.376  -0.368  -0.362  -0.355  -0.353  -0.349
 -0.345  -0.340  -0.339  -0.332  -0.332  -0.328  -0.327  -0.315
 -0.309  -0.307  -0.306  -0.300  -0.299  -0.292  -0.278  -0.274
 -0.273  -0.258  -0.252  -0.248  -0.242  -0.236  -0.234  -0.183
 -0.178  -0.175  -0.169  -0.166  -0.156  -0.152  -0.146  -0.145
 -0.144
 -- Virtual --
  0.091   0.097   0.102   0.107   0.221   0.232   0.245   0.250
  0.262   0.269   0.280   0.287   0.305   0.306   0.326   0.327
  0.332   0.336   0.341   0.348   0.352   0.366   0.369   0.371
  0.379   0.382   0.388   0.399   0.402   0.405   0.408   0.410
  0.412   0.415   0.418   0.419   0.420   0.421   0.425   0.427
  0.429   0.432   0.435   0.437   0.442   0.449   0.456   0.463
  0.465   0.466   0.481   0.485   0.489   0.502   0.503   0.540
  0.542   0.550   0.550   0.627   0.642   0.653   0.663
 --------------------------------------------------------------
 
          Ground-State Mulliken Net Atomic Charges

     Atom                 Charge (a.u.)
  ----------------------------------------
      1 O                    -0.203082
      2 C                     0.207185
      3 C                    -0.078813
      4 C                    -0.079768
      5 C                     0.203030
      6 O                    -0.171121
      7 C                    -0.049185
      8 C                    -0.053447
      9 O                    -0.171851
     10 C                     0.217701
     11 C                    -0.079329
     12 C                    -0.078261
     13 C                     0.214171
     14 O                    -0.213673
     15 O                    -0.173445
     16 O                    -0.167841
     17 O                    -0.219131
     18 C                    -0.137349
     19 C                     0.026261
     20 C                    -0.144628
     21 C                    -0.143358
     22 C                     0.025049
     23 O                    -0.186514
     24 H                     0.087286
     25 H                     0.086062
     26 H                     0.084857
     27 H                     0.078542
     28 H                     0.073726
     29 H                     0.078976
     30 H                     0.073525
     31 H                     0.090194
     32 O                    -0.210333
     33 C                    -0.130357
     34 C                     0.026559
     35 C                    -0.144433
     36 C                    -0.143241
     37 C                     0.026320
     38 O                    -0.183302
     39 H                     0.086051
     40 H                     0.086826
     41 H                     0.089635
     42 H                     0.086222
     43 H                     0.078391
     44 H                     0.073414
     45 H                     0.078150
     46 H                     0.073820
     47 H                     0.083439
     48 H                     0.088057
     49 H                     0.088476
     50 H                     0.090859
     51 H                     0.086600
     52 H                     0.105798
     53 H                     0.101683
     54 H                     0.086548
     55 H                     0.091220
     56 H                     0.087828
  ----------------------------------------
  Sum of atomic charges =    -0.000000

 -----------------------------------------------------------------
                    Cartesian Multipole Moments
 -----------------------------------------------------------------
    Charge (ESU x 10^10)
                -0.0000
    Dipole Moment (Debye)
         X       0.4734      Y      -1.7159      Z      -3.4792
       Tot       3.9081
    Quadrupole Moments (Debye-Ang)
        XX    -175.3387     XY       0.4361     YY    -153.1781
        XZ       2.3938     YZ      -1.2211     ZZ    -157.7386
    Octopole Moments (Debye-Ang^2)
       XXX      24.1226    XXY     -52.2651    XYY     -19.4342
       YYY      11.0508    XXZ    -121.9960    XYZ      14.6406
       YYZ      19.1104    XZZ       4.6625    YZZ      -0.9120
       ZZZ      20.8275
    Hexadecapole Moments (Debye-Ang^3)
      XXXX  -15833.2574   XXXY     -23.8807   XXYY   -2976.0743
      XYYY    -145.6274   YYYY   -2675.1355   XXXZ      75.7529
      XXYZ     -24.0755   XYYZ      37.0062   YYYZ     -16.3919
      XXZZ   -2860.7220   XYZZ      17.1444   YYZZ    -710.5315
      XZZZ      12.3054   YZZZ      -1.7627   ZZZZ   -1626.5407
 -----------------------------------------------------------------
 Calculating analytic gradient of the SCF energy
 Gradient of SCF Energy
            1           2           3           4           5           6
    1  -0.0012317   0.0050501  -0.0012396  -0.0004894  -0.0002108   0.0003002
    2   0.0014365  -0.0049361   0.0028064   0.0002230   0.0003256   0.0007899
    3  -0.0023942   0.0067826  -0.0026886   0.0014742   0.0002427  -0.0000259
            7           8           9          10          11          12
    1  -0.0001019   0.0000648   0.0005059  -0.0009208   0.0000965   0.0024098
    2  -0.0011762  -0.0000947   0.0009151   0.0011079  -0.0006994  -0.0003840
    3  -0.0001179   0.0005393  -0.0000092  -0.0001740  -0.0005483   0.0042432
           13          14          15          16          17          18
    1  -0.0075291   0.0019235  -0.0019056   0.0022571   0.0003388   0.0009330
    2   0.0015433  -0.0007516   0.0013725  -0.0004085  -0.0005114   0.0000104
    3  -0.0088406   0.0021057  -0.0022054   0.0027853  -0.0002541   0.0006727
           19          20          21          22          23          24
    1   0.0002777   0.0000879   0.0000624  -0.0003602   0.0000651  -0.0001033
    2  -0.0002286   0.0000367   0.0001634  -0.0009804  -0.0002463   0.0001247
    3  -0.0003294   0.0001997  -0.0001416   0.0002792   0.0003085   0.0000229
           25          26          27          28          29          30
    1   0.0001572   0.0000939  -0.0000223  -0.0000195   0.0000371  -0.0000052
    2   0.0012719   0.0000042   0.0000145   0.0000475  -0.0000127   0.0000205
    3   0.0000221   0.0000495   0.0000243  -0.0000492  -0.0000466   0.0000482
           31          32          33          34          35          36
    1   0.0002955   0.0003550  -0.0007544  -0.0004056  -0.0002714   0.0000024
    2  -0.0001978  -0.0012853   0.0003482  -0.0001113   0.0000620  -0.0000355
    3  -0.0001020   0.0004469  -0.0007847  -0.0006214  -0.0000221  -0.0000173
           37          38          39          40          41          42
    1  -0.0001949   0.0000028   0.0003989   0.0000789  -0.0002676  -0.0001363
    2   0.0001420   0.0001172  -0.0006265   0.0002114  -0.0002021  -0.0001021
    3  -0.0001162  -0.0001864   0.0002165  -0.0001038   0.0000552  -0.0001660
           43          44          45          46          47          48
    1  -0.0000068   0.0000861  -0.0000243   0.0000068   0.0001080   0.0001842
    2  -0.0000642  -0.0000075   0.0000105  -0.0000634   0.0000412   0.0002286
    3  -0.0000949   0.0000737  -0.0000048   0.0000093  -0.0000316   0.0001363
           49          50          51          52          53          54
    1  -0.0000496  -0.0002097   0.0004495  -0.0002220   0.0001220  -0.0000180
    2   0.0000327   0.0002642   0.0001706   0.0001261  -0.0003458  -0.0000946
    3  -0.0000667   0.0000792  -0.0001018  -0.0002477   0.0000574   0.0001485
           55          56
    1  -0.0000739   0.0000226
    2   0.0005590  -0.0009616
    3   0.0001267  -0.0006575
 Max gradient component =       8.841E-03
 RMS gradient           =       1.416E-03
 Gradient time:  CPU 29.91 s  wall 0.63 s
 Geometry Optimization Parameters
   NAtoms,    NIC,     NZ,  NCons,   NDum,   NFix, NCnnct, MaxDiis
       56     458       0       0       0       0       0       0

 Cartesian Hessian Update
 Hessian Updated using BFGS Update


** GEOMETRY OPTIMIZATION IN DELOCALIZED INTERNAL COORDINATES **
   Searching for a Minimum

   Optimization Cycle:   3

                       Coordinates (Angstroms)
     ATOM                X               Y               Z
      1  O        -4.3185374732    2.2213722041    0.6292038358
      2  C        -3.6383105998    1.6737442039   -0.2631610092
      3  C        -3.9414635249    0.3423474551   -1.0346368226
      4  C        -3.3970261300   -0.9671780918   -0.3128029896
      5  C        -2.5272678373   -0.6994680569    0.9607038382
      6  O        -1.2648001670   -1.3502385610    0.7655787126
      7  C        -0.3773159493   -1.1052922436    1.9298560467
      8  C         0.8506297512   -2.0598247355    1.7988363614
      9  O         1.5941002516   -1.7581793289    0.5532528906
     10  C         2.8597119328   -1.1496130424    0.8594182584
     11  C         3.6152232290   -0.9465530613   -0.4997717996
     12  C         3.7906661745    0.5531224741   -0.9857277142
     13  C         3.0882610540    1.6883655172   -0.1656124354
     14  O         3.4502500445    2.8861545124   -0.1375364972
     15  O        -2.4861704016    2.2797326398   -0.8704290625
     16  O         2.0179177337    1.1624166854    0.6259929404
     17  O         3.2931408461   -0.9731769279    2.0188538287
     18  C         1.4276937084    2.2302896410    1.4677805976
     19  C         5.1382277058   -1.3793100000   -0.3473142986
     20  C         5.7692620827   -1.5379495386   -1.7869734260
     21  C         5.9734251493   -0.0332650330   -2.1996076257
     22  C         5.3743283248    0.7059028227   -0.9404771200
     23  O         5.7791530104   -0.1580730053    0.1903867203
     24  H         3.0862534508   -1.5412920362   -1.2647911049
     25  H         3.4365403342    0.6556072169   -2.0291416769
     26  H         5.3017475428   -2.2333937985    0.3379367032
     27  H         6.7282427036   -2.0767992443   -1.7298730457
     28  H         5.0997822619   -2.0804929285   -2.4735994891
     29  H         7.0411938576    0.2118169211   -2.3158723288
     30  H         5.4454981009    0.2313269224   -3.1296651846
     31  H         5.7201014266    1.7466230204   -0.7859124881
     32  O        -2.8285576144   -0.0609527956    1.9922364003
     33  C        -2.2065999054    3.5827870733   -0.2248729636
     34  C        -5.5005306097    0.0432676006   -1.0494153927
     35  C        -5.7892212669   -1.0995134821   -2.1028441312
     36  C        -5.2879227183   -2.3704519517   -1.3208918446
     37  C        -4.7651142131   -1.7136789979    0.0168441517
     38  O        -5.7245761201   -0.6149818962    0.2579270853
     39  H        -3.5138555744    0.4261094683   -2.0492468456
     40  H        -2.7801868122   -1.5617104321   -1.0093401675
     41  H        -2.0972737145    3.4788168071    0.8740617620
     42  H        -6.1373863240    0.9442860960   -1.1400615246
     43  H        -6.8667633452   -1.1582032521   -2.3237976374
     44  H        -5.2430686751   -0.9388376866   -3.0463645539
     45  H        -6.1160881026   -3.0652442140   -1.1081497197
     46  H        -4.4949902127   -2.9177702175   -1.8552948311
     47  H        -4.7222234037   -2.3903599919    0.8920576909
     48  H        -3.0114805312    4.3195102792   -0.4254066599
     49  H        -1.2588686614    3.9466383362   -0.6629470103
     50  H         1.4972761212    1.9258049160    2.5301134580
     51  H         0.3645258459    2.3638358023    1.1878346395
     52  H         1.9855147894    3.1735915909    1.2975038048
     53  H         1.5331365092   -1.9170605733    2.6663980296
     54  H         0.5129235551   -3.1156611691    1.7450355115
     55  H        -0.9174019605   -1.2830746965    2.8859088751
     56  H        -0.0274472924   -0.0520705768    1.9212517706
   Point Group: c1    Number of degrees of freedom:   162


   Energy is  -1510.280486469

 Hessian Updated using BFGS Update

152 Hessian modes will be used to form the next step
  Hessian Eigenvalues:
     0.001587    0.002036    0.002389    0.002688    0.002767    0.004188
     0.004303    0.004433    0.004653    0.004716    0.004951    0.006589
     0.006838    0.008748    0.009794    0.011017    0.011430    0.018364
     0.021441    0.021782    0.024619    0.026213    0.030159    0.030892
     0.034411    0.035396    0.037093    0.039788    0.041877    0.041927
     0.042443    0.043207    0.046423    0.047116    0.048984    0.050392
     0.051053    0.051427    0.053563    0.054080    0.054478    0.054964
     0.055128    0.055987    0.056180    0.057240    0.057869    0.058804
     0.060200    0.060493    0.063737    0.063762    0.064116    0.064141
     0.069657    0.069780    0.072873    0.072940    0.079951    0.092264
     0.092646    0.092792    0.094649    0.095710    0.096669    0.099950
     0.101167    0.101492    0.102650    0.108116    0.110391    0.111323
     0.112809    0.122072    0.130388    0.135202    0.145874    0.158235
     0.159886    0.159987    0.160022    0.162546    0.164075    0.177343
     0.218918    0.220015    0.220491    0.222914    0.228102    0.231501
     0.238708    0.239008    0.239321    0.239745    0.244649    0.244703
     0.248208    0.249124    0.249292    0.249736    0.249985    0.251203
     0.252954    0.253513    0.261365    0.261680    0.261924    0.264044
     0.267816    0.293133    0.294004    0.307403    0.308045    0.322612
     0.323611    0.324563    0.326216    0.326550    0.326629    0.326771
     0.326999    0.328669    0.328853    0.328903    0.328987    0.329203
     0.329483    0.330601    0.332317    0.332326    0.332460    0.334828
     0.334890    0.334936    0.334946    0.334973    0.334984    0.335156
     0.335227    0.339267    0.342425    0.343392    0.344729    0.378140
     0.400275    0.401530    0.407315    0.421393    0.826524    0.831024
     0.832517    0.837836

 Minimum Search - Taking Simple RFO Step
 Searching for Lamda that Minimizes Along All modes
 Value Taken    Lamda =  -0.00457876
 Calculated Step too Large.  Step scaled by  0.497015
 Step Taken.  Stepsize is  0.300000

                             Maximum     Tolerance    Cnvgd?
         Gradient           0.007101      0.000300      NO
         Displacement       0.127614      0.001200      NO
         Energy change     -0.000100      0.000001      NO


 New Cartesian Coordinates Obtained by Inverse Iteration

 Displacement from previous Coordinates is:  1.384816
 Adding empirical dispersion correction 
 ----------------------------------------------------------------
 Doing -D3(op) with
 s6 =   1.00000
 s8 =   0.78311
 a1 =   0.30000
 a2 =   4.25000
 n  =  10.00000
 -D3 energy without 3body term =     -0.0663169024 hartrees
 ----------------------------------------------------------------
             Standard Nuclear Orientation (Angstroms)
    I     Atom           X                Y                Z
 ----------------------------------------------------------------
    1      O      -4.3335667264     2.3071923919     0.5032097795
    2      C      -3.6370866495     1.7254206453    -0.3544221581
    3      C      -3.9247445801     0.3633447488    -1.0778445092
    4      C      -3.3564268987    -0.9180385934    -0.3247778214
    5      C      -2.4758364103    -0.6049827961     0.9308519114
    6      O      -1.2331324650    -1.3022585015     0.7703581252
    7      C      -0.3529049682    -1.0668520820     1.9426808877
    8      C       0.8535047212    -2.0521367663     1.8266031799
    9      O       1.6047806861    -1.7932454736     0.5764789332
   10      C       2.8830805598    -1.2057323991     0.8724241333
   11      C       3.6141324398    -0.9746263053    -0.4954745203
   12      C       3.7430325248     0.5362917977    -0.9570279574
   13      C       3.0514890975     1.6254688501    -0.0697019610
   14      O       3.4028125129     2.8239787161     0.0123913180
   15      O      -2.4222495134     2.2680466355    -0.8954065463
   16      O       1.9483442659     1.0641266955     0.6494449138
   17      O       3.3207780328    -1.0146303835     2.0279144436
   18      C       1.3366899714     2.0802236149     1.5376917956
   19      C       5.1486395947    -1.3759604930    -0.3823115291
   20      C       5.7476261269    -1.4981636339    -1.8393337163
   21      C       5.9085900370     0.0168910762    -2.2331016577
   22      C       5.3238368960     0.7228230014    -0.9485664981
   23      O       5.7754758736    -0.1489599546     0.1581915090
   24      H       3.0813041695    -1.5686258858    -1.2584017476
   25      H       3.3569353235     0.6576324946    -1.9869529495
   26      H       5.3462928841    -2.2366876476     0.2852455188
   27      H       6.7192192351    -2.0165353738    -1.8140622406
   28      H       5.0735148931    -2.0449273885    -2.5180215765
   29      H       6.9676507837     0.2874358227    -2.3703324359
   30      H       5.3528604291     0.2836785586    -3.1462460584
   31      H       5.6494607302     1.7685280483    -0.7836769407
   32      O      -2.7728783824     0.0647368081     1.9438192726
   33      C      -2.1537947532     3.5915779731    -0.2877314815
   34      C      -5.4796334816     0.0465044771    -1.0682997596
   35      C      -5.7667794747    -1.1308349181    -2.0836729195
   36      C      -5.2419916381    -2.3715807557    -1.2693393149
   37      C      -4.7128246791    -1.6685567653     0.0419922443
   38      O      -5.6824654059    -0.5740052697     0.2607257186
   39      H      -3.5055261709     0.4216521852    -2.0978565596
   40      H      -2.7413215433    -1.5286344055    -1.0088662337
   41      H      -2.1345372786     3.5379556664     0.8199450575
   42      H      -6.1271059430     0.9377629563    -1.1786992573
   43      H      -6.8460881208    -1.2081290516    -2.2896675688
   44      H      -5.2339274612    -0.9922261841    -3.0384124703
   45      H      -6.0594610836    -3.0693096726    -1.0268759597
   46      H      -4.4481415642    -2.9252203064    -1.7958195112
   47      H      -4.6531698537    -2.3183131900     0.9364106420
   48      H      -2.9186101907     4.3384167802    -0.5846233730
   49      H      -1.1647011236     3.9100161442    -0.6654801395
   50      H       1.3743812674     1.7086051187     2.5800680095
   51      H       0.2830272006     2.2341163366     1.2357378013
   52      H       1.9024553399     3.0295139463     1.4446422154
   53      H       1.5370605991    -1.9107265745     2.6933673120
   54      H       0.4904442539    -3.1001486002     1.7887273485
   55      H      -0.9051301330    -1.2266595802     2.8949751342
   56      H       0.0208944004    -0.0214338986     1.9305446801
 ----------------------------------------------------------------
 Molecular Point Group                 C1    NOp =  1
 Largest Abelian Subgroup              C1    NOp =  1
 Nuclear Repulsion Energy =  3115.2591776014 hartrees
 There are      113 alpha and      113 beta electrons
 Applying Cartesian multipole field
    Component          Value
    ---------          -----
     (2,0,0)        1.00000E-12
     (0,2,0)        2.00000E-11
     (0,0,2)       -3.00000E-11
 Nucleus-field energy     =     0.0000000181 hartrees
 Requested basis set is STO-3G
 There are 86 shells and 176 basis functions
 A cutoff of  1.0D-12 yielded   2143 shell pairs
 There are     10057 function pairs
 Smallest overlap matrix eigenvalue = 2.13E-01
 Guess MOs from SCF MO coefficient file
 Reading MOs from coefficient file
 Reading MOs from coefficient file
 A restricted hybrid HF-DFT SCF calculation will be
 performed using Pulay DIIS extrapolation
[...]
      7  C        -0.3546838260   -2.0989325648    2.2440504696
      8  C         0.9302639124   -2.8021339044    1.6684215459
      9  O         1.4610478624   -2.1868797492    0.4285125266
     10  C         2.0226144262   -0.8980761222    0.7031947800
     11  C         2.7448765075   -0.3794156310   -0.5851666819
     12  C         3.1329529297    1.1497239732   -0.4747584564
     13  C         2.4336554694    1.8993031404    0.7187348374
     14  O         2.9536304634    2.4849621626    1.6892129498
     15  O        -1.2768770644    1.0095447739   -2.2327485858
     16  O         1.0336926640    1.8947864370    0.4114827261
     17  O         1.9949497873   -0.3378991724    1.8218915079
     18  C         0.2066093519    2.5143800237    1.4657132746
     19  C         4.1915378165   -1.0344469438   -0.6573877050
     20  C         4.8609643221   -0.6588105868   -2.0397331450
     21  C         5.3047446355    0.8281050076   -1.7753029021
     22  C         4.7093776850    1.0627704640   -0.3325834766
     23  O         4.9449666531   -0.2384812188    0.3380942078
     24  H         2.1287268936   -0.6047904830   -1.4736279651
     25  H         2.8518136054    1.6760646524   -1.4047023554
     26  H         4.2162634722   -2.1111659414   -0.3993637709
     27  H         5.7241913543   -1.3122251484   -2.2430482150
     28  H         4.1486426643   -0.7454980821   -2.8760067270
     29  H         6.4022975895    0.9227907314   -1.7592176451
     30  H         4.8982730577    1.5339991051   -2.5170183941
     31  H         5.1592724979    1.8876259623    0.2533601592
     32  O        -0.7190320078   -0.2775477928    0.3020553918
     33  C        -0.2261390526    2.0547343424   -2.1753870930
     34  C        -4.6291139310    0.4275008507   -0.6007825312
     35  C        -5.7538272064   -0.5463401765   -1.1306188863
     36  C        -5.4260681186   -1.8562913352   -0.3216621585
     37  C        -4.1880556350   -1.3828605755    0.5362656506
     38  O        -4.4791337411    0.0397423122    0.8216270791
     39  H        -3.3580899688   -0.2494014745   -2.3225934064
     40  H        -2.8348919942   -2.1939457421   -1.0587540822
     41  H        -0.6654300847    3.0661421650   -2.2929579143
     42  H        -4.8553182336    1.5082149610   -0.6811982115
     43  H        -6.7523762411   -0.1557872043   -0.8779799883
     44  H        -5.6959266082   -0.6933234069   -2.2208985227
     45  H        -6.2611727355   -2.1464541748    0.3355555792
     46  H        -5.1780610279   -2.7091561125   -0.9737385347
     47  H        -4.0119139625   -1.9452874209    1.4738252423
     48  H         0.4448328931    1.8493370413   -3.0292792925
     49  H         0.3347358443    2.0003822901   -1.2075168797
     50  H         0.2504157402    1.9171843991    2.3986682366
     51  H        -0.8221720410    2.5074738412    1.0423502178
     52  H         0.5349250723    3.5506111097    1.6845431268
     53  H         1.7047084857   -2.8004200838    2.4672691499
     54  H         0.6949411573   -3.8501525071    1.3928723348
     55  H        -0.6295643212   -2.5995444734    3.1948591522
     56  H        -0.1214120787   -1.0301675261    2.4328012637
   Point Group: c1    Number of degrees of freedom:   162


   Energy is  -1510.302206337

 Hessian Updated using BFGS Update

162 Hessian modes will be used to form the next step
  Hessian Eigenvalues:
     0.001260    0.002464    0.002631    0.003183    0.004333    0.005477
     0.006111    0.006527    0.008515    0.011062    0.014665    0.017725
     0.022104    0.022124    0.023160    0.027564    0.028042    0.029215
     0.031510    0.032570    0.033547    0.034523    0.035621    0.038971
     0.039979    0.041250    0.042333    0.042972    0.043650    0.044560
     0.045426    0.048126    0.049522    0.051068    0.051571    0.053056
     0.053697    0.054598    0.055063    0.055574    0.055781    0.056539
     0.056874    0.057789    0.059249    0.061585    0.063058    0.063857
     0.064245    0.064657    0.065342    0.065999    0.067109    0.069766
     0.070136    0.072719    0.073236    0.076432    0.079107    0.087414
     0.092511    0.092987    0.093899    0.099617    0.101370    0.103017
     0.103761    0.104872    0.110510    0.113024    0.114093    0.116609
     0.120508    0.128221    0.135481    0.143523    0.145449    0.152625
     0.156817    0.161071    0.165110    0.167068    0.168449    0.171043
     0.180069    0.184351    0.192692    0.198143    0.201882    0.221219
     0.221827    0.232983    0.237733    0.238967    0.239714    0.240552
     0.241443    0.243453    0.245832    0.247476    0.251290    0.251906
     0.253990    0.257890    0.260187    0.261246    0.264888    0.268221
     0.269832    0.276223    0.281022    0.287825    0.293726    0.296048
     0.300584    0.306201    0.308786    0.311768    0.322155    0.323375
     0.324713    0.326387    0.327116    0.327740    0.328639    0.328811
     0.329118    0.329430    0.329470    0.330433    0.331624    0.331952
     0.332706    0.333431    0.334213    0.334646    0.334906    0.334979
     0.335127    0.335243    0.335337    0.336229    0.336813    0.339573
     0.342814    0.344762    0.359781    0.366237    0.376590    0.385706
     0.416596    0.447168    0.453498    0.482364    0.491467    0.819129
     0.827637    0.833654    0.836858    0.934732    2.059805    8.791311

 Minimum Search - Taking Simple RFO Step
 Searching for Lamda that Minimizes Along All modes
 Value Taken    Lamda =  -0.00000107
 Step Taken.  Stepsize is  0.009388

                             Maximum     Tolerance    Cnvgd?
         Gradient           0.000268      0.000300     YES
         Displacement       0.002741      0.001200      NO
         Energy change      0.000001      0.000001     YES

 Final energy is   -1510.30220633681     


 ******************************
 **  OPTIMIZATION CONVERGED  **
 ******************************

                       Coordinates (Angstroms)
     ATOM                X               Y               Z
      1  O        -2.1817025494    2.1014779241   -0.3195434405
      2  C        -2.1774589031    1.1507824542   -1.1359223402
      3  C        -3.2473308822    0.0004348297   -1.2528014989
      4  C        -2.9155571111   -1.3008018434   -0.4119218728
      5  C        -1.5904333543   -1.1690765725    0.4135941101
      6  O        -1.5339037769   -2.2389623443    1.3587016716
      7  C        -0.3546838260   -2.0989325648    2.2440504696
      8  C         0.9302639124   -2.8021339044    1.6684215459
      9  O         1.4610478624   -2.1868797492    0.4285125266
     10  C         2.0226144262   -0.8980761222    0.7031947800
     11  C         2.7448765075   -0.3794156310   -0.5851666819
     12  C         3.1329529297    1.1497239732   -0.4747584564
     13  C         2.4336554694    1.8993031404    0.7187348374
     14  O         2.9536304634    2.4849621626    1.6892129498
     15  O        -1.2768770644    1.0095447739   -2.2327485858
     16  O         1.0336926640    1.8947864370    0.4114827261
     17  O         1.9949497873   -0.3378991724    1.8218915079
     18  C         0.2066093519    2.5143800237    1.4657132746
     19  C         4.1915378165   -1.0344469438   -0.6573877050
     20  C         4.8609643221   -0.6588105868   -2.0397331450
     21  C         5.3047446355    0.8281050076   -1.7753029021
     22  C         4.7093776850    1.0627704640   -0.3325834766
     23  O         4.9449666531   -0.2384812188    0.3380942078
     24  H         2.1287268936   -0.6047904830   -1.4736279651
     25  H         2.8518136054    1.6760646524   -1.4047023554
     26  H         4.2162634722   -2.1111659414   -0.3993637709
     27  H         5.7241913543   -1.3122251484   -2.2430482150
     28  H         4.1486426643   -0.7454980821   -2.8760067270
     29  H         6.4022975895    0.9227907314   -1.7592176451
     30  H         4.8982730577    1.5339991051   -2.5170183941
     31  H         5.1592724979    1.8876259623    0.2533601592
     32  O        -0.7190320078   -0.2775477928    0.3020553918
     33  C        -0.2261390526    2.0547343424   -2.1753870930
     34  C        -4.6291139310    0.4275008507   -0.6007825312
     35  C        -5.7538272064   -0.5463401765   -1.1306188863
     36  C        -5.4260681186   -1.8562913352   -0.3216621585
     37  C        -4.1880556350   -1.3828605755    0.5362656506
     38  O        -4.4791337411    0.0397423122    0.8216270791
     39  H        -3.3580899688   -0.2494014745   -2.3225934064
     40  H        -2.8348919942   -2.1939457421   -1.0587540822
     41  H        -0.6654300847    3.0661421650   -2.2929579143
     42  H        -4.8553182336    1.5082149610   -0.6811982115
     43  H        -6.7523762411   -0.1557872043   -0.8779799883
     44  H        -5.6959266082   -0.6933234069   -2.2208985227
     45  H        -6.2611727355   -2.1464541748    0.3355555792
     46  H        -5.1780610279   -2.7091561125   -0.9737385347
     47  H        -4.0119139625   -1.9452874209    1.4738252423
     48  H         0.4448328931    1.8493370413   -3.0292792925
     49  H         0.3347358443    2.0003822901   -1.2075168797
     50  H         0.2504157402    1.9171843991    2.3986682366
     51  H        -0.8221720410    2.5074738412    1.0423502178
     52  H         0.5349250723    3.5506111097    1.6845431268
     53  H         1.7047084857   -2.8004200838    2.4672691499
     54  H         0.6949411573   -3.8501525071    1.3928723348
     55  H        -0.6295643212   -2.5995444734    3.1948591522
     56  H        -0.1214120787   -1.0301675261    2.4328012637

Z-matrix Print:
$molecule
0 1
O 
C  1 1.251641
O  2 1.428664 1 124.389555
C  3 1.481219 2 110.861710 1 3.743706 0
H  4 1.109148 3 105.808170 2 152.605851 0
H  4 1.110091 3 111.096624 2 33.334611 0
C  2 1.566774 1 126.996053 3 178.825253 0
H  7 1.105715 2 108.326705 1 111.935016 0
C  4 1.573827 3 112.900411 2 -89.093233 0
H  9 1.108895 4 109.871077 3 -51.518510 0
H  9 1.112621 4 107.758121 3 -170.301663 0
O  9 1.482445 4 114.380871 3 66.372222 0
C  12 1.432418 9 110.695212 4 69.531823 0
O  13 1.251418 12 124.437784 9 -3.967188 0
C  13 1.565422 12 108.733362 9 172.129159 0
H  15 1.104444 13 109.697655 12 41.785132 0
C  15 1.581474 13 112.093567 12 168.142021 0
H  17 1.104930 15 109.840244 13 -134.000590 0
C  17 1.573312 15 113.863419 13 -13.569181 0
O  19 1.247076 17 128.958225 15 120.074305 0
O  19 1.433290 17 105.665533 15 -65.372635 0
C  21 1.476267 19 113.130008 17 177.525290 0
H  22 1.108588 21 110.655567 19 -65.571113 0
H  22 1.108807 21 111.547812 19 55.964785 0
H  22 1.112508 21 104.106587 19 175.467492 0
C  7 1.584414 2 112.810487 1 -12.126796 0
H  26 1.104147 7 110.449482 2 123.675233 0
C  26 1.575305 7 114.716883 2 1.651560 0
O  28 1.253122 26 126.872734 7 -92.139498 0
O  28 1.426192 26 107.426392 7 94.591087 0
C  30 1.483159 28 110.354225 26 -179.231305 0
H  31 1.105225 30 105.619446 28 177.811375 0
H  31 1.108939 30 110.976474 28 -64.023086 0
H  31 1.119959 30 110.732961 28 57.841207 0
C  17 1.585210 15 101.376355 13 108.794216 0
H  35 1.107304 17 114.245323 15 -150.230296 0
O  35 1.482756 17 104.282997 15 -29.528726 0
C  37 1.480608 35 94.980735 17 54.671179 0
H  38 1.107480 37 110.772337 35 179.103497 0
C  35 1.578280 17 107.536025 15 79.244632 0
H  40 1.101657 35 112.395108 17 49.098338 0
H  40 1.101747 35 110.466836 17 170.827091 0
C  40 1.574097 35 100.816208 17 -71.307960 0
H  43 1.101566 40 111.739873 35 -121.964941 0
H  43 1.101939 40 112.584406 35 115.434971 0
C  26 1.586455 7 100.681255 2 -118.025805 0
H  46 1.107058 26 114.261607 7 154.248193 0
O  46 1.481924 26 103.644610 7 34.263830 0
C  48 1.479850 46 94.954020 26 -56.828192 0
H  49 1.107415 48 110.870533 46 179.372382 0
C  49 1.578877 48 103.815946 46 -55.850531 0
H  51 1.101603 49 110.439608 48 -84.049127 0
H  51 1.101857 49 112.158836 48 154.598335 0
C  51 1.574106 49 101.126940 48 34.212544 0
H  54 1.101571 51 111.464697 49 -116.625110 0
H  54 1.101665 51 112.745011 49 120.696719 0
$end

 
 --------------------------------------------------------------
 
                    Orbital Energies (a.u.)
 --------------------------------------------------------------
 
 Alpha MOs
 -- Occupied --
-18.943 -18.940 -18.925 -18.918 -18.889 -18.886 -18.886 -18.882
-18.866 -18.856 -10.108 -10.105 -10.093 -10.089 -10.080 -10.077
-10.061 -10.060 -10.057 -10.055 -10.041 -10.040 -10.038 -10.032
-10.031 -10.030 -10.021 -10.020 -10.019 -10.018  -1.025  -1.014
 -0.999  -0.994  -0.969  -0.969  -0.947  -0.941  -0.927  -0.920
 -0.763  -0.761  -0.730  -0.722  -0.715  -0.704  -0.697  -0.648
 -0.646  -0.622  -0.595  -0.580  -0.544  -0.543  -0.536  -0.536
 -0.514  -0.508  -0.483  -0.475  -0.459  -0.453  -0.451  -0.449
 -0.432  -0.431  -0.425  -0.422  -0.412  -0.401  -0.398  -0.396
 -0.387  -0.380  -0.372  -0.367  -0.360  -0.352  -0.351  -0.345
 -0.343  -0.338  -0.335  -0.330  -0.327  -0.323  -0.320  -0.313
 -0.310  -0.305  -0.302  -0.299  -0.297  -0.280  -0.276  -0.275
 -0.270  -0.257  -0.256  -0.249  -0.234  -0.233  -0.226  -0.199
 -0.172  -0.168  -0.161  -0.158  -0.156  -0.144  -0.144  -0.142
 -0.139
 -- Virtual --
  0.088   0.098   0.113   0.117   0.223   0.242   0.244   0.249
  0.269   0.275   0.284   0.287   0.304   0.312   0.329   0.331
  0.339   0.341   0.351   0.353   0.354   0.358   0.362   0.371
  0.373   0.383   0.386   0.404   0.406   0.409   0.410   0.411
  0.412   0.419   0.420   0.425   0.427   0.431   0.435   0.440
  0.441   0.444   0.448   0.450   0.456   0.456   0.467   0.467
  0.471   0.478   0.488   0.489   0.506   0.509   0.519   0.540
  0.544   0.553   0.553   0.634   0.644   0.659   0.665
 --------------------------------------------------------------
 
          Ground-State Mulliken Net Atomic Charges

     Atom                 Charge (a.u.)
  ----------------------------------------
      1 O                    -0.226723
      2 C                     0.219064
      3 C                    -0.081963
      4 C                    -0.077770
      5 C                     0.216587
      6 O                    -0.172928
      7 C                    -0.054408
      8 C                    -0.050004
      9 O                    -0.172085
     10 C                     0.224247
     11 C                    -0.075931
     12 C                    -0.080460
     13 C                     0.221684
     14 O                    -0.210044
     15 O                    -0.174940
     16 O                    -0.173953
     17 O                    -0.209295
     18 C                    -0.134588
     19 C                     0.024295
     20 C                    -0.144295
     21 C                    -0.142974
     22 C                     0.023765
     23 O                    -0.190318
     24 H                     0.090492
     25 H                     0.083085
     26 H                     0.082564
     27 H                     0.077842
     28 H                     0.073789
     29 H                     0.077894
     30 H                     0.073030
     31 H                     0.090431
     32 O                    -0.203349
     33 C                    -0.150958
     34 C                     0.025132
     35 C                    -0.144059
     36 C                    -0.144007
     37 C                     0.024232
     38 O                    -0.189630
     39 H                     0.083784
     40 H                     0.086494
     41 H                     0.075168
     42 H                     0.086762
     43 H                     0.077826
     44 H                     0.073312
     45 H                     0.077983
     46 H                     0.073045
     47 H                     0.087635
     48 H                     0.072999
     49 H                     0.117359
     50 H                     0.084835
     51 H                     0.114689
     52 H                     0.082453
     53 H                     0.091955
     54 H                     0.091408
     55 H                     0.091262
     56 H                     0.107580
  ----------------------------------------
  Sum of atomic charges =     0.000000

 -----------------------------------------------------------------
                    Cartesian Multipole Moments
 -----------------------------------------------------------------
    Charge (ESU x 10^10)
                -0.0000
    Dipole Moment (Debye)
         X      -1.0379      Y      -3.0402      Z      -2.6318
       Tot       4.1529
    Quadrupole Moments (Debye-Ang)
        XX    -158.5325     XY       2.7847     YY    -154.9439
        XZ      -5.6437     YZ      -7.9378     ZZ    -157.7621
    Octopole Moments (Debye-Ang^2)
       XXX     -78.2002    XXY     -17.3853    XYY      -7.0446
       YYY       3.4305    XXZ     -64.5058    XYZ     -13.1275
       YYZ      12.8637    XZZ     -16.3007    YZZ      -9.7468
       ZZZ      36.8128
    Hexadecapole Moments (Debye-Ang^3)
      XXXX  -10609.5318   XXXY    -403.5427   XXYY   -2179.2834
      XYYY    -508.8165   YYYY   -2433.8434   XXXZ     -63.2558
      XXYZ      31.8297   XYYZ      -3.8206   YYYZ     186.2183
      XXZZ   -2111.2313   XYZZ    -177.8207   YYZZ    -668.1819
      XZZZ     -17.9181   YZZZ     189.6716   ZZZZ   -1724.4818
 -----------------------------------------------------------------
Archival summary:
1\1\vega02.cac.cornell.edu\OPT\ProcedureUnspecified\STO-3G\102026\jj585\SunJan1421:02:532018SunJan1421:02:532018\0\\#,OPT,ProcedureUnspecified,STO-3G,\\0,1\O\C,1,1.25164\O,2,1.42866,1,124.39\C,3,1.48122,2,110.862,1,3.74371,0\H,4,1.10915,3,105.808,2,152.606,0\H,4,1.11009,3,111.097,2,33.3346,0\C,2,1.56677,1,126.996,3,178.825,0\H,7,1.10571,2,108.327,1,111.935,0\C,4,1.57383,3,112.9,2,-89.0932,0\H,9,1.10889,4,109.871,3,-51.5185,0\H,9,1.11262,4,107.758,3,-170.302,0\O,9,1.48245,4,114.381,3,66.3722,0\C,12,1.43242,9,110.695,4,69.5318,0\O,13,1.25142,12,124.438,9,-3.96719,0\C,13,1.56542,12,108.733,9,172.129,0\H,15,1.10444,13,109.698,12,41.7851,0\C,15,1.58147,13,112.094,12,168.142,0\H,17,1.10493,15,109.84,13,-134.001,0\C,17,1.57331,15,113.863,13,-13.5692,0\O,19,1.24708,17,128.958,15,120.074,0\O,19,1.43329,17,105.666,15,-65.3726,0\C,21,1.47627,19,113.13,17,177.525,0\H,22,1.10859,21,110.656,19,-65.5711,0\H,22,1.10881,21,111.548,19,55.9648,0\H,22,1.11251,21,104.107,19,175.467,0\C,7,1.58441,2,112.81,1,-12.1268,0\H,26,1.10415,7,110.449,2,123.675,0\C,26,1.57531,7,114.717,2,1.65156,0\O,28,1.25312,26,126.873,7,-92.1395,0\O,28,1.42619,26,107.426,7,94.5911,0\C,30,1.48316,28,110.354,26,-179.231,0\H,31,1.10523,30,105.619,28,177.811,0\H,31,1.10894,30,110.976,28,-64.0231,0\H,31,1.11996,30,110.733,28,57.8412,0\C,17,1.58521,15,101.376,13,108.794,0\H,35,1.1073,17,114.245,15,-150.23,0\O,35,1.48276,17,104.283,15,-29.5287,0\C,37,1.48061,35,94.9807,17,54.6712,0\H,38,1.10748,37,110.772,35,179.103,0\C,35,1.57828,17,107.536,15,79.2446,0\H,40,1.10166,35,112.395,17,49.0983,0\H,40,1.10175,35,110.467,17,170.827,0\C,40,1.5741,35,100.816,17,-71.308,0\H,43,1.10157,40,111.74,35,-121.965,0\H,43,1.10194,40,112.584,35,115.435,0\C,26,1.58645,7,100.681,2,-118.026,0\H,46,1.10706,26,114.262,7,154.248,0\O,46,1.48192,26,103.645,7,34.2638,0\C,48,1.47985,46,94.954,26,-56.8282,0\H,49,1.10741,48,110.871,46,179.372,0\C,49,1.57888,48,103.816,46,-55.8505,0\H,51,1.1016,49,110.44,48,-84.0491,0\H,51,1.10186,49,112.159,48,154.598,0\C,51,1.57411,49,101.127,48,34.2125,0\H,54,1.10157,51,111.465,49,-116.625,0\H,54,1.10167,51,112.745,49,120.697,0\\\@

 Total job time:  221.28s(wall), 10552.91s(cpu) 
 Sun Jan 14 21:02:53 2018

        *************************************************************
        *                                                           *
        *  Thank you very much for using Q-Chem.  Have a nice day.  *
        *                                                           *
        *************************************************************


0 sent ACK to 0 
now end server 0 ... 
