mFile = /opt/software/qchem/qchem-5.0.1//bin/mpi/machines
Process 0 of 1 is on vega02.cac.cornell.edu - thread support 0
initial socket setup ...start
initial socket setup ...done 
now start server 0 ... 
vega02.cac.cornell.edu 10.84.3
Q-Chem Developer Version! Running on 10.84.3.*
                  Welcome to Q-Chem
     A Quantum Leap Into The Future Of Chemistry


 Q-Chem 5.0, Q-Chem, Inc., Pleasanton, CA (2017)

 Yihan Shao,  Zhengting Gan,  E. Epifanovsky,  A. T. B. Gilbert,  M. Wormit,  
 J. Kussmann,  A. W. Lange,  A. Behn,  Jia Deng,  Xintian Feng,  D. Ghosh,  
 M. Goldey,  P. R. Horn,  L. D. Jacobson,  I. Kaliman,  T. Kus,  A. Landau,  
 Jie Liu,  E. I. Proynov,  R. M. Richard,  R. P. Steele,  E. J. Sundstrom,  
 H. L. Woodcock III,  P. M. Zimmerman,  D. Zuev,  B. Albrecht,  E. Alguire,  
 S. A. Baeppler,  Z. Benda,  Y. A. Bernard,  E. J. Berquist,  K. B. Bravaya,  
 D. Casanova,  Chun-Min Chang,  Yunqing Chen,  A. Chien,  K. D. Closser,  
 M. P. Coons,  S. Dasgupta,  M. Diedenhofen,  Hainam Do,  R. G. Edgar,  
 Po-Tung Fang,  S. Fatehi,  Qingguo Feng,  Qinghui Ge,  A. Ghysels,  
 J. Gomes,  J. Gonthier,  A. Gunina,  M. W. D. Hanson-Heine,  
 P. H. P. Harbach,  A. W. Hauser,  J. E. Herr,  E. G. Hohenstein,  
 Z. C. Holden,  Kerwin Hui,  T.-C. Jagau,  Hyunjun Ji,  B. Kaduk,  
 K. Khistyaev,  Jaehoon Kim,  P. Klunzinger,  K. Koh,  D. Kosenkov,  
 T. Kowalczyk,  C. M. Krauter,  A. Kunitsa,  Ka Un Lao,  A. Laurent,  
 K. V. Lawler,  Joonho Lee,  D. Lefrancois,  S. Lehtola,  D. S. Levine,  
 Yi-Pei Li,  You-Sheng Lin,  Fenglai Liu,  E. Livshits,  A. Luenser,  
 P. Manohar,  E. Mansoor,  S. F. Manzer,  Shan-Ping Mao,  Yuezhi Mao,  
 N. Mardirossian,  A. V. Marenich,  L. A. Martinez-Martinez,  S. A. Maurer,  
 N. J. Mayhall,  S. C. McKenzie,  J.-M. Mewes,  A. F. Morrison,  K. Nanda,  
 T. S. Nguyen-Beck,  R. Olivares-Amaya,  J. A. Parkhill,  T. M. Perrine,  
 F. Plasser,  S. Prager,  A. Prociuk,  D. R. Rehn,  F. Rob,  M. Schneider,  
 N. Sergueev,  S. M. Sharada,  S. Sharma,  D. W. Small,  T. Stauch,  
 T. Stein,  Yu-Chuan Su,  A. J. W. Thom,  T. Tsuchimochi,  L. Vogt,  
 O. Vydrov,  M. A. Watson,  J. Wenzel,  M. de Wergifosse,  T. A. Wesolowski,  
 A. White,  J. Witte,  A. Yamada,  Jun Yang,  K. Yao,  S. Yeganeh,  
 S. R. Yost,  Zhi-Qiang You,  A. Zech,  Igor Ying Zhang,  Xing Zhang,  
 Yan Zhao,  Ying Zhu,  B. R. Brooks,  G. K. L. Chan,  C. J. Cramer,  
 M. S. Gordon,  W. J. Hehre,  A. Klamt,  M. W. Schmidt,  C. D. Sherrill,  
 D. G. Truhlar,  A. Aspuru-Guzik,  R. Baer,  A. T. Bell,  N. A. Besley,  
 Jeng-Da Chai,  A. Dreuw,  B. D. Dunietz,  T. R. Furlani,  Chao-Ping Hsu,  
 Yousung Jung,  Jing Kong,  D. S. Lambrecht,  WanZhen Liang,  C. Ochsenfeld,  
 V. A. Rassolov,  L. V. Slipchenko,  J. E. Subotnik,  T. Van Voorhis,  
 J. M. Herbert,  A. I. Krylov,  P. M. W. Gill,  M. Head-Gordon

 Contributors to earlier versions of Q-Chem not listed above: 
 R. D. Adamson,  B. Austin,  J. Baker,  G. J. O. Beran,  K. Brandhorst,  
 S. T. Brown,  E. F. C. Byrd,  A. K. Chakraborty,  C.-L. Cheng,  
 Siu Hung Chien,  D. M. Chipman,  D. L. Crittenden,  H. Dachsel,  
 R. A. DiStasio Jr.,  R. J. Doerksen,  A. D. Dutoi,  L. Fusti-Molnar,  
 W. A. Goddard III,  A. Golubeva-Zadorozhnaya,  S. R. Gwaltney,  G. Hawkins,  
 A. Heyden,  S. Hirata,  G. Kedziora,  F. J. Keil,  C. Kelley,  Jihan Kim,  
 R. A. King,  R. Z. Khaliullin,  P. P. Korambath,  W. Kurlancheek,  
 A. M. Lee,  M. S. Lee,  S. V. Levchenko,  Ching Yeh Lin,  D. Liotard,  
 R. C. Lochan,  I. Lotan,  P. E. Maslen,  N. Nair,  D. P. O'Neill,  
 D. Neuhauser,  E. Neuscamman,  C. M. Oana,  R. Olson,  B. Peters,  
 R. Peverati,  P. A. Pieniazek,  Y. M. Rhee,  J. Ritchie,  M. A. Rohrdanz,  
 E. Rosta,  N. J. Russ,  H. F. Schaefer III,  N. E. Schultz,  N. Shenvi,  
 A. C. Simmonett,  A. Sodt,  D. Stuck,  K. S. Thanthiriwatte,  V. Vanovschi,  
 Tao Wang,  A. Warshel,  C. F. Williams,  Q. Wu,  X. Xu,  W. Zhang

 Please cite Q-Chem as follows:
 Y. Shao et al., Mol. Phys. 113, 184-215 (2015)
 DOI: 10.1080/00268976.2014.952696

 Q-Chem 5.0.1 for Intel X86 EM64T Linux

 Parts of Q-Chem use Armadillo 5.200.1 (Boston Tea Smuggler).
 http://arma.sourceforge.net/

 Q-Chem begins on Sun Jan 14 22:37:25 2018  

Host: vega02.cac.cornell.edu
0

     Scratch files written to /scratch/jj585/SOT1001/0582r.save//
 Parallel job on  1  processors

Checking the input file for inconsistencies... 	...done.

--------------------------------------------------------------
User input:
--------------------------------------------------------------
$molecule
0  1
O -2.0093404946 -2.0617980239 0.1760885956
C -2.3900618982 -1.0936550288 0.8767067246
C -3.8163545437 -0.4352041584 0.8871990859
C -3.8961970036 0.9269519018 0.0621756222
C -2.5925637433 1.1715635856 -0.7746110801
O -1.6320233707 1.8074548682 0.0714228939
C -0.3745441056 2.0315744264 -0.683056916
C 0.5785753791 2.8780568142 0.2380177797
O 1.5568115895 2.0164359706 0.9490604737
C 2.3986976953 1.3252929659 0.0183359094
C 3.4091188734 0.4604385565 0.8381894081
C 3.606436462 -0.9921605323 0.2377943893
C 2.6222381648 -1.438628745 -0.9041161916
O 2.9188781018 -2.1705756912 -1.8719259637
O -1.5863582538 -0.4186764802 1.8374612913
O 1.2795522814 -1.0132644633 -0.6127614919
O 2.377415095 1.4938230398 -1.2203832893
C 0.3148368337 -1.5646342802 -1.6013170946
C 4.8797159984 1.041977933 0.6528257229
C 5.845428064 0.3257624746 1.6788269081
C 6.0540665916 -1.0697745987 0.9814290299
C 5.1075378542 -0.9227373708 -0.2715865919
O 5.2815892801 0.4958960824 -0.6622488059
H 3.0916960422 0.4372461013 1.8948149583
H 3.5078340539 -1.7447501481 1.0434996933
H 4.935340636 2.1479521839 0.6473664526
H 6.7926274362 0.8804416099 1.7697889666
H 5.3901046955 0.2368370658 2.6781221685
H 7.0985481111 -1.2056106725 0.6582741236
H 5.7707566746 -1.9171469521 1.6261388667
H 5.3199999077 -1.5946145162 -1.1261612905
O -2.3825506905 0.8691324955 -1.9692165899
C -0.2267824852 -1.0110033052 1.9231173831
C -4.9074578522 -1.3076739166 0.137286653
C -6.3275265262 -0.8357779092 0.639456373
C -6.4447196061 0.5651384769 -0.069862904
C -5.1055404198 0.6016042869 -0.9080745755
O -4.8639935608 -0.817876691 -1.2593311612
H -4.096007289 -0.2550709704 1.9407703859
H -4.0793195623 1.7904647213 0.7254206678
H 0.3505377744 -0.9204549105 0.9697112368
H -4.7209650642 -2.3985635092 0.1693651009
H -7.1073400169 -1.5303760406 0.2881507361
H -6.3845313084 -0.7658700687 1.7375018119
H -7.3200397155 0.6104500082 -0.7369203895
H -6.505018119 1.3991126725 0.6479162267
H -5.1314761917 1.223787412 -1.8233179503
H -0.2813223418 -2.080688583 2.2102617808
H 0.2860387169 -0.4438368934 2.7210379631
H -0.5910021234 -1.8656354818 -1.0251128335
H 0.7687795547 -2.4257255306 -2.127555774
H 0.0499763851 -0.7830899093 -2.3410762024
H 1.1079013964 3.641588941 -0.3724251914
H -0.0100912586 3.3813273345 1.0309439789
H -0.5822012261 2.5732081213 -1.6310108093
H 0.1020709257 1.0642712322 -0.9418499564
$end

$rem
JOBTYPE                   OPT
METHOD                    B3LYP
DFT_D                     d3_op
BASIS                     STO-3G
GEOM_OPT_MAX_CYCLES       100
GEOM_OPT_TOL_GRADIENT     300
GEOM_OPT_TOL_DISPLACEMENT 1200
GEOM_OPT_TOL_ENERGY       100
SYMMETRY                  False
THRESH                    12
SCF_CONVERGENCE           8
MAX_SUB_FILE_NUM          128
MEM_STATIC                400
MEM_TOTAL                 4000
$end
--------------------------------------------------------------
 Adding empirical dispersion correction 
 ----------------------------------------------------------------
 Doing -D3(op) with
 s6 =   1.00000
 s8 =   0.78311
 a1 =   0.30000
 a2 =   4.25000
 n  =  10.00000
 -D3 energy without 3body term =     -0.0744281452 hartrees
 ----------------------------------------------------------------
             Standard Nuclear Orientation (Angstroms)
    I     Atom           X                Y                Z
 ----------------------------------------------------------------
    1      O      -2.0001025718    -2.0612726941     0.3527240441
    2      C      -2.3544405750    -1.0574385653     1.0159563036
    3      C      -3.7771339044    -0.3915634798     1.0390303086
    4      C      -3.8782013285     0.9282926709     0.1500574274
    5      C      -2.6011661361     1.1239237341    -0.7389960822
    6      O      -1.6115469401     1.7958872795     0.0432365279
    7      C      -0.3780787655     1.9753948997    -0.7611618426
    8      C       0.6073366776     2.8614577685     0.0857128690
    9      O       1.6045847850     2.0309751763     0.8073174355
   10      C       2.4135216358     1.2898531145    -0.1141261839
   11      C       3.4464172676     0.4613776393     0.7152343328
   12      C       3.6188110606    -1.0203285756     0.1820555683
   13      C       2.5967759061    -1.5176915149    -0.9042290066
   14      O       2.8594053074    -2.2984568182    -1.8432863413
   15      O      -1.5177453583    -0.3398821659     1.9157556449
   16      O       1.2657673028    -1.0710972933    -0.5918231587
   17      O       2.3531441187     1.3966879100    -1.3584016638
   18      C       0.2677248753    -1.6657099490    -1.5204101780
   19      C       4.9125214985     1.0250043411     0.4543378561
   20      C       5.9079149658     0.3554753450     1.4834955589
   21      C       6.0887291490    -1.0741254233     0.8502772449
   22      C       5.1030478265    -0.9844550938    -0.3777196232
   23      O       5.2698962407     0.4120324175    -0.8439984843
   24      H       3.1629786020     0.4924781733     1.7812774729
   25      H       3.5432376166    -1.7313753668     1.0270264062
   26      H       4.9721706491     2.1290211829     0.3919540484
   27      H       6.8596594026     0.9088521295     1.5164554046
   28      H       5.4845567333     0.3188213308     2.4999808790
   29      H       7.1217757098    -1.2315197904     0.5011870083
   30      H       5.8230159329    -1.8868417163     1.5451469464
   31      H       5.2854066991    -1.6991387700    -1.2040545569
   32      O      -2.4307539535     0.7613276585    -1.9231143806
   33      C      -0.1583958310    -0.9345732432     1.9874891068
   34      C      -4.8950678769    -1.2943220394     0.3687101000
   35      C      -6.2964758948    -0.7903516292     0.8917059903
   36      C      -6.4310132876     0.5741724555     0.1174912346
   37      C      -5.1192923205     0.5616547988    -0.7637356757
   38      O      -4.8945708945    -0.8748251045    -1.0512736536
   39      H      -4.0221427962    -0.1577483477     2.0906800766
   40      H      -4.0366430573     1.8246986385     0.7749052580
   41      H       0.3883743544    -0.8946771842     1.0128447396
   42      H      -4.7118141819    -2.3832610197     0.4492002885
   43      H      -7.0898112769    -1.4973255193     0.6005047107
   44      H      -6.3179473994    -0.6656183905     1.9861560946
   45      H      -7.3271087722     0.5909974675    -0.5227695865
   46      H      -6.4650580724     1.4431232899     0.7943377091
   47      H      -5.1722056928     1.1376858696    -1.7075806423
   48      H      -0.2077827571    -1.9883446540     2.3292197612
   49      H       0.3819313218    -0.3312156696     2.7393845665
   50      H      -0.6203014749    -1.9327733002    -0.9013434143
   51      H       0.7012510937    -2.5543514007    -2.0172408044
   52      H      -0.0177477713    -0.9204962322    -2.2894147832
   53      H       1.1197165464     3.5908100708    -0.5786063700
   54      H       0.0463467498     3.4067182606     0.8709025792
   55      H      -0.6139762318     2.4703351920    -1.7278529078
   56      H       0.0862841265     0.9938513059    -0.9864404997
 ----------------------------------------------------------------
 Molecular Point Group                 C1    NOp =  1
 Largest Abelian Subgroup              C1    NOp =  1
 Nuclear Repulsion Energy =  3256.8183087780 hartrees
 There are      113 alpha and      113 beta electrons
 Requested basis set is STO-3G
 There are 86 shells and 176 basis functions

 Total QAlloc Memory Limit   4000 MB
 Mega-Array Size       392 MB
 MEM_STATIC part       400 MB
 A cutoff of  1.0D-12 yielded   2364 shell pairs
 There are     11121 function pairs
 
 -------------------------------------------------------
 OpenMP Integral Computing Module                       
 Release: version 1.0, May 2013, Q-Chem Inc. Pittsburgh 
 -------------------------------------------------------
 Integral Job Info:
 Integral job number is                      11
 Integral operator is                         1
 short-range coefficients                     0
 long-range coefficients              100000000
 Omega coefficients                           0
 if combine SR and LR in K                    0
 Integral screening is                        0
 Integral computing path is                   2
 max size of driver memory is            800000
 size of driver memory is                 45569
 size of scratch memory is              1046100
 max col of scratch BK array                289
 max len of scratch array in speh3           22
 max len of scratch index in speh4            8
 max int batch size is                      520
 min int batch size is                       52
 fixed nKL is                                52
 max L of basis functions is                  1
 order of int derivative is                   0
 number of shells is                         86
 number of basis is                         176
 number of cartesian basis is               176
 number of contracted shell pairs          2364
 number of primitive shell pairs          12008
 maxK2 (contraction) of shell pair            9
 max number of K2 of shell pair               1
 max number of CS2 of shell pair            369
 max number of PS2 of shell pair           1344
 mem total for path MDJ                   49782
 -------------------------------------------------------
 Smallest overlap matrix eigenvalue = 2.13E-01

 Scale SEOQF with 1.000000e-02/1.000000e-01/1.000000e-01

 Standard Electronic Orientation quadrupole field applied
 Nucleus-field energy     =     0.0000000127 hartrees
 Guess from superposition of atomic densities
 Warning:  Energy on first SCF cycle will be non-variational
 A restricted hybrid HF-DFT SCF calculation will be
 performed using Pulay DIIS extrapolation
 Exchange:     0.2000 Hartree-Fock + 0.0800 Slater + 0.7200 B88
 Correlation:  0.1900 VWN1RPA + 0.8100 LYP
 Using SG-1 standard quadrature grid
 Dispersion:   Grimme D3
 SCF converges when DIIS error is below 1.0E-08
 using 48 threads for integral computing
 -------------------------------------------------------
 OpenMP Integral computing Module                
 Release: version 1.0, May 2013, Q-Chem Inc. Pittsburgh 
 -------------------------------------------------------
 -------------------------------------------------------
 OpenMP BLAS3 based DFT computing Module                
 Release: version 1.0, May 2013, Q-Chem Inc. Pittsburgh 
 -------------------------------------------------------
 ---------------------------------------
  Cycle       Energy         DIIS Error
 ---------------------------------------
    1   -1507.6543230537      7.47E-02
    2   -1509.7433558923      1.05E-02
    3   -1507.1711398955      2.84E-02
    4   -1510.1807824114      5.01E-03
    5   -1510.2811078959      1.59E-03
    6   -1510.2908148051      5.67E-04
    7   -1510.2920866895      1.81E-04
    8   -1510.2922239654      3.91E-05
    9   -1510.2922298975      1.40E-05
   10   -1510.2922306908      4.64E-06
   11   -1510.2922307690      2.09E-06
   12   -1510.2922307890      3.09E-07
   13   -1510.2922307893      1.21E-07
   14   -1510.2922307894      3.79E-08
   15   -1510.2922307894      1.92E-08
   16   -1510.2922307894      7.22E-09 Convergence criterion met
 ---------------------------------------
 SCF time:  CPU 120.66 s  wall 2.57 s
 SCF   energy in the final basis set = -1510.29223079
 Total energy in the final basis set = -1510.29223079
 
 --------------------------------------------------------------
 
                    Orbital Energies (a.u.)
 --------------------------------------------------------------
 
 Alpha MOs
 -- Occupied --
-18.940 -18.937 -18.935 -18.932 -18.890 -18.886 -18.883 -18.879
-18.874 -18.873 -10.106 -10.103 -10.101 -10.097 -10.077 -10.068
-10.064 -10.060 -10.059 -10.058 -10.047 -10.042 -10.041 -10.041
-10.039 -10.038 -10.023 -10.022 -10.020 -10.019  -1.018  -1.014
 -1.011  -1.007  -0.973  -0.969  -0.941  -0.938  -0.937  -0.933
 -0.767  -0.763  -0.729  -0.724  -0.714  -0.706  -0.698  -0.658
 -0.653  -0.620  -0.598  -0.583  -0.548  -0.547  -0.539  -0.537
 -0.513  -0.511  -0.479  -0.477  -0.462  -0.459  -0.455  -0.454
 -0.437  -0.430  -0.425  -0.422  -0.416  -0.406  -0.405  -0.398
 -0.390  -0.380  -0.374  -0.368  -0.360  -0.358  -0.355  -0.350
 -0.347  -0.343  -0.337  -0.333  -0.331  -0.329  -0.327  -0.314
 -0.310  -0.308  -0.306  -0.299  -0.294  -0.290  -0.281  -0.277
 -0.272  -0.262  -0.253  -0.249  -0.242  -0.236  -0.233  -0.183
 -0.181  -0.174  -0.171  -0.161  -0.159  -0.153  -0.149  -0.146
 -0.142
 -- Virtual --
  0.090   0.092   0.102   0.105   0.225   0.226   0.245   0.255
  0.258   0.260   0.277   0.287   0.299   0.305   0.326   0.329
  0.331   0.337   0.340   0.348   0.356   0.359   0.367   0.374
  0.380   0.381   0.385   0.393   0.395   0.404   0.406   0.411
  0.414   0.415   0.420   0.420   0.423   0.430   0.432   0.435
  0.438   0.440   0.443   0.445   0.451   0.462   0.464   0.467
  0.480   0.486   0.487   0.491   0.504   0.505   0.509   0.538
  0.540   0.549   0.551   0.631   0.637   0.653   0.657
 --------------------------------------------------------------
 
          Ground-State Mulliken Net Atomic Charges

     Atom                 Charge (a.u.)
  ----------------------------------------
      1 O                    -0.217046
      2 C                     0.210875
      3 C                    -0.078381
      4 C                    -0.077413
      5 C                     0.203696
      6 O                    -0.173018
      7 C                    -0.052560
      8 C                    -0.048025
      9 O                    -0.172443
     10 C                     0.211327
     11 C                    -0.079812
     12 C                    -0.078806
     13 C                     0.218243
     14 O                    -0.205759
     15 O                    -0.164908
     16 O                    -0.179410
     17 O                    -0.213993
     18 C                    -0.150041
     19 C                     0.026261
     20 C                    -0.144417
     21 C                    -0.143240
     22 C                     0.024776
     23 O                    -0.185941
     24 H                     0.086006
     25 H                     0.084352
     26 H                     0.083062
     27 H                     0.078921
     28 H                     0.073649
     29 H                     0.079274
     30 H                     0.073433
     31 H                     0.092929
     32 O                    -0.209649
     33 C                    -0.146578
     34 C                     0.024413
     35 C                    -0.143130
     36 C                    -0.144748
     37 C                     0.025492
     38 O                    -0.185267
     39 H                     0.085311
     40 H                     0.086201
     41 H                     0.109748
     42 H                     0.087883
     43 H                     0.078285
     44 H                     0.072745
     45 H                     0.078284
     46 H                     0.072767
     47 H                     0.086578
     48 H                     0.079245
     49 H                     0.084442
     50 H                     0.111654
     51 H                     0.096808
     52 H                     0.088341
     53 H                     0.089390
     54 H                     0.098370
     55 H                     0.090835
     56 H                     0.100988
  ----------------------------------------
  Sum of atomic charges =    -0.000000

 -----------------------------------------------------------------
                    Cartesian Multipole Moments
 -----------------------------------------------------------------
    Charge (ESU x 10^10)
                -0.0000
    Dipole Moment (Debye)
         X      -0.4843      Y       1.5593      Z       4.5761
       Tot       4.8587
    Quadrupole Moments (Debye-Ang)
        XX    -147.4745     XY      -5.7935     YY    -156.5706
        XZ       4.5392     YZ      -5.2431     ZZ    -166.6085
    Octopole Moments (Debye-Ang^2)
       XXX     -41.7109    XXY       9.0157    XYY       1.6245
       YYY      28.1017    XXZ      77.6690    XYZ       7.5099
       YYZ      -0.6628    XZZ      -3.8236    YZZ      -1.9087
       ZZZ      -2.2098
    Hexadecapole Moments (Debye-Ang^3)
      XXXX  -13484.1441   XXXY    -100.2593   XXYY   -2635.3946
      XYYY      56.4548   YYYY   -1869.4982   XXXZ      65.8905
      XXYZ     -34.3628   XYYZ       7.4551   YYYZ     -21.8959
      XXZZ   -2636.7715   XYZZ      -2.3868   YYZZ    -535.1244
      XZZZ     -19.1508   YZZZ      -2.3536   ZZZZ   -1259.5673
 -----------------------------------------------------------------
 Calculating analytic gradient of the SCF energy
 Gradient of SCF Energy
            1           2           3           4           5           6
    1  -0.0003272   0.0005175  -0.0014684   0.0004069   0.0000846  -0.0000257
    2  -0.0006938   0.0012328  -0.0020720   0.0046288  -0.0016496  -0.0011596
    3   0.0009276  -0.0011336  -0.0021482   0.0022563  -0.0003397  -0.0001034
            7           8           9          10          11          12
    1   0.0044605  -0.0038483   0.0026885  -0.0058740   0.0003159   0.0028129
    2  -0.0040503   0.0066936   0.0002017  -0.0073962   0.0030240   0.0006524
    3   0.0000869   0.0039199  -0.0034508  -0.0001474   0.0029494  -0.0025876
           13          14          15          16          17          18
    1   0.0004710  -0.0006585   0.0000375   0.0000592   0.0000102  -0.0000763
    2   0.0024121  -0.0018485  -0.0000132  -0.0000206  -0.0000032  -0.0000201
    3  -0.0013449   0.0013533   0.0000727   0.0000310   0.0000212  -0.0000873
           19          20          21          22          23          24
    1   0.0002285   0.0000187  -0.0001183   0.0000747  -0.0001469   0.0000019
    2  -0.0001556  -0.0000223  -0.0001352   0.0000882   0.0000274  -0.0000323
    3  -0.0001470  -0.0000626  -0.0001369   0.0000469   0.0001512   0.0000145
           25          26          27          28          29          30
    1  -0.0000455  -0.0000080   0.0000165   0.0000080   0.0000083   0.0000038
    2  -0.0000552   0.0000127   0.0000089   0.0000385   0.0000244   0.0000327
    3   0.0000009  -0.0000048   0.0000525   0.0000010   0.0000087   0.0000484
           31          32          33          34          35          36
    1   0.0000444   0.0001397   0.0000066  -0.0002526   0.0000139   0.0000121
    2   0.0000184   0.0000317  -0.0000033   0.0001480  -0.0000595   0.0000535
    3  -0.0000659   0.0000015  -0.0000430  -0.0000078  -0.0001134   0.0001744
           37          38          39          40          41          42
    1   0.0001991   0.0000587   0.0000805   0.0000006  -0.0000241  -0.0000043
    2   0.0001625  -0.0002184   0.0000007  -0.0000380  -0.0000436   0.0000289
    3  -0.0003266   0.0000542  -0.0000361  -0.0000395  -0.0000476   0.0000380
           43          44          45          46          47          48
    1   0.0000385  -0.0000841  -0.0000310   0.0000370   0.0000398   0.0000031
    2   0.0000176  -0.0000215   0.0000113  -0.0000005   0.0000005   0.0000166
    3  -0.0000187   0.0000793  -0.0000200   0.0000589   0.0000289   0.0000163
           49          50          51          52          53          54
    1  -0.0000186   0.0000276   0.0000067   0.0000224   0.0000649   0.0000261
    2   0.0000261   0.0000681  -0.0000092  -0.0000410   0.0000575  -0.0000378
    3   0.0000178   0.0000384   0.0000250   0.0000508   0.0000355  -0.0000357
           55          56
    1  -0.0000561   0.0000214
    2   0.0000126   0.0000686
    3  -0.0000763  -0.0000367
 Max gradient component =       7.396E-03
 RMS gradient           =       1.366E-03
 Gradient time:  CPU 30.77 s  wall 0.65 s
 Geometry Optimization Parameters
   NAtoms,    NIC,     NZ,  NCons,   NDum,   NFix, NCnnct, MaxDiis
       56     458       0       0       0       0       0       0


** GEOMETRY OPTIMIZATION IN DELOCALIZED INTERNAL COORDINATES **
   Searching for a Minimum

   Optimization Cycle:   1

                       Coordinates (Angstroms)
     ATOM                X               Y               Z
      1  O        -2.0001025718   -2.0612726941    0.3527240441
      2  C        -2.3544405750   -1.0574385653    1.0159563036
      3  C        -3.7771339044   -0.3915634798    1.0390303086
      4  C        -3.8782013285    0.9282926709    0.1500574274
      5  C        -2.6011661361    1.1239237341   -0.7389960822
      6  O        -1.6115469401    1.7958872795    0.0432365279
      7  C        -0.3780787655    1.9753948997   -0.7611618426
      8  C         0.6073366776    2.8614577685    0.0857128690
      9  O         1.6045847850    2.0309751763    0.8073174355
     10  C         2.4135216358    1.2898531145   -0.1141261839
     11  C         3.4464172676    0.4613776393    0.7152343328
     12  C         3.6188110606   -1.0203285756    0.1820555683
     13  C         2.5967759061   -1.5176915149   -0.9042290066
     14  O         2.8594053074   -2.2984568182   -1.8432863413
     15  O        -1.5177453583   -0.3398821659    1.9157556449
     16  O         1.2657673028   -1.0710972933   -0.5918231587
     17  O         2.3531441187    1.3966879100   -1.3584016638
     18  C         0.2677248753   -1.6657099490   -1.5204101780
     19  C         4.9125214985    1.0250043411    0.4543378561
     20  C         5.9079149658    0.3554753450    1.4834955589
     21  C         6.0887291490   -1.0741254233    0.8502772449
     22  C         5.1030478265   -0.9844550938   -0.3777196232
     23  O         5.2698962407    0.4120324175   -0.8439984843
     24  H         3.1629786020    0.4924781733    1.7812774729
     25  H         3.5432376166   -1.7313753668    1.0270264062
     26  H         4.9721706491    2.1290211829    0.3919540484
     27  H         6.8596594026    0.9088521295    1.5164554046
     28  H         5.4845567333    0.3188213308    2.4999808790
     29  H         7.1217757098   -1.2315197904    0.5011870083
     30  H         5.8230159329   -1.8868417163    1.5451469464
     31  H         5.2854066991   -1.6991387700   -1.2040545569
     32  O        -2.4307539535    0.7613276585   -1.9231143806
     33  C        -0.1583958310   -0.9345732432    1.9874891068
     34  C        -4.8950678769   -1.2943220394    0.3687101000
     35  C        -6.2964758948   -0.7903516292    0.8917059903
     36  C        -6.4310132876    0.5741724555    0.1174912346
     37  C        -5.1192923205    0.5616547988   -0.7637356757
     38  O        -4.8945708945   -0.8748251045   -1.0512736536
     39  H        -4.0221427962   -0.1577483477    2.0906800766
     40  H        -4.0366430573    1.8246986385    0.7749052580
     41  H         0.3883743544   -0.8946771842    1.0128447396
     42  H        -4.7118141819   -2.3832610197    0.4492002885
     43  H        -7.0898112769   -1.4973255193    0.6005047107
     44  H        -6.3179473994   -0.6656183905    1.9861560946
     45  H        -7.3271087722    0.5909974675   -0.5227695865
     46  H        -6.4650580724    1.4431232899    0.7943377091
     47  H        -5.1722056928    1.1376858696   -1.7075806423
     48  H        -0.2077827571   -1.9883446540    2.3292197612
     49  H         0.3819313218   -0.3312156696    2.7393845665
     50  H        -0.6203014749   -1.9327733002   -0.9013434143
     51  H         0.7012510937   -2.5543514007   -2.0172408044
     52  H        -0.0177477713   -0.9204962322   -2.2894147832
     53  H         1.1197165464    3.5908100708   -0.5786063700
     54  H         0.0463467498    3.4067182606    0.8709025792
     55  H        -0.6139762318    2.4703351920   -1.7278529078
     56  H         0.0862841265    0.9938513059   -0.9864404997
   Point Group: c1    Number of degrees of freedom:   162


   Energy is  -1510.292230789


 Attempting to Generate Delocalized Internal Coordinates

162 Hessian modes will be used to form the next step
  Hessian Eigenvalues:
     0.002000    0.002000    0.002000    0.002000    0.002000    0.002700
     0.002707    0.004103    0.004283    0.004339    0.004415    0.004508
     0.004559    0.004566    0.004602    0.006805    0.006849    0.010583
     0.011317    0.011776    0.012619    0.021669    0.021704    0.026034
     0.026248    0.030816    0.030845    0.035309    0.035681    0.040296
     0.040769    0.041961    0.042158    0.045393    0.046749    0.046956
     0.047389    0.048126    0.050671    0.051405    0.051458    0.052880
     0.053508    0.054225    0.054608    0.055677    0.055868    0.056455
     0.057066    0.059358    0.059587    0.060475    0.060545    0.063697
     0.063716    0.064175    0.064284    0.069827    0.070127    0.072911
     0.073092    0.091140    0.092274    0.092814    0.093027    0.095415
     0.095975    0.096079    0.100024    0.103005    0.103369    0.107795
     0.109893    0.110569    0.113116    0.121027    0.121543    0.134569
     0.137663    0.157080    0.157939    0.160000    0.160000    0.160000
     0.160000    0.160000    0.160000    0.163191    0.163245    0.219083
     0.219473    0.220412    0.220931    0.223342    0.228554    0.238139
     0.238633    0.239618    0.239786    0.245798    0.248360    0.248953
     0.249117    0.249947    0.249990    0.250000    0.250000    0.250000
     0.250000    0.250000    0.250000    0.250000    0.250000    0.253249
     0.253672    0.258088    0.258436    0.259417    0.261536    0.266235
     0.292336    0.292872    0.306216    0.307637    0.317420    0.320795
     0.324240    0.324572    0.327095    0.327171    0.327704    0.327866
     0.328516    0.328784    0.329004    0.329194    0.329282    0.329672
     0.331197    0.331528    0.332305    0.332960    0.334643    0.334824
     0.334842    0.334900    0.334909    0.334911    0.335217    0.335254
     0.337521    0.339503    0.340150    0.341738    0.398233    0.406004
     0.410966    0.420297    0.816901    0.831216    0.832143    0.835485

 Minimum Search - Taking Simple RFO Step
 Searching for Lamda that Minimizes Along All modes
 Value Taken    Lamda =  -0.01475546
 Calculated Step too Large.  Step scaled by  0.369102
 Step Taken.  Stepsize is  0.300000

                             Maximum     Tolerance    Cnvgd?
         Gradient           0.012557      0.000300      NO
         Displacement       0.166758      0.001200      NO
         Energy change     *********      0.000001      NO


 New Cartesian Coordinates Obtained by Inverse Iteration

 Displacement from previous Coordinates is:  6.350493
 Adding empirical dispersion correction 
 ----------------------------------------------------------------
 Doing -D3(op) with
 s6 =   1.00000
 s8 =   0.78311
 a1 =   0.30000
 a2 =   4.25000
 n  =  10.00000
 -D3 energy without 3body term =     -0.0786594990 hartrees
 ----------------------------------------------------------------
             Standard Nuclear Orientation (Angstroms)
    I     Atom           X                Y                Z
 ----------------------------------------------------------------
    1      O      -1.5439358946    -1.8433549930     0.4676162638
    2      C      -2.0084111890    -0.8505128022     1.0772531376
    3      C      -3.5023728041    -0.3649824540     1.0971326387
    4      C      -3.7885014431     0.8582825810     0.1153728352
    5      C      -2.5649277902     1.1407356508    -0.8239835137
    6      O      -1.6142794234     1.9194940665    -0.0942040675
    7      C      -0.3817488186     2.0874099218    -0.9024767672
    8      C       0.6038323674     2.9858464372    -0.0689622480
    9      O       1.5601849453     2.1635174301     0.7145894108
   10      C       2.4187756235     1.4133588421    -0.1530657863
   11      C       3.2556733843     0.4331249500     0.7299753570
   12      C       3.2849822024    -1.0429208833     0.1559056052
   13      C       2.3187249346    -1.3689920970    -1.0408620756
   14      O       2.5803479023    -2.1272013469    -1.9984999930
   15      O      -1.2486756271     0.0292025877     1.8979177446
   16      O       1.0289137435    -0.7675113069    -0.8328066278
   17      O       2.4689838344     1.5472157429    -1.3951831804
   18      C       0.0650568904    -1.1863138767    -1.8851955504
   19      C       4.7994468849     0.8073994584     0.6281311115
   20      C       5.5974078410    -0.0165620523     1.7156057764
   21      C       5.6530300333    -1.4387951553     1.0436056255
   22      C       4.8087460226    -1.1852156734    -0.2643401246
   23      O       5.1976977650     0.1899755919    -0.6561247358
   24      H       2.8767417790     0.4686347024     1.7657769208
   25      H       3.0393296341    -1.7631410878     0.9597494036
   26      H       5.0055767164     1.8953631954     0.6167922979
   27      H       6.6047116486     0.4056066040     1.8577890200
   28      H       5.0774408320    -0.0264462111     2.6868710772
   29      H       6.6859320312    -1.7206376513     0.7837997867
   30      H       5.2201036072    -2.2291956176     1.6774771498
   31      H       4.9763028362    -1.8936751743    -1.0990943499
   32      O      -2.3729159182     0.7050045404    -1.9798023622
   33      C       0.1770800746    -0.3824839653     1.9643714996
   34      C      -4.5131892537    -1.4475279841     0.5305858802
   35      C      -5.9543899907    -1.0813007000     1.0602020686
   36      C      -6.2772121051     0.1921387704     0.1919905439
   37      C      -4.9950739982     0.2736490015    -0.7280565842
   38      O      -4.5984687316    -1.1419150351    -0.9158780985
   39      H      -3.7514434948    -0.0833026709     2.1360522501
   40      H      -4.0415804517     1.7731768883     0.6793506573
   41      H       0.6905131889    -0.3426437958     0.9717778043
   42      H      -4.1931188905    -2.4961435775     0.6849804010
   43      H      -6.6592902372    -1.9011651050     0.8481486169
   44      H      -5.9658691654    -0.8757875307     2.1425056094
   45      H      -7.1828575074     0.0486229779    -0.4182280530
   46      H      -6.4045327551     1.0999740582     0.8034995256
   47      H      -5.1414764693     0.7642846820    -1.7095511689
   48      H       0.2715732488    -1.4073070092     2.3772565394
   49      H       0.6536488344     0.3357959117     2.6559471669
   50      H      -0.9079951749    -1.3638051771    -1.3705607499
   51      H       0.4335083124    -2.1005042594    -2.3881570897
   52      H      -0.0454659432    -0.3770100233    -2.6342636773
   53      H       1.1433125548     3.6875452030    -0.7415179062
   54      H       0.0311579153     3.5625217789     0.6847614717
   55      H      -0.6104998838     2.5492736902    -1.8870343914
   56      H       0.0852744044     1.0993291207    -1.0907704315
 ----------------------------------------------------------------
 Molecular Point Group                 C1    NOp =  1
 Largest Abelian Subgroup              C1    NOp =  1
 Nuclear Repulsion Energy =  3317.5246192335 hartrees
 There are      113 alpha and      113 beta electrons
 Applying Cartesian multipole field
    Component          Value
    ---------          -----
     (2,0,0)        1.00000E-12
     (0,2,0)        2.00000E-11
     (0,0,2)       -3.00000E-11
 Nucleus-field energy     =     0.0000000072 hartrees
 Requested basis set is STO-3G
 There are 86 shells and 176 basis functions
 A cutoff of  1.0D-12 yielded   2427 shell pairs
 There are     11490 function pairs
 Smallest overlap matrix eigenvalue = 2.13E-01
 Guess MOs from SCF MO coefficient file
 Reading MOs from coefficient file
 Reading MOs from coefficient file
 A restricted hybrid HF-DFT SCF calculation will be
 performed using Pulay DIIS extrapolation
 Exchange:     0.2000 Hartree-Fock + 0.0800 Slater + 0.7200 B88
 Correlation:  0.1900 VWN1RPA + 0.8100 LYP
 Using SG-1 standard quadrature grid
 Dispersion:   Grimme D3
 SCF converges when DIIS error is below 1.0E-08
 Geometry optimization detected.  Setting ReadMinima to 0
 Setting SaveMinima to 0
 using 48 threads for integral computing
 -------------------------------------------------------
 OpenMP Integral computing Module                
 Release: version 1.0, May 2013, Q-Chem Inc. Pittsburgh 
 -------------------------------------------------------
 -------------------------------------------------------
 OpenMP BLAS3 based DFT computing Module                
 Release: version 1.0, May 2013, Q-Chem Inc. Pittsburgh 
 -------------------------------------------------------
 ---------------------------------------
  Cycle       Energy         DIIS Error
 ---------------------------------------
    1   -1510.0471935848      6.85E-03
    2   -1510.2817966483      1.11E-03
    3   -1510.2715267198      1.97E-03
    4   -1510.2876232991      4.84E-04
    5   -1510.2886380450      1.14E-04
    6   -1510.2886841339      6.39E-05
    7   -1510.2886984255      3.41E-05
    8   -1510.2887034755      5.60E-06
    9   -1510.2887036176      2.23E-06
   10   -1510.2887036357      1.32E-06
   11   -1510.2887036435      4.60E-07
   12   -1510.2887036446      1.03E-07
   13   -1510.2887036446      4.90E-08
   14   -1510.2887036447      2.51E-08
   15   -1510.2887036446      2.85E-09 Convergence criterion met
 ---------------------------------------
 SCF time:  CPU 110.99 s  wall 2.32 s
 SCF   energy in the final basis set = -1510.28870364
 Total energy in the final basis set = -1510.28870364
 
 --------------------------------------------------------------
 
                    Orbital Energies (a.u.)
 --------------------------------------------------------------
 
 Alpha MOs
 -- Occupied --
-18.941 -18.934 -18.934 -18.932 -18.890 -18.886 -18.883 -18.875
-18.874 -18.873 -10.106 -10.101 -10.099 -10.097 -10.076 -10.066
-10.064 -10.060 -10.059 -10.058 -10.047 -10.047 -10.043 -10.041
-10.038 -10.037 -10.023 -10.022 -10.020 -10.019  -1.019  -1.013
 -1.010  -1.006  -0.973  -0.969  -0.942  -0.939  -0.935  -0.933
 -0.767  -0.763  -0.729  -0.724  -0.713  -0.705  -0.698  -0.658
 -0.655  -0.620  -0.597  -0.583  -0.549  -0.546  -0.539  -0.537
 -0.514  -0.511  -0.479  -0.475  -0.465  -0.460  -0.455  -0.453
 -0.437  -0.430  -0.425  -0.419  -0.416  -0.407  -0.405  -0.400
 -0.392  -0.376  -0.373  -0.366  -0.363  -0.359  -0.354  -0.348
 -0.347  -0.344  -0.337  -0.334  -0.330  -0.329  -0.328  -0.314
 -0.310  -0.307  -0.305  -0.299  -0.293  -0.291  -0.279  -0.276
 -0.272  -0.262  -0.252  -0.249  -0.241  -0.236  -0.233  -0.184
 -0.181  -0.174  -0.168  -0.161  -0.157  -0.153  -0.148  -0.146
 -0.143
 -- Virtual --
  0.089   0.095   0.101   0.105   0.224   0.226   0.244   0.255
  0.259   0.261   0.277   0.288   0.299   0.306   0.325   0.330
  0.330   0.338   0.340   0.348   0.356   0.360   0.367   0.375
  0.379   0.382   0.386   0.392   0.394   0.404   0.407   0.412
  0.415   0.415   0.419   0.420   0.426   0.431   0.432   0.434
  0.439   0.440   0.443   0.448   0.453   0.460   0.464   0.467
  0.478   0.483   0.487   0.487   0.503   0.505   0.508   0.539
  0.541   0.549   0.551   0.631   0.637   0.653   0.656
 --------------------------------------------------------------
 
          Ground-State Mulliken Net Atomic Charges

     Atom                 Charge (a.u.)
  ----------------------------------------
      1 O                    -0.217525
      2 C                     0.206528
      3 C                    -0.079103
      4 C                    -0.077570
      5 C                     0.203560
      6 O                    -0.172252
      7 C                    -0.056560
      8 C                    -0.048319
      9 O                    -0.172838
     10 C                     0.209682
     11 C                    -0.081009
     12 C                    -0.079716
     13 C                     0.218569
     14 O                    -0.205079
     15 O                    -0.165675
     16 O                    -0.177953
     17 O                    -0.212808
     18 C                    -0.138963
     19 C                     0.026117
     20 C                    -0.144506
     21 C                    -0.143249
     22 C                     0.024932
     23 O                    -0.185976
     24 H                     0.086102
     25 H                     0.085265
     26 H                     0.083215
     27 H                     0.078863
     28 H                     0.073370
     29 H                     0.079368
     30 H                     0.073485
     31 H                     0.093209
     32 O                    -0.211893
     33 C                    -0.142203
     34 C                     0.024004
     35 C                    -0.143141
     36 C                    -0.144699
     37 C                     0.025248
     38 O                    -0.186484
     39 H                     0.085028
     40 H                     0.085928
     41 H                     0.106949
     42 H                     0.087522
     43 H                     0.078094
     44 H                     0.072779
     45 H                     0.078158
     46 H                     0.072840
     47 H                     0.086403
     48 H                     0.077574
     49 H                     0.084594
     50 H                     0.108737
     51 H                     0.099587
     52 H                     0.091538
     53 H                     0.090395
     54 H                     0.097798
     55 H                     0.088454
     56 H                     0.103626
  ----------------------------------------
  Sum of atomic charges =    -0.000000

 -----------------------------------------------------------------
                    Cartesian Multipole Moments
 -----------------------------------------------------------------
    Charge (ESU x 10^10)
                -0.0000
    Dipole Moment (Debye)
         X      -0.8266      Y       1.4704      Z       4.2417
       Tot       4.5648
    Quadrupole Moments (Debye-Ang)
        XX    -149.8151     XY      -5.5909     YY    -157.4663
        XZ       5.5893     YZ      -5.4978     ZZ    -164.9754
    Octopole Moments (Debye-Ang^2)
       XXX     -62.5128    XXY       1.5427    XYY       2.9647
       YYY      21.8486    XXZ      71.1379    XYZ       7.8001
       YYZ      -2.2632    XZZ      -6.7468    YZZ      -1.9084
       ZZZ      -3.9113
    Hexadecapole Moments (Debye-Ang^3)
      XXXX  -12292.5725   XXXY    -107.5665   XXYY   -2401.8222
      XYYY      33.7007   YYYY   -1826.5272   XXXZ      44.7610
      XXYZ     -20.8906   XYYZ     -15.1653   YYYZ       3.8849
      XXZZ   -2414.8452   XYZZ      -2.8548   YYZZ    -558.7496
      XZZZ     -63.7661   YZZZ      22.9660   ZZZZ   -1418.6274
 -----------------------------------------------------------------
 Calculating analytic gradient of the SCF energy
 Gradient of SCF Energy
            1           2           3           4           5           6
    1   0.0010431   0.0001283  -0.0013678   0.0009029  -0.0022710   0.0012895
    2  -0.0023783   0.0037519  -0.0028328   0.0018502   0.0026795  -0.0029633
    3  -0.0019650   0.0006904  -0.0010730   0.0019557  -0.0029520   0.0011533
            7           8           9          10          11          12
    1   0.0005666  -0.0020743   0.0020690   0.0001328  -0.0037597   0.0023630
    2  -0.0023783   0.0033084  -0.0007332  -0.0016326  -0.0005822   0.0005644
    3   0.0001929   0.0017166  -0.0015550   0.0011937   0.0018850  -0.0018206
           13          14          15          16          17          18
    1  -0.0001336  -0.0003902  -0.0013465  -0.0023683  -0.0010865   0.0019929
    2   0.0008417  -0.0011921   0.0001513   0.0006234  -0.0021900   0.0014623
    3   0.0015963   0.0004843  -0.0013341   0.0006491  -0.0007431   0.0001453
           19          20          21          22          23          24
    1  -0.0002553  -0.0000333  -0.0001236   0.0002104   0.0000242  -0.0015873
    2   0.0005739  -0.0003131   0.0005857  -0.0002878   0.0004441  -0.0006238
    3  -0.0005059  -0.0000524  -0.0000977   0.0002227   0.0000728   0.0006491
           25          26          27          28          29          30
    1   0.0002288   0.0000971  -0.0000229  -0.0001170  -0.0000191   0.0001789
    2  -0.0003449   0.0000675  -0.0000168   0.0000460  -0.0000303  -0.0000749
    3  -0.0002084   0.0000067  -0.0000452  -0.0000018   0.0000522   0.0002132
           31          32          33          34          35          36
    1   0.0000939   0.0022544  -0.0008695   0.0005773   0.0002469  -0.0001552
    2   0.0000169  -0.0021949   0.0000407  -0.0001859   0.0006022  -0.0002435
    3   0.0000172   0.0012880  -0.0011760  -0.0001270  -0.0000500   0.0000750
           37          38          39          40          41          42
    1  -0.0004868  -0.0001969   0.0001777   0.0004262   0.0096707   0.0000008
    2   0.0001073   0.0000430  -0.0002094  -0.0001123   0.0033300  -0.0000124
    3  -0.0007242  -0.0000503   0.0001475   0.0002359  -0.0005365   0.0000538
           43          44          45          46          47          48
    1  -0.0000819  -0.0001907   0.0000490  -0.0000232   0.0000673  -0.0000284
    2  -0.0000687  -0.0000349   0.0001220   0.0000490   0.0000127   0.0002981
    3  -0.0000240   0.0000075   0.0000493   0.0000055   0.0001008   0.0002596
           49          50          51          52          53          54
    1   0.0004973  -0.0056148   0.0002375   0.0001088  -0.0001576  -0.0001420
    2  -0.0001320   0.0014976   0.0007101   0.0009288   0.0006889  -0.0008654
    3  -0.0001138   0.0018490  -0.0006771   0.0002277   0.0002666   0.0001793
           55          56
    1   0.0004070  -0.0011389
    2  -0.0014184  -0.0013453
    3  -0.0008221  -0.0009869
 Max gradient component =       9.671E-03
 RMS gradient           =       1.426E-03
 Gradient time:  CPU 31.03 s  wall 0.65 s
 Geometry Optimization Parameters
   NAtoms,    NIC,     NZ,  NCons,   NDum,   NFix, NCnnct, MaxDiis
       56     458       0       0       0       0       0       0

 Cartesian Hessian Update
 Hessian Updated using BFGS Update


** GEOMETRY OPTIMIZATION IN DELOCALIZED INTERNAL COORDINATES **
   Searching for a Minimum

   Optimization Cycle:   2

                       Coordinates (Angstroms)
     ATOM                X               Y               Z
      1  O        -1.5439358946   -1.8433549930    0.4676162638
      2  C        -2.0084111890   -0.8505128022    1.0772531376
      3  C        -3.5023728041   -0.3649824540    1.0971326387
      4  C        -3.7885014431    0.8582825810    0.1153728352
      5  C        -2.5649277902    1.1407356508   -0.8239835137
      6  O        -1.6142794234    1.9194940665   -0.0942040675
      7  C        -0.3817488186    2.0874099218   -0.9024767672
      8  C         0.6038323674    2.9858464372   -0.0689622480
      9  O         1.5601849453    2.1635174301    0.7145894108
     10  C         2.4187756235    1.4133588421   -0.1530657863
     11  C         3.2556733843    0.4331249500    0.7299753570
     12  C         3.2849822024   -1.0429208833    0.1559056052
     13  C         2.3187249346   -1.3689920970   -1.0408620756
     14  O         2.5803479023   -2.1272013469   -1.9984999930
     15  O        -1.2486756271    0.0292025877    1.8979177446
     16  O         1.0289137435   -0.7675113069   -0.8328066278
     17  O         2.4689838344    1.5472157429   -1.3951831804
     18  C         0.0650568904   -1.1863138767   -1.8851955504
     19  C         4.7994468849    0.8073994584    0.6281311115
     20  C         5.5974078410   -0.0165620523    1.7156057764
     21  C         5.6530300333   -1.4387951553    1.0436056255
     22  C         4.8087460226   -1.1852156734   -0.2643401246
     23  O         5.1976977650    0.1899755919   -0.6561247358
     24  H         2.8767417790    0.4686347024    1.7657769208
     25  H         3.0393296341   -1.7631410878    0.9597494036
     26  H         5.0055767164    1.8953631954    0.6167922979
     27  H         6.6047116486    0.4056066040    1.8577890200
     28  H         5.0774408320   -0.0264462111    2.6868710772
     29  H         6.6859320312   -1.7206376513    0.7837997867
     30  H         5.2201036072   -2.2291956176    1.6774771498
     31  H         4.9763028362   -1.8936751743   -1.0990943499
     32  O        -2.3729159182    0.7050045404   -1.9798023622
     33  C         0.1770800746   -0.3824839653    1.9643714996
     34  C        -4.5131892537   -1.4475279841    0.5305858802
     35  C        -5.9543899907   -1.0813007000    1.0602020686
     36  C        -6.2772121051    0.1921387704    0.1919905439
     37  C        -4.9950739982    0.2736490015   -0.7280565842
     38  O        -4.5984687316   -1.1419150351   -0.9158780985
     39  H        -3.7514434948   -0.0833026709    2.1360522501
     40  H        -4.0415804517    1.7731768883    0.6793506573
     41  H         0.6905131889   -0.3426437958    0.9717778043
     42  H        -4.1931188905   -2.4961435775    0.6849804010
     43  H        -6.6592902372   -1.9011651050    0.8481486169
     44  H        -5.9658691654   -0.8757875307    2.1425056094
     45  H        -7.1828575074    0.0486229779   -0.4182280530
     46  H        -6.4045327551    1.0999740582    0.8034995256
     47  H        -5.1414764693    0.7642846820   -1.7095511689
     48  H         0.2715732488   -1.4073070092    2.3772565394
     49  H         0.6536488344    0.3357959117    2.6559471669
     50  H        -0.9079951749   -1.3638051771   -1.3705607499
     51  H         0.4335083124   -2.1005042594   -2.3881570897
     52  H        -0.0454659432   -0.3770100233   -2.6342636773
     53  H         1.1433125548    3.6875452030   -0.7415179062
     54  H         0.0311579153    3.5625217789    0.6847614717
     55  H        -0.6104998838    2.5492736902   -1.8870343914
     56  H         0.0852744044    1.0993291207   -1.0907704315
   Point Group: c1    Number of degrees of freedom:   162


   Energy is  -1510.288703645

 Hessian Updated using BFGS Update

149 Hessian modes will be used to form the next step
  Hessian Eigenvalues:
     0.001775    0.002210    0.002671    0.002706    0.002926    0.004104
     0.004338    0.004369    0.004510    0.004566    0.004579    0.006796
     0.006843    0.007274    0.010434    0.010878    0.012595    0.021615
     0.021697    0.025777    0.026105    0.030779    0.030822    0.034920
     0.035588    0.037843    0.040199    0.040816    0.041741    0.042061
     0.043494    0.045628    0.046848    0.047841    0.048640    0.050627
     0.051402    0.052864    0.053431    0.054208    0.054599    0.055449
     0.055817    0.056188    0.057047    0.058596    0.059447    0.060415
     0.060541    0.063697    0.063715    0.064172    0.064283    0.069816
     0.070086    0.072894    0.073033    0.082744    0.091683    0.092292
     0.092814    0.093203    0.095532    0.096040    0.099978    0.101931
     0.103300    0.104388    0.108050    0.109892    0.110629    0.113149
     0.121268    0.132745    0.133844    0.146941    0.157545    0.159490
     0.159998    0.162849    0.163221    0.184681    0.218993    0.219480
     0.220376    0.223246    0.228024    0.236301    0.238463    0.239615
     0.239741    0.240144    0.245819    0.248361    0.248943    0.249078
     0.249935    0.249947    0.249992    0.253248    0.253671    0.258077
     0.258432    0.259147    0.261096    0.266088    0.292330    0.292846
     0.306109    0.307529    0.316861    0.320262    0.324239    0.324571
     0.327076    0.327170    0.327703    0.327858    0.328516    0.328784
     0.329004    0.329194    0.329281    0.329671    0.331197    0.331527
     0.332305    0.332917    0.334643    0.334823    0.334842    0.334899
     0.334909    0.334911    0.335216    0.335254    0.336828    0.337526
     0.340030    0.340721    0.395798    0.403662    0.410328    0.419754
     0.811914    0.831116    0.832140    0.835449    0.902387

 Minimum Search - Taking Simple RFO Step
 Searching for Lamda that Minimizes Along All modes
 Value Taken    Lamda =  -0.01924934
 Calculated Step too Large.  Step scaled by  0.531194
 Step Taken.  Stepsize is  0.300000

                             Maximum     Tolerance    Cnvgd?
         Gradient           0.060887      0.000300      NO
         Displacement       0.175705      0.001200      NO
         Energy change      0.003527      0.000001      NO


 New Cartesian Coordinates Obtained by Inverse Iteration

 Displacement from previous Coordinates is:  4.797763
 Adding empirical dispersion correction 
 ----------------------------------------------------------------
 Doing -D3(op) with
 s6 =   1.00000
 s8 =   0.78311
 a1 =   0.30000
 a2 =   4.25000
 n  =  10.00000
 -D3 energy without 3body term =     -0.0738581011 hartrees
 ----------------------------------------------------------------
             Standard Nuclear Orientation (Angstroms)
    I     Atom           X                Y                Z
 ----------------------------------------------------------------
    1      O      -1.6348107374    -1.8462951663     0.8219351835
    2      C      -2.0906537565    -0.7916479772     1.3244211938
    3      C      -3.5747053086    -0.2836316647     1.2716320242
    4      C      -3.8435966987     0.8306160621     0.1613846890
    5      C      -2.6198809130     1.0246959933    -0.8032846468
    6      O      -1.6650220192     1.8714934385    -0.1580179912
    7      C      -0.4465846311     1.9946903975    -0.9983859254
    8      C       0.5684496785     2.9001021727    -0.2083425747
    9      O       1.5208946253     2.1046258046     0.6079269176
   10      C       2.4900887097     1.4482392460    -0.2206455705
   11      C       3.2233167773     0.3803742049     0.6548055623
   12      C       3.3494112662    -1.0377665709    -0.0444895764
   13      C       2.5738212545    -1.2653642788    -1.3934522402
   14      O       3.0047021919    -1.9080862283    -2.3740648240
   15      O      -1.3287720156     0.1468137491     2.0737603916
   16      O       1.2436485311    -0.7254913932    -1.3244709219
   17      O       2.6756618249     1.6966675358    -1.4318771175
   18      C       0.4675578994    -1.0805749531    -2.5425378007
   19      C       4.7603908646     0.7677193380     0.7948169886
   20      C       5.4198032535    -0.1510494926     1.8990439091
   21      C       5.5862501954    -1.5040501306     1.1131787853
   22      C       4.9186355964    -1.1322209794    -0.2665592104
   23      O       5.3346609816     0.2745359683    -0.4761501749
   24      H       2.7147009195     0.3152182304     1.6317064117
   25      H       3.0137828622    -1.8330507334     0.6483392252
   26      H       4.9488440051     1.8525459173     0.9125253089
   27      H       6.3925593192     0.2595343416     2.2124729753
   28      H       4.7758522611    -0.2531923486     2.7871304044
   29      H       6.6487630705    -1.7569594910     0.9685093461
   30      H       5.0855680813    -2.3517122506     1.6078392697
   31      H       5.2071959422    -1.7596028839    -1.1324915779
   32      O      -2.4387819842     0.4919072192    -1.9195251603
   33      C       0.0793694218    -0.3005801818     2.2143654180
   34      C      -4.5904504204    -1.4117000590     0.8117407878
   35      C      -6.0322133403    -0.9821845701     1.2892445008
   36      C      -6.3390912789     0.1950951645     0.2901799204
   37      C      -5.0504123395     0.1706598425    -0.6236740134
   38      O      -4.6630227580    -1.2591060427    -0.6597021457
   39      H      -3.8322578256     0.1066792252     2.2727103675
   40      H      -4.0952456179     1.7988194685     0.6288808805
   41      H       0.6011352765    -0.3906526092     1.2305048211
   42      H      -4.2803998203    -2.4407041838     1.0780894764
   43      H      -6.7421045705    -1.8147507912     1.1590787849
   44      H      -6.0489181854    -0.6642339099     2.3438594063
   45      H      -7.2417172971    -0.0051766403    -0.3083727788
   46      H      -6.4634185086     1.1629187733     0.8021296013
   47      H      -5.1878365269     0.5576529341    -1.6517472589
   48      H       0.1317413337    -1.2762539163     2.7388408789
   49      H       0.5720143476     0.4741798139     2.8294364126
   50      H      -0.5586319378    -1.3434492320    -2.1977921297
   51      H       0.9524020395    -1.9301901917    -3.0598694890
   52      H       0.4264480014    -0.2110004509    -3.2283864840
   53      H       1.1076670764     3.5865536017    -0.8965307343
   54      H      -0.0021403586     3.4956357227     0.5323300699
   55      H      -0.6856756623     2.4185518407    -1.9973698531
   56      H       0.0067859366     0.9942824849    -1.1509080490
 ----------------------------------------------------------------
 Molecular Point Group                 C1    NOp =  1
 Largest Abelian Subgroup              C1    NOp =  1
 Nuclear Repulsion Energy =  3259.9651902060 hartrees
 There are      113 alpha and      113 beta electrons
 Applying Cartesian multipole field
    Component          Value
    ---------          -----
     (2,0,0)        1.00000E-12
     (0,2,0)        2.00000E-11
     (0,0,2)       -3.00000E-11
 Nucleus-field energy     =    -0.0000000037 hartrees
 Requested basis set is STO-3G
 There are 86 shells and 176 basis functions
 A cutoff of  1.0D-12 yielded   2394 shell pairs
 There are     11304 function pairs
 Smallest overlap matrix eigenvalue = 2.13E-01
 Guess MOs from SCF MO coefficient file
 Reading MOs from coefficient file
 Reading MOs from coefficient file
 A restricted hybrid HF-DFT SCF calculation will be
 performed using Pulay DIIS extrapolation
 Exchange:     0.2000 Hartree-Fock + 0.0800 Slater + 0.7200 B88
 Correlation:  0.1900 VWN1RPA + 0.8100 LYP
 Using SG-1 standard quadrature grid
 Dispersion:   Grimme D3
 SCF converges when DIIS error is below 1.0E-08
 Geometry optimization detected.  Setting ReadMinima to 0
 Setting SaveMinima to 0
 using 48 threads for integral computing
 -------------------------------------------------------
 OpenMP Integral computing Module                
 Release: version 1.0, May 2013, Q-Chem Inc. Pittsburgh 
 -------------------------------------------------------
 -------------------------------------------------------
 OpenMP BLAS3 based DFT computing Module                
 Release: version 1.0, May 2013, Q-Chem Inc. Pittsburgh 
 -------------------------------------------------------
 ---------------------------------------
  Cycle       Energy         DIIS Error
 ---------------------------------------
    1   -1510.0274398485      7.43E-03
    2   -1510.2802957081      9.05E-04
    3   -1510.2777012328      1.32E-03
    4   -1510.2844392869      4.76E-04
    5   -1510.2854126734      1.18E-04
    6   -1510.2854731148      3.71E-05
    7   -1510.2854786102      1.71E-05
    8   -1510.2854797165      7.48E-06
    9   -1510.2854799649      1.07E-06
   10   -1510.2854799690      6.98E-07
   11   -1510.2854799708      3.72E-07
   12   -1510.2854799714      8.29E-08
   13   -1510.2854799715      2.97E-08
   14   -1510.2854799715      1.34E-08
   15   -1510.2854799715      4.43E-09 Convergence criterion met
 ---------------------------------------
 SCF time:  CPU 109.38 s  wall 2.28 s
 SCF   energy in the final basis set = -1510.28547997
 Total energy in the final basis set = -1510.28547997
 
 --------------------------------------------------------------
 
                    Orbital Energies (a.u.)
 --------------------------------------------------------------
 
 Alpha MOs
 -- Occupied --
-18.936 -18.933 -18.932 -18.932 -18.890 -18.886 -18.878 -18.875
-18.874 -18.871 -10.102 -10.100 -10.098 -10.097 -10.075 -10.067
-10.063 -10.063 -10.059 -10.058 -10.057 -10.054 -10.042 -10.040
-10.038 -10.036 -10.023 -10.021 -10.020 -10.019  -1.016  -1.012
 -1.008  -1.007  -0.972  -0.968  -0.940  -0.936  -0.934  -0.932
 -0.766  -0.762  -0.728  -0.723  -0.713  -0.705  -0.698  -0.664
 -0.657  -0.620  -0.598  -0.582  -0.549  -0.545  -0.539  -0.537
 -0.512  -0.511  -0.480  -0.471  -0.464  -0.461  -0.454  -0.453
 -0.435  -0.430  -0.423  -0.419  -0.410  -0.409  -0.406  -0.403
 -0.396  -0.378  -0.371  -0.365  -0.362  -0.359  -0.354  -0.349
 -0.346  -0.343  -0.339  -0.333  -0.330  -0.330  -0.326  -0.313
 -0.310  -0.306  -0.305  -0.298  -0.293  -0.290  -0.279  -0.276
 -0.272  -0.260  -0.251  -0.248  -0.246  -0.235  -0.233  -0.182
 -0.181  -0.173  -0.169  -0.159  -0.156  -0.153  -0.147  -0.145
 -0.142
 -- Virtual --
  0.090   0.097   0.102   0.106   0.225   0.226   0.245   0.255
  0.257   0.261   0.278   0.288   0.299   0.306   0.325   0.329
  0.332   0.336   0.341   0.348   0.357   0.359   0.367   0.375
  0.379   0.382   0.386   0.393   0.393   0.405   0.408   0.413
  0.415   0.416   0.419   0.420   0.425   0.429   0.432   0.432
  0.434   0.436   0.440   0.441   0.446   0.450   0.454   0.465
  0.467   0.482   0.485   0.487   0.490   0.504   0.507   0.540
  0.541   0.550   0.552   0.634   0.635   0.653   0.656
 --------------------------------------------------------------
 
          Ground-State Mulliken Net Atomic Charges

     Atom                 Charge (a.u.)
  ----------------------------------------
      1 O                    -0.213171
      2 C                     0.204538
      3 C                    -0.078953
      4 C                    -0.077256
      5 C                     0.204765
      6 O                    -0.172269
      7 C                    -0.057168
      8 C                    -0.049350
      9 O                    -0.174527
     10 C                     0.209799
     11 C                    -0.080898
     12 C                    -0.079234
     13 C                     0.215708
     14 O                    -0.209852
     15 O                    -0.166494
     16 O                    -0.178474
     17 O                    -0.210474
     18 C                    -0.134182
     19 C                     0.025987
     20 C                    -0.144576
     21 C                    -0.143445
     22 C                     0.024742
     23 O                    -0.186184
     24 H                     0.085029
     25 H                     0.084987
     26 H                     0.082938
     27 H                     0.078569
     28 H                     0.072796
     29 H                     0.079067
     30 H                     0.073285
     31 H                     0.093166
     32 O                    -0.212191
     33 C                    -0.128031
     34 C                     0.024389
     35 C                    -0.143244
     36 C                    -0.144771
     37 C                     0.025274
     38 O                    -0.185991
     39 H                     0.084468
     40 H                     0.085408
     41 H                     0.094094
     42 H                     0.087498
     43 H                     0.077937
     44 H                     0.072599
     45 H                     0.078090
     46 H                     0.072753
     47 H                     0.086368
     48 H                     0.084132
     49 H                     0.091355
     50 H                     0.100427
     51 H                     0.100929
     52 H                     0.089689
     53 H                     0.092536
     54 H                     0.096587
     55 H                     0.088150
     56 H                     0.102675
  ----------------------------------------
  Sum of atomic charges =    -0.000000

 -----------------------------------------------------------------
                    Cartesian Multipole Moments
 -----------------------------------------------------------------
    Charge (ESU x 10^10)
                -0.0000
    Dipole Moment (Debye)
         X      -1.2627      Y       1.3641      Z       4.0101
       Tot       4.4200
    Quadrupole Moments (Debye-Ang)
        XX    -154.1775     XY      -7.6873     YY    -158.6428
        XZ       6.6345     YZ      -4.9093     ZZ    -161.8673
    Octopole Moments (Debye-Ang^2)
       XXX     -93.1131    XXY       0.3866    XYY       2.5000
       YYY      16.7874    XXZ      76.3060    XYZ       9.1641
       YYZ      -4.2506    XZZ     -14.2289    YZZ      -2.4932
       ZZZ      -8.3298
    Hexadecapole Moments (Debye-Ang^3)
      XXXX  -12725.7573   XXXY    -122.4552   XXYY   -2460.5644
      XYYY      39.4665   YYYY   -1733.2335   XXXZ     247.5612
      XXYZ     -19.7220   XYYZ      51.6142   YYYZ      18.3070
      XXZZ   -2526.4248   XYZZ      16.1307   YYZZ    -603.6187
      XZZZ     134.9417   YZZZ      23.1875   ZZZZ   -1785.5769
 -----------------------------------------------------------------
 Calculating analytic gradient of the SCF energy
 Gradient of SCF Energy
            1           2           3           4           5           6
    1  -0.0001152   0.0013114  -0.0008061  -0.0003039  -0.0027903   0.0010456
    2  -0.0053096   0.0098250  -0.0028134   0.0007741   0.0034858  -0.0031416
    3  -0.0022940   0.0060396   0.0005072   0.0002159  -0.0028100   0.0011228
            7           8           9          10          11          12
    1  -0.0028493  -0.0008211   0.0046952   0.0038200  -0.0040747   0.0017751
    2   0.0022417  -0.0026706   0.0016995   0.0020094  -0.0018511  -0.0004454
    3  -0.0020023  -0.0029286   0.0004664   0.0044142   0.0006918  -0.0006690
           13          14          15          16          17          18
    1   0.0020391  -0.0017460  -0.0041938   0.0005792   0.0001145   0.0019155
    2  -0.0020246   0.0004866  -0.0030507   0.0004636  -0.0014706   0.0012365
    3   0.0016210   0.0010778  -0.0031079  -0.0039695  -0.0014587  -0.0055659
           19          20          21          22          23          24
    1   0.0000186  -0.0004736   0.0000378  -0.0006495  -0.0002098  -0.0018426
    2   0.0011699  -0.0000361   0.0002040   0.0003172   0.0004090  -0.0003024
    3  -0.0002153  -0.0000631   0.0003747  -0.0002674  -0.0001220   0.0005658
           25          26          27          28          29          30
    1   0.0006863   0.0002014  -0.0000427  -0.0000581   0.0000222   0.0000352
    2  -0.0007885  -0.0000052   0.0000500  -0.0001957  -0.0000635   0.0000201
    3  -0.0005089   0.0000857  -0.0001501  -0.0001943   0.0000383  -0.0000334
           31          32          33          34          35          36
    1   0.0002161   0.0009103   0.0014622   0.0002270   0.0003859  -0.0000125
    2  -0.0000171  -0.0007838   0.0016271   0.0001195   0.0005115  -0.0002727
    3   0.0001335   0.0010904   0.0041944  -0.0001179  -0.0000094  -0.0000826
           37          38          39          40          41          42
    1  -0.0001874  -0.0000138   0.0003757   0.0006470   0.0058272  -0.0001028
    2  -0.0000476   0.0002348  -0.0005795  -0.0002340  -0.0007789   0.0000454
    3  -0.0004884  -0.0001189   0.0003818   0.0002864  -0.0041542   0.0001599
           43          44          45          46          47          48
    1  -0.0000755  -0.0001365   0.0000576  -0.0000262  -0.0001196  -0.0008963
    2  -0.0000679  -0.0000431   0.0000750   0.0000749   0.0000173   0.0008108
    3  -0.0000446  -0.0000280   0.0001060   0.0001014   0.0000467   0.0004935
           49          50          51          52          53          54
    1  -0.0009420  -0.0038965   0.0004923   0.0009286   0.0000032  -0.0003947
    2  -0.0005160  -0.0018935   0.0009917   0.0001829   0.0019006  -0.0022212
    3   0.0011511   0.0039002   0.0006564   0.0000790   0.0010647   0.0002904
           55          56
    1   0.0004425  -0.0024922
    2  -0.0020627   0.0027030
    3  -0.0010278   0.0010753
 Max gradient component =       9.825E-03
 RMS gradient           =       1.898E-03
 Gradient time:  CPU 30.00 s  wall 0.63 s
 Geometry Optimization Parameters
   NAtoms,    NIC,     NZ,  NCons,   NDum,   NFix, NCnnct, MaxDiis
       56     458       0       0       0       0       0       0

 Cartesian Hessian Update
 Hessian Updated using BFGS Update


** GEOMETRY OPTIMIZATION IN DELOCALIZED INTERNAL COORDINATES **
   Searching for a Minimum

   Optimization Cycle:   3

                       Coordinates (Angstroms)
     ATOM                X               Y               Z
      1  O        -1.6348107374   -1.8462951663    0.8219351835
      2  C        -2.0906537565   -0.7916479772    1.3244211938
      3  C        -3.5747053086   -0.2836316647    1.2716320242
      4  C        -3.8435966987    0.8306160621    0.1613846890
      5  C        -2.6198809130    1.0246959933   -0.8032846468
      6  O        -1.6650220192    1.8714934385   -0.1580179912
      7  C        -0.4465846311    1.9946903975   -0.9983859254
      8  C         0.5684496785    2.9001021727   -0.2083425747
      9  O         1.5208946253    2.1046258046    0.6079269176
     10  C         2.4900887097    1.4482392460   -0.2206455705
     11  C         3.2233167773    0.3803742049    0.6548055623
     12  C         3.3494112662   -1.0377665709   -0.0444895764
     13  C         2.5738212545   -1.2653642788   -1.3934522402
     14  O         3.0047021919   -1.9080862283   -2.3740648240
     15  O        -1.3287720156    0.1468137491    2.0737603916
     16  O         1.2436485311   -0.7254913932   -1.3244709219
     17  O         2.6756618249    1.6966675358   -1.4318771175
     18  C         0.4675578994   -1.0805749531   -2.5425378007
     19  C         4.7603908646    0.7677193380    0.7948169886
     20  C         5.4198032535   -0.1510494926    1.8990439091
     21  C         5.5862501954   -1.5040501306    1.1131787853
     22  C         4.9186355964   -1.1322209794   -0.2665592104
     23  O         5.3346609816    0.2745359683   -0.4761501749
     24  H         2.7147009195    0.3152182304    1.6317064117
     25  H         3.0137828622   -1.8330507334    0.6483392252
     26  H         4.9488440051    1.8525459173    0.9125253089
     27  H         6.3925593192    0.2595343416    2.2124729753
     28  H         4.7758522611   -0.2531923486    2.7871304044
     29  H         6.6487630705   -1.7569594910    0.9685093461
     30  H         5.0855680813   -2.3517122506    1.6078392697
     31  H         5.2071959422   -1.7596028839   -1.1324915779
     32  O        -2.4387819842    0.4919072192   -1.9195251603
     33  C         0.0793694218   -0.3005801818    2.2143654180
     34  C        -4.5904504204   -1.4117000590    0.8117407878
     35  C        -6.0322133403   -0.9821845701    1.2892445008
     36  C        -6.3390912789    0.1950951645    0.2901799204
     37  C        -5.0504123395    0.1706598425   -0.6236740134
     38  O        -4.6630227580   -1.2591060427   -0.6597021457
     39  H        -3.8322578256    0.1066792252    2.2727103675
     40  H        -4.0952456179    1.7988194685    0.6288808805
     41  H         0.6011352765   -0.3906526092    1.2305048211
     42  H        -4.2803998203   -2.4407041838    1.0780894764
     43  H        -6.7421045705   -1.8147507912    1.1590787849
     44  H        -6.0489181854   -0.6642339099    2.3438594063
     45  H        -7.2417172971   -0.0051766403   -0.3083727788
     46  H        -6.4634185086    1.1629187733    0.8021296013
     47  H        -5.1878365269    0.5576529341   -1.6517472589
     48  H         0.1317413337   -1.2762539163    2.7388408789
     49  H         0.5720143476    0.4741798139    2.8294364126
     50  H        -0.5586319378   -1.3434492320   -2.1977921297
     51  H         0.9524020395   -1.9301901917   -3.0598694890
     52  H         0.4264480014   -0.2110004509   -3.2283864840
     53  H         1.1076670764    3.5865536017   -0.8965307343
     54  H        -0.0021403586    3.4956357227    0.5323300699
     55  H        -0.6856756623    2.4185518407   -1.9973698531
     56  H         0.0067859366    0.9942824849   -1.1509080490
   Point Group: c1    Number of degrees of freedom:   162


   Energy is  -1510.285479972

 Hessian Updated using BFGS Update

152 Hessian modes will be used to form the next step
  Hessian Eigenvalues:
     0.001905    0.002067    0.002268    0.002700    0.002706    0.004101
     0.004279    0.004340    0.004501    0.004530    0.004572    0.006066
     0.006813    0.006870    0.007868    0.010587    0.012451    0.014800
     0.021678    0.021696    0.025867    0.026226    0.030774    0.030845
     0.034943    0.035637    0.038099    0.040304    0.040848    0.042004
     0.042233    0.045165    0.046742    0.047432    0.048424    0.048981
     0.050592    0.051410    0.052885    0.053547    0.054218    0.054600
     0.055556    0.055810    0.056184    0.057105    0.058911    0.059490
     0.060446    0.060566    0.063698    0.063716    0.064174    0.064283
     0.069819    0.070096    0.072889    0.073044    0.082283    0.091713
     0.092296    0.092817    0.093234    0.095491    0.096038    0.099974
     0.101725    0.103284    0.104118    0.107918    0.109905    0.110633
     0.113150    0.121285    0.132401    0.134532    0.148695    0.157540
     0.159292    0.159809    0.160000    0.163138    0.163202    0.185534
     0.218444    0.219372    0.220452    0.223145    0.227794    0.236261
     0.238461    0.239607    0.239765    0.240231    0.245658    0.246036
     0.248363    0.248975    0.249233    0.249949    0.249994    0.250022
     0.253249    0.253672    0.258076    0.258413    0.259222    0.261128
     0.266126    0.292321    0.292854    0.306021    0.307500    0.316744
     0.320457    0.324231    0.324571    0.326565    0.327169    0.327694
     0.327863    0.328516    0.328784    0.329003    0.329194    0.329281
     0.329659    0.331197    0.331527    0.332302    0.332932    0.334642
     0.334825    0.334842    0.334899    0.334909    0.334910    0.335217
     0.335254    0.337367    0.337944    0.339184    0.340745    0.396237
     0.403828    0.410661    0.419430    0.813608    0.830866    0.832046
     0.834027    0.933371

 Minimum Search - Taking Simple RFO Step
 Searching for Lamda that Minimizes Along All modes
 Value Taken    Lamda =  -0.01677410
 Calculated Step too Large.  Step scaled by  0.428865
 Step Taken.  Stepsize is  0.300000

                             Maximum     Tolerance    Cnvgd?
         Gradient           0.019098      0.000300      NO
         Displacement       0.138694      0.001200      NO
         Energy change      0.003224      0.000001      NO


 New Cartesian Coordinates Obtained by Inverse Iteration

 Displacement from previous Coordinates is:  6.005526
 Adding empirical dispersion correction 
 ----------------------------------------------------------------
 Doing -D3(op) with
 s6 =   1.00000
 s8 =   0.78311
 a1 =   0.30000
 a2 =   4.25000
 n  =  10.00000
 -D3 energy without 3body term =     -0.0735005936 hartrees
 ----------------------------------------------------------------
             Standard Nuclear Orientation (Angstroms)
    I     Atom           X                Y                Z
 ----------------------------------------------------------------
    1      O      -1.9371775527    -2.0626727475     0.5131552930
    2      C      -2.2919563349    -1.0420334642     1.1467704263
    3      C      -3.7125767903    -0.3810031816     1.1547696985
    4      C      -3.8600826337     0.8710775564     0.1762371307
    5      C      -2.6075767082     1.0800042063    -0.7510450333
    6      O      -1.6282114846     1.8459842419    -0.0403043775
    7      C      -0.4111245572     2.0182890518    -0.8770971501
    8      C       0.6006178238     2.9087821830    -0.0658610708
    9      O       1.5920358901     2.1216206980     0.7089097330
   10      C       2.5187416866     1.4698445223    -0.1723858884
   11      C       3.4101575014     0.5105710180     0.6860041734
   12      C       3.5065932137    -0.9673355949     0.1185434123
   13      C       2.5652263643    -1.3684704607    -1.0742192388
   14      O       2.8958605610    -2.0860837935    -2.0421637629
   15      O      -1.4344176233    -0.2729918853     1.9807589628
   16      O       1.2226501592    -0.9108182407    -0.8500809649
   17      O       2.5683503438     1.6538823896    -1.4077895917
   18      C       0.3158708536    -1.4525603923    -1.8965409752
   19      C       4.9329069033     0.9591521314     0.5746281744
   20      C       5.7811262315     0.1766889676     1.6549514747
   21      C       5.9020150921    -1.2402502026     0.9819745480
   22      C       5.0326266479    -1.0290805148    -0.3167414757
   23      O       5.3493937304     0.3629074375    -0.7137216494
   24      H       3.0429306383     0.5251553986     1.7253216701
   25      H       3.3121220568    -1.6972862524     0.9274953027
   26      H       5.0846763700     2.0559562901     0.5637644143
   27      H       6.7671806243     0.6490725787     1.7879572196
   28      H       5.2715665209     0.1408629979     2.6311515455
   29      H       6.9450948847    -1.4696218486     0.7114745315
   30      H       5.5155057508    -2.0518131157     1.6190657842
   31      H       5.2271149058    -1.7300520656    -1.1519288927
   32      O      -2.4544849563     0.6681571202    -1.9214653565
   33      C      -0.0814140541    -0.8734244176     1.9916236657
   34      C      -4.8193113093    -1.3521407393     0.5642272307
   35      C      -6.2252779575    -0.8484444009     1.0735483599
   36      C      -6.4046998034     0.4537448714     0.2082643511
   37      C      -5.1048855347     0.4122793750    -0.6892669106
   38      O      -4.8475521745    -1.0337280466    -0.8817924536
   39      H      -3.9477035155    -0.0834916995     2.1925583452
   40      H      -4.0407646694     1.8000503219     0.7454457447
   41      H       0.3625577515    -0.8924987235     0.9713467961
   42      H      -4.6084909681    -2.4283652136     0.7167693464
   43      H      -7.0043629017    -1.5932905195     0.8451918404
   44      H      -6.2333316941    -0.6478814356     2.1567289742
   45      H      -7.3093169216     0.4036051266    -0.4181512530
   46      H      -6.4519580323     1.3669405726     0.8229973659
   47      H      -5.1877348451     0.9224404698    -1.6683161305
   48      H      -0.1071503758    -1.9084945062     2.3896291065
   49      H       0.5254176463    -0.2326019144     2.6568306270
   50      H      -0.6284021063    -1.7369357817    -1.3866256668
   51      H       0.7881471470    -2.3259565176    -2.3861951861
   52      H       0.1114932832    -0.6741175632    -2.6582928682
   53      H       1.1175313018     3.6209974834    -0.7443909151
   54      H       0.0313281637     3.4777097695     0.6971120302
   55      H      -0.6668144930     2.4947740874    -1.8477876137
   56      H       0.0557189824     1.0330235426    -1.0888711892
 ----------------------------------------------------------------
 Molecular Point Group                 C1    NOp =  1
 Largest Abelian Subgroup              C1    NOp =  1
 Nuclear Repulsion Energy =  3246.8599264519 hartrees
 There are      113 alpha and      113 beta electrons
 Applying Cartesian multipole field
    Component          Value
    ---------          -----
     (2,0,0)        1.00000E-12
     (0,2,0)        2.00000E-11
     (0,0,2)       -3.00000E-11
 Nucleus-field energy     =     0.0000000083 hartrees
 Requested basis set is STO-3G
 There are 86 shells and 176 basis functions
 A cutoff of  1.0D-12 yielded   2366 shell pairs
 There are     11129 function pairs
 Smallest overlap matrix eigenvalue = 2.13E-01
 Guess MOs from SCF MO coefficient file
 Reading MOs from coefficient file
 Reading MOs from coefficient file
[...]
      7  C        -0.5529503915    2.1029751700   -1.5541653774
      8  C         0.6153712764    2.9710719429   -0.9764933822
      9  O         1.3444732646    2.2619100329    0.1042924027
     10  C         2.2969577393    1.3525678545   -0.4543106677
     11  C         3.0129532395    0.5933544247    0.7116112007
     12  C         3.3704322563   -0.9032408431    0.3296880568
     13  C         2.8331900299   -1.3345561567   -1.0813121565
     14  O         3.4826599339   -1.7271143353   -2.0705093774
     15  O        -1.3851674761   -1.8565311712    1.4219854149
     16  O         1.3985846853   -1.2587188381   -1.0310227992
     17  O         2.5138893492    1.2242608167   -1.6804536161
     18  C         0.7897989150   -1.5627525867   -2.3462651264
     19  C         4.4722710140    1.1816455308    0.9568249562
     20  C         5.0289591611    0.5916673528    2.3132119128
     21  C         5.4103817078   -0.8723447674    1.8778278035
     22  C         4.9528553388   -0.8658549772    0.3677566585
     23  O         5.2802237215    0.5079181192   -0.0831664274
     24  H         2.3848630524    0.6563189875    1.6171688181
     25  H         2.9602095521   -1.6014838511    1.0822439002
     26  H         4.5459399678    2.2820846490    0.8563247184
     27  H         5.9127199583    1.1595901238    2.6445058802
     28  H         4.2732813995    0.6147053769    3.1147805617
     29  H         6.4962563738   -1.0436580836    1.9497625025
     30  H         4.8903464282   -1.6428150795    2.4692728750
     31  H         5.4363061582   -1.6128823240   -0.2913077398
     32  O        -3.0480216086    1.3053026997   -2.1565109454
     33  C        -0.3280725869   -2.6988506993    0.8060317818
     34  C        -4.4997237473   -1.1315658483    1.0998355386
     35  C        -5.5921387509   -0.4495862791    2.0150957900
     36  C        -6.0664325036    0.7369316695    1.0953327520
     37  C        -5.1052952063    0.5581956812   -0.1433597032
     38  O        -4.9981840030   -0.9147708830   -0.2763250887
     39  H        -2.8854947590    0.0189389415    2.1656903587
     40  H        -3.6758385421    1.9080800226    0.9298437875
     41  H         0.3863037716   -2.0941603259    0.1911994671
     42  H        -4.3316525019   -2.2095006383    1.2908097052
     43  H        -6.4131142907   -1.1530621814    2.2257717602
     44  H        -5.1694396699   -0.1023928044    2.9714154072
     45  H        -7.1167618854    0.6116349467    0.7871464403
     46  H        -5.9545102917    1.7220987776    1.5757675176
     47  H        -5.4495521637    1.0063038185   -1.0956817321
     48  H        -0.7807490973   -3.4836329401    0.1662942135
     49  H         0.1961699899   -3.1812723900    1.6509208295
     50  H        -0.3007152340   -1.4807441216   -2.1610404868
     51  H         1.0544294377   -2.5825564862   -2.6911968406
     52  H         1.1165586660   -0.8284851903   -3.1095356163
     53  H         1.3062874222    3.2396704121   -1.8047297597
     54  H         0.2102094060    3.8915481653   -0.5103631538
     55  H        -1.0726955182    2.6548650718   -2.3681696085
     56  H        -0.1513126305    1.1581936635   -1.9805266422
   Point Group: c1    Number of degrees of freedom:   162


   Energy is  -1510.299033529

 Hessian Updated using BFGS Update

162 Hessian modes will be used to form the next step
  Hessian Eigenvalues:
     0.000894    0.001966    0.002086    0.002661    0.003548    0.005187
     0.005460    0.006072    0.007685    0.008908    0.012511    0.015624
     0.017875    0.022022    0.022085    0.023385    0.027689    0.027962
     0.029728    0.030438    0.031409    0.032893    0.035248    0.035672
     0.038462    0.040859    0.041572    0.042062    0.042903    0.044475
     0.045580    0.047481    0.049674    0.050452    0.051523    0.051691
     0.052316    0.054004    0.054691    0.055338    0.055595    0.056220
     0.056525    0.056894    0.058181    0.059788    0.061637    0.062662
     0.063734    0.064016    0.064417    0.065141    0.066313    0.069302
     0.069733    0.071451    0.072558    0.073152    0.076209    0.082335
     0.092611    0.092985    0.095547    0.095735    0.099883    0.100986
     0.103875    0.104542    0.107410    0.110125    0.112715    0.114780
     0.117536    0.128403    0.129113    0.141344    0.143587    0.152225
     0.156327    0.160237    0.161697    0.163167    0.164102    0.166094
     0.170948    0.177263    0.187756    0.200135    0.210179    0.212424
     0.219565    0.226684    0.235378    0.237381    0.238321    0.239982
     0.241350    0.242674    0.244632    0.247825    0.249143    0.251738
     0.252596    0.253860    0.254340    0.257372    0.259694    0.259836
     0.261737    0.265093    0.270906    0.281630    0.292674    0.293283
     0.295315    0.304961    0.308745    0.311916    0.321547    0.323218
     0.324037    0.325057    0.325782    0.327647    0.328018    0.328577
     0.328751    0.328906    0.329091    0.329348    0.329705    0.330768
     0.331861    0.332183    0.332876    0.334018    0.334626    0.334861
     0.334887    0.334924    0.335058    0.335252    0.335274    0.335605
     0.336106    0.347086    0.353876    0.356996    0.382544    0.388522
     0.404519    0.421844    0.439544    0.460176    0.486348    0.821991
     0.831261    0.832267    0.835949    0.984627    1.725876    4.374496

 Minimum Search - Taking Simple RFO Step
 Searching for Lamda that Minimizes Along All modes
 Value Taken    Lamda =   0.00000000
 Step Taken.  Stepsize is  0.003991

                             Maximum     Tolerance    Cnvgd?
         Gradient           0.000114      0.000300     YES
         Displacement       0.001087      0.001200     YES
         Energy change     -0.000003      0.000001      NO

 Final energy is   -1510.29903352851     


 ******************************
 **  OPTIMIZATION CONVERGED  **
 ******************************

                       Coordinates (Angstroms)
     ATOM                X               Y               Z
      1  O        -1.7013744552   -0.9781546656   -0.7661060278
      2  C        -2.0077440240   -1.0290740653    0.4486078512
      3  C        -3.1773204064   -0.2465654897    1.1345541522
      4  C        -3.6477441746    1.0066265498    0.2912480092
      5  C        -2.7343495895    1.3279961590   -0.9480508653
      6  O        -1.4807486755    1.8100002316   -0.4380482196
      7  C        -0.5529503915    2.1029751700   -1.5541653774
      8  C         0.6153712764    2.9710719429   -0.9764933822
      9  O         1.3444732646    2.2619100329    0.1042924027
     10  C         2.2969577393    1.3525678545   -0.4543106677
     11  C         3.0129532395    0.5933544247    0.7116112007
     12  C         3.3704322563   -0.9032408431    0.3296880568
     13  C         2.8331900299   -1.3345561567   -1.0813121565
     14  O         3.4826599339   -1.7271143353   -2.0705093774
     15  O        -1.3851674761   -1.8565311712    1.4219854149
     16  O         1.3985846853   -1.2587188381   -1.0310227992
     17  O         2.5138893492    1.2242608167   -1.6804536161
     18  C         0.7897989150   -1.5627525867   -2.3462651264
     19  C         4.4722710140    1.1816455308    0.9568249562
     20  C         5.0289591611    0.5916673528    2.3132119128
     21  C         5.4103817078   -0.8723447674    1.8778278035
     22  C         4.9528553388   -0.8658549772    0.3677566585
     23  O         5.2802237215    0.5079181192   -0.0831664274
     24  H         2.3848630524    0.6563189875    1.6171688181
     25  H         2.9602095521   -1.6014838511    1.0822439002
     26  H         4.5459399678    2.2820846490    0.8563247184
     27  H         5.9127199583    1.1595901238    2.6445058802
     28  H         4.2732813995    0.6147053769    3.1147805617
     29  H         6.4962563738   -1.0436580836    1.9497625025
     30  H         4.8903464282   -1.6428150795    2.4692728750
     31  H         5.4363061582   -1.6128823240   -0.2913077398
     32  O        -3.0480216086    1.3053026997   -2.1565109454
     33  C        -0.3280725869   -2.6988506993    0.8060317818
     34  C        -4.4997237473   -1.1315658483    1.0998355386
     35  C        -5.5921387509   -0.4495862791    2.0150957900
     36  C        -6.0664325036    0.7369316695    1.0953327520
     37  C        -5.1052952063    0.5581956812   -0.1433597032
     38  O        -4.9981840030   -0.9147708830   -0.2763250887
     39  H        -2.8854947590    0.0189389415    2.1656903587
     40  H        -3.6758385421    1.9080800226    0.9298437875
     41  H         0.3863037716   -2.0941603259    0.1911994671
     42  H        -4.3316525019   -2.2095006383    1.2908097052
     43  H        -6.4131142907   -1.1530621814    2.2257717602
     44  H        -5.1694396699   -0.1023928044    2.9714154072
     45  H        -7.1167618854    0.6116349467    0.7871464403
     46  H        -5.9545102917    1.7220987776    1.5757675176
     47  H        -5.4495521637    1.0063038185   -1.0956817321
     48  H        -0.7807490973   -3.4836329401    0.1662942135
     49  H         0.1961699899   -3.1812723900    1.6509208295
     50  H        -0.3007152340   -1.4807441216   -2.1610404868
     51  H         1.0544294377   -2.5825564862   -2.6911968406
     52  H         1.1165586660   -0.8284851903   -3.1095356163
     53  H         1.3062874222    3.2396704121   -1.8047297597
     54  H         0.2102094060    3.8915481653   -0.5103631538
     55  H        -1.0726955182    2.6548650718   -2.3681696085
     56  H        -0.1513126305    1.1581936635   -1.9805266422

Z-matrix Print:
$molecule
0 1
O 
C  1 1.437488
O  2 1.246766 1 124.350019
C  1 1.480851 2 111.615595 3 -6.220909 0
H  4 1.108378 1 110.757610 2 -61.566743 0
H  4 1.108606 1 111.535360 2 59.963518 0
H  4 1.109168 1 103.927427 2 179.349417 0
C  2 1.570218 1 107.189351 3 -177.483993 0
H  8 1.105516 2 108.134762 1 60.082788 0
C  8 1.583322 2 111.718219 1 -176.627568 0
H  10 1.107312 8 113.960728 2 -31.860310 0
O  10 1.482482 8 103.607339 2 88.077754 0
C  12 1.479283 10 95.025198 8 56.184608 0
H  13 1.107472 12 110.635350 10 179.489379 0
C  10 1.577874 8 108.222760 2 -162.666841 0
H  15 1.101656 10 110.422524 8 169.035241 0
H  15 1.101757 10 112.319058 8 47.458767 0
C  15 1.574285 10 100.987660 8 -72.966454 0
H  18 1.101510 15 111.608458 10 -119.409679 0
H  18 1.101858 15 112.755253 10 117.895668 0
C  8 1.585388 2 113.492417 1 -62.757179 0
H  21 1.103855 8 112.319537 2 118.650286 0
C  21 1.564745 8 112.439078 2 -4.549657 0
O  23 1.251778 21 126.929297 8 -35.549547 0
O  23 1.430443 21 108.793273 8 145.527148 0
C  25 1.484115 23 110.273370 21 -178.272645 0
H  26 1.108472 25 105.671756 23 -158.771600 0
H  26 1.111524 25 110.654520 23 -39.889654 0
C  26 1.565973 25 111.732408 23 81.554559 0
H  29 1.111624 26 110.064349 25 -60.373729 0
H  29 1.112349 26 110.090866 25 -179.373826 0
O  29 1.480663 26 107.404364 25 59.760130 0
C  32 1.436644 29 110.216305 26 164.918299 0
O  33 1.248712 32 124.669486 29 -7.560138 0
C  33 1.572714 32 107.193531 29 178.606923 0
H  35 1.105085 33 107.664306 32 53.116179 0
C  35 1.582073 33 114.154929 32 -69.596586 0
H  37 1.104037 35 112.702424 33 116.484472 0
C  37 1.565487 35 112.614468 33 -7.854326 0
O  39 1.253788 37 125.928135 35 -20.188871 0
O  39 1.421179 37 108.554505 35 162.402945 0
C  41 1.485379 39 110.972070 37 175.893057 0
H  42 1.105169 41 105.551358 39 171.461885 0
H  42 1.109082 41 110.486256 39 -70.835728 0
H  42 1.119823 41 112.052886 39 50.938098 0
C  35 1.585695 33 112.064727 32 176.018665 0
H  46 1.107353 35 114.018368 33 -30.052382 0
O  46 1.482829 35 103.833224 33 90.035153 0
C  48 1.479622 46 94.961169 35 55.794253 0
H  49 1.107548 48 110.738171 46 179.479098 0
C  46 1.578002 35 108.221135 33 -160.873646 0
H  51 1.101758 46 110.377102 35 169.759740 0
H  51 1.101771 46 112.439058 35 48.205712 0
C  51 1.574403 46 100.937062 35 -72.320383 0
H  54 1.101482 51 111.624241 46 -120.398465 0
H  54 1.101710 51 112.655325 46 116.925932 0
$end

 
 --------------------------------------------------------------
 
                    Orbital Energies (a.u.)
 --------------------------------------------------------------
 
 Alpha MOs
 -- Occupied --
-18.939 -18.937 -18.936 -18.921 -18.890 -18.886 -18.881 -18.879
-18.877 -18.866 -10.103 -10.103 -10.102 -10.093 -10.076 -10.068
-10.063 -10.061 -10.060 -10.056 -10.051 -10.045 -10.041 -10.039
-10.038 -10.033 -10.023 -10.022 -10.021 -10.019  -1.018  -1.013
 -1.009  -1.000  -0.972  -0.969  -0.941  -0.938  -0.938  -0.927
 -0.766  -0.762  -0.728  -0.723  -0.715  -0.706  -0.698  -0.658
 -0.657  -0.616  -0.597  -0.580  -0.548  -0.545  -0.539  -0.536
 -0.513  -0.509  -0.482  -0.478  -0.459  -0.455  -0.453  -0.452
 -0.437  -0.434  -0.431  -0.420  -0.411  -0.408  -0.405  -0.397
 -0.392  -0.379  -0.375  -0.365  -0.361  -0.357  -0.351  -0.348
 -0.345  -0.342  -0.335  -0.332  -0.332  -0.328  -0.325  -0.313
 -0.310  -0.307  -0.304  -0.298  -0.295  -0.287  -0.280  -0.277
 -0.271  -0.263  -0.255  -0.244  -0.241  -0.236  -0.233  -0.186
 -0.180  -0.172  -0.167  -0.159  -0.156  -0.152  -0.146  -0.146
 -0.143
 -- Virtual --
  0.088   0.094   0.109   0.115   0.223   0.236   0.248   0.253
  0.261   0.272   0.281   0.285   0.304   0.311   0.326   0.330
  0.333   0.339   0.343   0.347   0.357   0.358   0.370   0.373
  0.378   0.380   0.389   0.399   0.402   0.408   0.409   0.411
  0.415   0.418   0.420   0.422   0.426   0.427   0.430   0.433
  0.434   0.436   0.440   0.442   0.445   0.460   0.463   0.464
  0.467   0.479   0.485   0.488   0.493   0.506   0.509   0.540
  0.542   0.549   0.552   0.644   0.647   0.652   0.654
 --------------------------------------------------------------
 
          Ground-State Mulliken Net Atomic Charges

     Atom                 Charge (a.u.)
  ----------------------------------------
      1 O                    -0.214859
      2 C                     0.219071
      3 C                    -0.077558
      4 C                    -0.080458
      5 C                     0.215876
      6 O                    -0.179749
      7 C                    -0.050352
      8 C                    -0.048229
      9 O                    -0.167813
     10 C                     0.212273
     11 C                    -0.078463
     12 C                    -0.079949
     13 C                     0.219253
     14 O                    -0.202408
     15 O                    -0.170020
     16 O                    -0.178204
     17 O                    -0.214732
     18 C                    -0.138743
     19 C                     0.025697
     20 C                    -0.143899
     21 C                    -0.143669
     22 C                     0.024678
     23 O                    -0.186662
     24 H                     0.088214
     25 H                     0.083424
     26 H                     0.083120
     27 H                     0.078638
     28 H                     0.074105
     29 H                     0.078845
     30 H                     0.073034
     31 H                     0.090873
     32 O                    -0.215047
     33 C                    -0.149764
     34 C                     0.024999
     35 C                    -0.144043
     36 C                    -0.143548
     37 C                     0.024373
     38 O                    -0.189038
     39 H                     0.086883
     40 H                     0.083281
     41 H                     0.114118
     42 H                     0.083034
     43 H                     0.078030
     44 H                     0.073640
     45 H                     0.078052
     46 H                     0.072961
     47 H                     0.089990
     48 H                     0.078272
     49 H                     0.080097
     50 H                     0.114396
     51 H                     0.084956
     52 H                     0.090629
     53 H                     0.095693
     54 H                     0.091624
     55 H                     0.091948
     56 H                     0.093125
  ----------------------------------------
  Sum of atomic charges =    -0.000000

 -----------------------------------------------------------------
                    Cartesian Multipole Moments
 -----------------------------------------------------------------
    Charge (ESU x 10^10)
                -0.0000
    Dipole Moment (Debye)
         X      -0.5804      Y       0.6229      Z       4.2689
       Tot       4.3530
    Quadrupole Moments (Debye-Ang)
        XX    -164.6059     XY      -4.4766     YY    -150.2742
        XZ       2.5905     YZ      -2.7469     ZZ    -163.6485
    Octopole Moments (Debye-Ang^2)
       XXX     -60.7200    XXY       7.6037    XYY       2.9023
       YYY      -9.6664    XXZ     100.5759    XYZ      -4.8501
       YYZ     -10.0502    XZZ      -1.5248    YZZ      -3.1579
       ZZZ       1.4951
    Hexadecapole Moments (Debye-Ang^3)
      XXXX  -12509.2465   XXXY     -61.6776   XXYY   -2418.1221
      XYYY     107.1354   YYYY   -2076.9559   XXXZ     145.9389
      XXYZ      22.1385   XYYZ      27.1239   YYYZ     109.5890
      XXZZ   -2454.9000   XYZZ      50.0781   YYZZ    -662.8635
      XZZZ      68.2267   YZZZ     155.6304   ZZZZ   -1838.6490
 -----------------------------------------------------------------
Archival summary:
1\1\vega02.cac.cornell.edu\OPT\ProcedureUnspecified\STO-3G\102026\jj585\SunJan1422:40:332018SunJan1422:40:332018\0\\#,OPT,ProcedureUnspecified,STO-3G,\\0,1\O\C,1,1.43749\O,2,1.24677,1,124.35\C,1,1.48085,2,111.616,3,-6.22091,0\H,4,1.10838,1,110.758,2,-61.5667,0\H,4,1.10861,1,111.535,2,59.9635,0\H,4,1.10917,1,103.927,2,179.349,0\C,2,1.57022,1,107.189,3,-177.484,0\H,8,1.10552,2,108.135,1,60.0828,0\C,8,1.58332,2,111.718,1,-176.628,0\H,10,1.10731,8,113.961,2,-31.8603,0\O,10,1.48248,8,103.607,2,88.0778,0\C,12,1.47928,10,95.0252,8,56.1846,0\H,13,1.10747,12,110.635,10,179.489,0\C,10,1.57787,8,108.223,2,-162.667,0\H,15,1.10166,10,110.423,8,169.035,0\H,15,1.10176,10,112.319,8,47.4588,0\C,15,1.57429,10,100.988,8,-72.9665,0\H,18,1.10151,15,111.608,10,-119.41,0\H,18,1.10186,15,112.755,10,117.896,0\C,8,1.58539,2,113.492,1,-62.7572,0\H,21,1.10386,8,112.32,2,118.65,0\C,21,1.56475,8,112.439,2,-4.54966,0\O,23,1.25178,21,126.929,8,-35.5495,0\O,23,1.43044,21,108.793,8,145.527,0\C,25,1.48412,23,110.273,21,-178.273,0\H,26,1.10847,25,105.672,23,-158.772,0\H,26,1.11152,25,110.655,23,-39.8897,0\C,26,1.56597,25,111.732,23,81.5546,0\H,29,1.11162,26,110.064,25,-60.3737,0\H,29,1.11235,26,110.091,25,-179.374,0\O,29,1.48066,26,107.404,25,59.7601,0\C,32,1.43664,29,110.216,26,164.918,0\O,33,1.24871,32,124.669,29,-7.56014,0\C,33,1.57271,32,107.194,29,178.607,0\H,35,1.10508,33,107.664,32,53.1162,0\C,35,1.58207,33,114.155,32,-69.5966,0\H,37,1.10404,35,112.702,33,116.484,0\C,37,1.56549,35,112.614,33,-7.85433,0\O,39,1.25379,37,125.928,35,-20.1889,0\O,39,1.42118,37,108.555,35,162.403,0\C,41,1.48538,39,110.972,37,175.893,0\H,42,1.10517,41,105.551,39,171.462,0\H,42,1.10908,41,110.486,39,-70.8357,0\H,42,1.11982,41,112.053,39,50.9381,0\C,35,1.5857,33,112.065,32,176.019,0\H,46,1.10735,35,114.018,33,-30.0524,0\O,46,1.48283,35,103.833,33,90.0352,0\C,48,1.47962,46,94.9612,35,55.7943,0\H,49,1.10755,48,110.738,46,179.479,0\C,46,1.578,35,108.221,33,-160.874,0\H,51,1.10176,46,110.377,35,169.76,0\H,51,1.10177,46,112.439,35,48.2057,0\C,51,1.5744,46,100.937,35,-72.3204,0\H,54,1.10148,51,111.624,46,-120.398,0\H,54,1.10171,51,112.655,46,116.926,0\\\@

 Total job time:  187.74s(wall), 8961.15s(cpu) 
 Sun Jan 14 22:40:33 2018

        *************************************************************
        *                                                           *
        *  Thank you very much for using Q-Chem.  Have a nice day.  *
        *                                                           *
        *************************************************************


0 sent ACK to 0 
now end server 0 ... 
