mFile = /opt/software/qchem/qchem-5.0.1//bin/mpi/machines
Process 0 of 1 is on vega02.cac.cornell.edu - thread support 0
initial socket setup ...start
initial socket setup ...done 
now start server 0 ... 
vega02.cac.cornell.edu 10.84.3
Q-Chem Developer Version! Running on 10.84.3.*
                  Welcome to Q-Chem
     A Quantum Leap Into The Future Of Chemistry


 Q-Chem 5.0, Q-Chem, Inc., Pleasanton, CA (2017)

 Yihan Shao,  Zhengting Gan,  E. Epifanovsky,  A. T. B. Gilbert,  M. Wormit,  
 J. Kussmann,  A. W. Lange,  A. Behn,  Jia Deng,  Xintian Feng,  D. Ghosh,  
 M. Goldey,  P. R. Horn,  L. D. Jacobson,  I. Kaliman,  T. Kus,  A. Landau,  
 Jie Liu,  E. I. Proynov,  R. M. Richard,  R. P. Steele,  E. J. Sundstrom,  
 H. L. Woodcock III,  P. M. Zimmerman,  D. Zuev,  B. Albrecht,  E. Alguire,  
 S. A. Baeppler,  Z. Benda,  Y. A. Bernard,  E. J. Berquist,  K. B. Bravaya,  
 D. Casanova,  Chun-Min Chang,  Yunqing Chen,  A. Chien,  K. D. Closser,  
 M. P. Coons,  S. Dasgupta,  M. Diedenhofen,  Hainam Do,  R. G. Edgar,  
 Po-Tung Fang,  S. Fatehi,  Qingguo Feng,  Qinghui Ge,  A. Ghysels,  
 J. Gomes,  J. Gonthier,  A. Gunina,  M. W. D. Hanson-Heine,  
 P. H. P. Harbach,  A. W. Hauser,  J. E. Herr,  E. G. Hohenstein,  
 Z. C. Holden,  Kerwin Hui,  T.-C. Jagau,  Hyunjun Ji,  B. Kaduk,  
 K. Khistyaev,  Jaehoon Kim,  P. Klunzinger,  K. Koh,  D. Kosenkov,  
 T. Kowalczyk,  C. M. Krauter,  A. Kunitsa,  Ka Un Lao,  A. Laurent,  
 K. V. Lawler,  Joonho Lee,  D. Lefrancois,  S. Lehtola,  D. S. Levine,  
 Yi-Pei Li,  You-Sheng Lin,  Fenglai Liu,  E. Livshits,  A. Luenser,  
 P. Manohar,  E. Mansoor,  S. F. Manzer,  Shan-Ping Mao,  Yuezhi Mao,  
 N. Mardirossian,  A. V. Marenich,  L. A. Martinez-Martinez,  S. A. Maurer,  
 N. J. Mayhall,  S. C. McKenzie,  J.-M. Mewes,  A. F. Morrison,  K. Nanda,  
 T. S. Nguyen-Beck,  R. Olivares-Amaya,  J. A. Parkhill,  T. M. Perrine,  
 F. Plasser,  S. Prager,  A. Prociuk,  D. R. Rehn,  F. Rob,  M. Schneider,  
 N. Sergueev,  S. M. Sharada,  S. Sharma,  D. W. Small,  T. Stauch,  
 T. Stein,  Yu-Chuan Su,  A. J. W. Thom,  T. Tsuchimochi,  L. Vogt,  
 O. Vydrov,  M. A. Watson,  J. Wenzel,  M. de Wergifosse,  T. A. Wesolowski,  
 A. White,  J. Witte,  A. Yamada,  Jun Yang,  K. Yao,  S. Yeganeh,  
 S. R. Yost,  Zhi-Qiang You,  A. Zech,  Igor Ying Zhang,  Xing Zhang,  
 Yan Zhao,  Ying Zhu,  B. R. Brooks,  G. K. L. Chan,  C. J. Cramer,  
 M. S. Gordon,  W. J. Hehre,  A. Klamt,  M. W. Schmidt,  C. D. Sherrill,  
 D. G. Truhlar,  A. Aspuru-Guzik,  R. Baer,  A. T. Bell,  N. A. Besley,  
 Jeng-Da Chai,  A. Dreuw,  B. D. Dunietz,  T. R. Furlani,  Chao-Ping Hsu,  
 Yousung Jung,  Jing Kong,  D. S. Lambrecht,  WanZhen Liang,  C. Ochsenfeld,  
 V. A. Rassolov,  L. V. Slipchenko,  J. E. Subotnik,  T. Van Voorhis,  
 J. M. Herbert,  A. I. Krylov,  P. M. W. Gill,  M. Head-Gordon

 Contributors to earlier versions of Q-Chem not listed above: 
 R. D. Adamson,  B. Austin,  J. Baker,  G. J. O. Beran,  K. Brandhorst,  
 S. T. Brown,  E. F. C. Byrd,  A. K. Chakraborty,  C.-L. Cheng,  
 Siu Hung Chien,  D. M. Chipman,  D. L. Crittenden,  H. Dachsel,  
 R. A. DiStasio Jr.,  R. J. Doerksen,  A. D. Dutoi,  L. Fusti-Molnar,  
 W. A. Goddard III,  A. Golubeva-Zadorozhnaya,  S. R. Gwaltney,  G. Hawkins,  
 A. Heyden,  S. Hirata,  G. Kedziora,  F. J. Keil,  C. Kelley,  Jihan Kim,  
 R. A. King,  R. Z. Khaliullin,  P. P. Korambath,  W. Kurlancheek,  
 A. M. Lee,  M. S. Lee,  S. V. Levchenko,  Ching Yeh Lin,  D. Liotard,  
 R. C. Lochan,  I. Lotan,  P. E. Maslen,  N. Nair,  D. P. O'Neill,  
 D. Neuhauser,  E. Neuscamman,  C. M. Oana,  R. Olson,  B. Peters,  
 R. Peverati,  P. A. Pieniazek,  Y. M. Rhee,  J. Ritchie,  M. A. Rohrdanz,  
 E. Rosta,  N. J. Russ,  H. F. Schaefer III,  N. E. Schultz,  N. Shenvi,  
 A. C. Simmonett,  A. Sodt,  D. Stuck,  K. S. Thanthiriwatte,  V. Vanovschi,  
 Tao Wang,  A. Warshel,  C. F. Williams,  Q. Wu,  X. Xu,  W. Zhang

 Please cite Q-Chem as follows:
 Y. Shao et al., Mol. Phys. 113, 184-215 (2015)
 DOI: 10.1080/00268976.2014.952696

 Q-Chem 5.0.1 for Intel X86 EM64T Linux

 Parts of Q-Chem use Armadillo 5.200.1 (Boston Tea Smuggler).
 http://arma.sourceforge.net/

 Q-Chem begins on Sun Jan 14 23:50:52 2018  

Host: vega02.cac.cornell.edu
0

     Scratch files written to /scratch/jj585/SOT1001/0597c.save//
 Parallel job on  1  processors

Checking the input file for inconsistencies... 	...done.

--------------------------------------------------------------
User input:
--------------------------------------------------------------
$molecule
0  1
O -3.94934 -3.66094 2.70899
C -3.26408 -4.56952 2.26188
C -3.36658 -6.02376 2.66595
C -2.97353 -6.38153 4.10864
C -2.69204 -5.22192 5.03825
O -2.23461 -4.15308 4.32146
C -0.9548 -4.38278 3.72266
C 0.156 -4.06514 4.71834
O 0.41078 -5.20902 5.5487
C -0.64764 -6.03358 5.74616
C -0.37082 -7.45733 5.32548
C -1.3199 -8.50549 5.92455
C -2.59163 -7.96593 6.54769
O -2.95032 -8.15288 7.70136
O -2.45338 -4.30003 1.20031
O -3.64187 -7.27434 6.14324
O -1.08751 -5.89771 6.8865
C -4.89952 -7.0458 6.75748
C -0.0453 -8.08263 3.9461
C 0.90062 -9.28196 4.1092
C -0.04544 -10.31606 4.71565
C -1.35808 -9.51969 4.75774
O -1.23238 -8.74681 3.5913
H 0.58181 -7.591 5.89232
H -0.84076 -9.01487 6.79324
H 0.35995 -7.34785 3.21999
H 1.19555 -9.6299 3.09357
H 1.81863 -9.07234 4.69918
H -0.15412 -11.15428 3.99139
H 0.26215 -10.72286 5.70294
H -2.23672 -10.19693 4.81707
O -3.38917 -4.93515 5.99908
C -2.35571 -3.06826 0.5855
C -4.82677 -6.45586 2.38071
C -4.79179 -7.7386 1.59341
C -4.10144 -8.57895 2.62617
C -4.14862 -7.60235 3.87133
O -5.29106 -6.86197 3.61666
H -2.67416 -6.53592 1.94363
H -2.05873 -6.7902 3.93155
H -2.01621 -2.29797 1.30988
H -5.47462 -5.69908 1.88257
H -5.84764 -8.06819 1.45799
H -4.27615 -7.69011 0.60957
H -4.71991 -9.49909 2.75064
H -3.0907 -8.88159 2.31891
H -4.34533 -8.42518 4.58726
H -3.34066 -2.77377 0.16451
H -1.6188 -3.13203 -0.24104
H -5.5344 -6.41326 6.10576
H -4.77518 -6.51353 7.7256
H -5.42386 -8.011 6.92438
H 1.08721 -3.89179 4.13665
H -0.04699 -3.1543 5.32175
H -0.84099 -3.56218 2.986
H -0.7936 -5.30384 3.13135
$end

$opt
CONSTRAINT
tors           1           2           3           4     -66.316
tors           3           4           5           6     -28.421
tors           4           5           6           7     -66.316
tors           5           6           7           8     -85.263
tors           6           7           8           9     +85.263
tors           7           8           9          10     -28.421
tors           8           9          10          11    +123.158
tors           9          10          11          12    +161.053
tors          11          12          13          14    -123.158
ENDCONSTRAINT
$end

$rem
JOBTYPE                   OPT
METHOD                    B3LYP
DFT_D                     d3_op
BASIS                     STO-3G
GEOM_OPT_MAX_CYCLES       100
GEOM_OPT_TOL_GRADIENT     300
GEOM_OPT_TOL_DISPLACEMENT 1200
GEOM_OPT_TOL_ENERGY       100
SYMMETRY                  False
THRESH                    12
SCF_CONVERGENCE           8
MAX_SUB_FILE_NUM          128
MEM_STATIC                400
MEM_TOTAL                 4000
$end
--------------------------------------------------------------
 Adding empirical dispersion correction 
 ----------------------------------------------------------------
 Doing -D3(op) with
 s6 =   1.00000
 s8 =   0.78311
 a1 =   0.30000
 a2 =   4.25000
 n  =  10.00000
 -D3 energy without 3body term =     -0.0908443501 hartrees
 ----------------------------------------------------------------
             Standard Nuclear Orientation (Angstroms)
    I     Atom           X                Y                Z
 ----------------------------------------------------------------
    1      O      -3.5997418572     0.0638354593     0.7780450759
    2      C      -2.9759386010     0.0777712553    -0.2734688457
    3      C      -1.7523874735    -0.7586503209    -0.5766426867
    4      C      -0.4788479341    -0.4592307805     0.2310002367
    5      C      -0.6200859432     0.5214111611     1.3740225162
    6      O      -1.6293300863     1.4022704219     1.1076350595
    7      C      -1.3475228241     2.2630618302    -0.0009045133
    8      C      -0.5459745649     3.4742513601     0.4645960591
    9      O       0.8540185244     3.1544558261     0.4895399694
   10      C       1.1502109047     1.8494039053     0.7092035746
   11      C       1.9959456113     1.2455131384    -0.3865672888
   12      C       2.7333851043    -0.0444347869     0.0013688414
   13      C       2.2526140802    -0.7252807756     1.2670835044
   14      O       2.9470858990    -0.9877596799     2.2383594720
   15      O      -3.5013430354     0.7702807646    -1.3228357857
   16      O       1.1263335355    -1.2613257709     1.7018575676
   17      O       1.5800524242     1.6957275986     1.8511061319
   18      C       0.8630800123    -2.1026013901     2.8127840938
   19      C       1.7203423354     1.0071706082    -1.8921861706
   20      C       3.0160642994     1.1491476376    -2.7050242975
   21      C       3.7492837183    -0.1296968504    -2.3061258201
   22      C       2.7211390138    -0.7720986444    -1.3631311668
   23      O       1.5208824819    -0.3815945737    -1.9800728873
   24      H       2.7934299136     2.0268951472    -0.3984043219
   25      H       3.7975913986     0.1746975760     0.2525886867
   26      H       0.9194157717     1.6600985389    -2.2966199722
   27      H       2.7553593274     1.0811778579    -3.7852850401
   28      H       3.5743181186     2.0934101919    -2.5275976733
   29      H       3.8555330256    -0.7663799402    -3.2129457506
   30      H       4.7487306992     0.0180744325    -1.8434069287
   31      H       2.8985368323    -1.8638941572    -1.2597150745
   32      O      -0.5019456552     0.2167087025     2.5507216463
   33      C      -4.6988353708     1.4553799641    -1.2848977927
   34      C      -2.1753487515    -2.2373582230    -0.3902189725
   35      C      -1.7419909552    -3.0071638590    -1.6092706946
   36      C      -0.2668870760    -2.7759228612    -1.4679886753
   37      C      -0.2131287721    -2.1302125524    -0.0234938917
   38      O      -1.3176206963    -2.6978897835     0.5897178642
   39      H      -1.5700420390    -0.5534749428    -1.6666668659
   40      H       0.0457381077     0.0514001948    -0.4756089685
   41      H      -4.6701774203     2.2455661368    -0.5050786773
   42      H      -3.2518208533    -2.4159812073    -0.1669014991
   43      H      -1.9928973093    -4.0774255822    -1.4265873284
   44      H      -2.1772763806    -2.6709027094    -2.5755170778
   45      H       0.2183431361    -3.7784421518    -1.5325042123
   46      H       0.1409021237    -2.1431127366    -2.2685224595
   47      H       0.7221091199    -2.6603434121     0.2459335658
   48      H      -5.5326380648     0.7530076887    -1.0715209031
   49      H      -4.8765294115     1.9315221490    -2.2707906775
   50      H      -0.2146701601    -2.3570360975     2.8532312194
   51      H       1.1246239553    -1.5922649243     3.7652438465
   52      H       1.4411613322    -3.0470368687     2.7218846991
   53      H      -0.6676286527     4.2704706667    -0.3014330797
   54      H      -0.8941824330     3.8788398719     1.4392742063
   55      H      -2.3251255418     2.7209658803    -0.2531382126
   56      H      -1.0006377518     1.8197377820    -0.9533324710
 ----------------------------------------------------------------
 Molecular Point Group                 C1    NOp =  1
 Largest Abelian Subgroup              C1    NOp =  1
 Nuclear Repulsion Energy =  3650.4825634856 hartrees
 There are      113 alpha and      113 beta electrons
 Requested basis set is STO-3G
 There are 86 shells and 176 basis functions

 Total QAlloc Memory Limit   4000 MB
 Mega-Array Size       392 MB
 MEM_STATIC part       400 MB
 A cutoff of  1.0D-12 yielded   2915 shell pairs
 There are     13907 function pairs
 
 -------------------------------------------------------
 OpenMP Integral Computing Module                       
 Release: version 1.0, May 2013, Q-Chem Inc. Pittsburgh 
 -------------------------------------------------------
 Integral Job Info:
 Integral job number is                      11
 Integral operator is                         1
 short-range coefficients                     0
 long-range coefficients              100000000
 Omega coefficients                           0
 if combine SR and LR in K                    0
 Integral screening is                        0
 Integral computing path is                   2
 max size of driver memory is            800000
 size of driver memory is                 45569
 size of scratch memory is              1046100
 max col of scratch BK array                289
 max len of scratch array in speh3           22
 max len of scratch index in speh4            8
 max int batch size is                      520
 min int batch size is                       52
 fixed nKL is                                52
 max L of basis functions is                  1
 order of int derivative is                   0
 number of shells is                         86
 number of basis is                         176
 number of cartesian basis is               176
 number of contracted shell pairs          2915
 number of primitive shell pairs          14545
 maxK2 (contraction) of shell pair            9
 max number of K2 of shell pair               1
 max number of CS2 of shell pair            449
 max number of PS2 of shell pair           1704
 mem total for path MDJ                   65514
 -------------------------------------------------------
 Smallest overlap matrix eigenvalue = 1.93E-01

 Scale SEOQF with 1.000000e-02/1.000000e-01/1.000000e-01

 Standard Electronic Orientation quadrupole field applied
 Nucleus-field energy     =    -0.0000000026 hartrees
 Guess from superposition of atomic densities
 Warning:  Energy on first SCF cycle will be non-variational
 A restricted hybrid HF-DFT SCF calculation will be
 performed using Pulay DIIS extrapolation
 Exchange:     0.2000 Hartree-Fock + 0.0800 Slater + 0.7200 B88
 Correlation:  0.1900 VWN1RPA + 0.8100 LYP
 Using SG-1 standard quadrature grid
 Dispersion:   Grimme D3
 SCF converges when DIIS error is below 1.0E-08
 using 48 threads for integral computing
 -------------------------------------------------------
 OpenMP Integral computing Module                
 Release: version 1.0, May 2013, Q-Chem Inc. Pittsburgh 
 -------------------------------------------------------
 -------------------------------------------------------
 OpenMP BLAS3 based DFT computing Module                
 Release: version 1.0, May 2013, Q-Chem Inc. Pittsburgh 
 -------------------------------------------------------
 ---------------------------------------
  Cycle       Energy         DIIS Error
 ---------------------------------------
    1   -1509.5902746636      8.34E-02
    2   -1509.1329088610      1.18E-02
    3   -1503.8149406580      3.41E-02
    4   -1509.3966718764      8.42E-03
    5   -1509.7884012556      2.35E-03
    6   -1509.7936087781      2.22E-03
    7   -1509.8149618458      4.02E-04
    8   -1509.8155495281      1.93E-04
    9   -1509.8156974198      7.19E-05
   10   -1509.8157196564      1.49E-05
   11   -1509.8157206812      4.61E-06
   12   -1509.8157207766      1.57E-06
   13   -1509.8157207858      9.89E-07
   14   -1509.8157207907      2.20E-07
   15   -1509.8157207910      7.02E-08
   16   -1509.8157207912      2.29E-08
   17   -1509.8157207913      9.85E-09 Convergence criterion met
 ---------------------------------------
 SCF time:  CPU 146.28 s  wall 3.10 s
 SCF   energy in the final basis set = -1509.81572079
 Total energy in the final basis set = -1509.81572079
 
 --------------------------------------------------------------
 
                    Orbital Energies (a.u.)
 --------------------------------------------------------------
 
 Alpha MOs
 -- Occupied --
-18.952 -18.927 -18.918 -18.918 -18.904 -18.897 -18.887 -18.873
-18.835 -18.798 -10.136 -10.115 -10.097 -10.094 -10.094 -10.092
-10.091 -10.087 -10.079 -10.060 -10.060 -10.058 -10.052 -10.051
-10.034 -10.032 -10.024 -10.021 -10.004 -10.000  -1.070  -1.050
 -1.045  -1.039  -1.033  -1.030  -0.970  -0.951  -0.933  -0.885
 -0.797  -0.778  -0.754  -0.745  -0.738  -0.736  -0.700  -0.677
 -0.666  -0.645  -0.623  -0.607  -0.577  -0.557  -0.551  -0.539
 -0.528  -0.517  -0.505  -0.497  -0.496  -0.480  -0.476  -0.470
 -0.455  -0.449  -0.446  -0.432  -0.428  -0.425  -0.423  -0.409
 -0.406  -0.403  -0.392  -0.386  -0.379  -0.375  -0.371  -0.364
 -0.359  -0.352  -0.346  -0.334  -0.331  -0.325  -0.323  -0.318
 -0.312  -0.310  -0.308  -0.298  -0.295  -0.289  -0.279  -0.272
 -0.259  -0.248  -0.246  -0.228  -0.223  -0.215  -0.194  -0.188
 -0.182  -0.171  -0.158  -0.156  -0.145  -0.144  -0.126  -0.118
 -0.067
 -- Virtual --
  0.019   0.104   0.133   0.136   0.185   0.214   0.238   0.247
  0.278   0.287   0.307   0.319   0.323   0.329   0.333   0.341
  0.347   0.359   0.364   0.365   0.374   0.379   0.388   0.393
  0.395   0.401   0.407   0.410   0.422   0.423   0.428   0.430
  0.434   0.439   0.440   0.444   0.448   0.449   0.457   0.461
  0.466   0.469   0.473   0.479   0.486   0.489   0.497   0.504
  0.505   0.513   0.517   0.526   0.544   0.546   0.556   0.564
  0.592   0.606   0.619   0.637   0.690   0.708   0.749
 --------------------------------------------------------------
 
          Ground-State Mulliken Net Atomic Charges

     Atom                 Charge (a.u.)
  ----------------------------------------
      1 O                    -0.240569
      2 C                     0.229480
      3 C                    -0.081808
      4 C                    -0.101495
      5 C                     0.227401
      6 O                    -0.170406
      7 C                    -0.056860
      8 C                    -0.036330
      9 O                    -0.209354
     10 C                     0.222653
     11 C                    -0.090481
     12 C                    -0.075327
     13 C                     0.221064
     14 O                    -0.256485
     15 O                    -0.225280
     16 O                    -0.210546
     17 O                    -0.167636
     18 C                    -0.079737
     19 C                     0.036096
     20 C                    -0.140990
     21 C                    -0.141579
     22 C                     0.041066
     23 O                    -0.214479
     24 H                     0.097348
     25 H                     0.102250
     26 H                     0.083524
     27 H                     0.078748
     28 H                     0.075494
     29 H                     0.079047
     30 H                     0.076088
     31 H                     0.091394
     32 O                    -0.185464
     33 C                    -0.100337
     34 C                     0.045208
     35 C                    -0.142909
     36 C                    -0.152938
     37 C                     0.058793
     38 O                    -0.214145
     39 H                     0.078639
     40 H                     0.096072
     41 H                     0.081703
     42 H                     0.079427
     43 H                     0.069889
     44 H                     0.068720
     45 H                     0.068725
     46 H                     0.082327
     47 H                     0.075570
     48 H                     0.086113
     49 H                     0.089313
     50 H                     0.105891
     51 H                     0.096556
     52 H                     0.079240
     53 H                     0.086800
     54 H                     0.097800
     55 H                     0.094616
     56 H                     0.092101
  ----------------------------------------
  Sum of atomic charges =    -0.000000

 -----------------------------------------------------------------
                    Cartesian Multipole Moments
 -----------------------------------------------------------------
    Charge (ESU x 10^10)
                 0.0000
    Dipole Moment (Debye)
         X       0.5848      Y       1.9357      Z      -6.4844
       Tot       6.7924
    Quadrupole Moments (Debye-Ang)
        XX    -157.5522     XY      -5.1321     YY    -151.3456
        XZ      -2.7234     YZ      -3.4002     ZZ    -170.1281
    Octopole Moments (Debye-Ang^2)
       XXX     -22.5904    XXY      22.6988    XYY     -20.0771
       YYY      18.5660    XXZ     -50.4843    XYZ       1.3860
       YYZ       5.1969    XZZ     -11.3493    YZZ      -0.9166
       ZZZ      12.8546
    Hexadecapole Moments (Debye-Ang^3)
      XXXX   -4800.5641   XXXY     -21.8247   XXYY   -1293.4998
      XYYY    -109.4065   YYYY   -3042.1033   XXXZ      51.6724
      XXYZ      -4.0012   XYYZ      12.7489   YYYZ      -5.2701
      XXZZ   -1280.1133   XYZZ      -9.3647   YYZZ    -892.8245
      XZZZ      -7.3343   YZZZ     -43.7439   ZZZZ   -2327.0757
 -----------------------------------------------------------------
 Calculating analytic gradient of the SCF energy
 Gradient of SCF Energy
            1           2           3           4           5           6
    1   0.0354805   0.0292754   0.0553599   0.0145690   0.0283293   0.0256087
    2   0.0115113   0.0054587  -0.0606765   0.0970450   0.0787147  -0.0571911
    3  -0.0626522  -0.0246732   0.0560006   0.0670333  -0.0309732   0.0061531
            7           8           9          10          11          12
    1   0.0525539  -0.0103784   0.0204513  -0.0455000  -0.0543492  -0.0128832
    2  -0.0368625  -0.0214405  -0.0829839  -0.0057267  -0.0261276  -0.0073128
    3   0.0184087   0.0188724   0.0398383  -0.0009427   0.0247778  -0.0040527
           13          14          15          16          17          18
    1  -0.0305762  -0.1943355  -0.0756343   0.2049372  -0.0194534  -0.0328522
    2   0.0312799  -0.0209107   0.0081327   0.0051191   0.0470982   0.0017894
    3  -0.0570719  -0.0678295   0.0988964   0.0878148  -0.0839433  -0.0230406
           19          20          21          22          23          24
    1   0.0245050  -0.0167543  -0.0438799  -0.0370794   0.0838127   0.0050580
    2  -0.0546132  -0.0346920   0.0118553   0.0481344   0.0551037   0.0003842
    3   0.0031776   0.0283078   0.0138818  -0.0196448   0.0279621   0.0003697
           25          26          27          28          29          30
    1   0.0093537   0.0070845  -0.0016375   0.0032269  -0.0046288   0.0066912
    2   0.0004955   0.0115965  -0.0071900   0.0067419  -0.0012432  -0.0001896
    3  -0.0023290   0.0008120  -0.0084074   0.0004846  -0.0107165   0.0040028
           31          32          33          34          35          36
    1   0.0135563  -0.0136229   0.0469681   0.0942006   0.0338677  -0.0216251
    2  -0.0003560   0.0042176  -0.0177226  -0.0093276   0.0299946  -0.0046506
    3   0.0042839  -0.0721557  -0.0247445   0.0202393   0.0413614   0.0417239
           37          38          39          40          41          42
    1  -0.1169833   0.0045093  -0.0048286  -0.0533255   0.0085121  -0.0045759
    2   0.0141460   0.0451385   0.0066534  -0.0236420  -0.0032502  -0.0069231
    3  -0.0092143  -0.0825578  -0.0149031   0.0538808  -0.0024174  -0.0082230
           43          44          45          46          47          48
    1   0.0006627  -0.0007511  -0.0096283  -0.0044819  -0.0005371   0.0074682
    2  -0.0084090   0.0027614  -0.0165890  -0.0034140  -0.0196129  -0.0048435
    3   0.0089252  -0.0089221  -0.0115321  -0.0011321  -0.0298845  -0.0028008
           49          50          51          52          53          54
    1  -0.0027914   0.0017945  -0.0025250  -0.0028720   0.0012287   0.0038691
    2   0.0013258  -0.0053648   0.0038506   0.0016474  -0.0043373   0.0052118
    3   0.0004424   0.0109600  -0.0025031  -0.0045348  -0.0022721  -0.0029277
           55          56
    1   0.0055267  -0.0099706
    2   0.0060308   0.0041645
    3   0.0031740  -0.0047827
 Max gradient component =       2.049E-01
 RMS gradient           =       3.996E-02
 Gradient time:  CPU 36.45 s  wall 0.78 s
 Geometry Optimization Parameters
   NAtoms,    NIC,     NZ,  NCons,   NDum,   NFix, NCnnct, MaxDiis
       56     494       0       9       0       0       0       0


** CONSTRAINED OPTIMIZATION IN DELOCALIZED INTERNAL COORDINATES **
   Searching for a Minimum

   Optimization Cycle:   1

                       Coordinates (Angstroms)
     ATOM                X               Y               Z
      1  O        -3.5997418572    0.0638354593    0.7780450759
      2  C        -2.9759386010    0.0777712553   -0.2734688457
      3  C        -1.7523874735   -0.7586503209   -0.5766426867
      4  C        -0.4788479341   -0.4592307805    0.2310002367
      5  C        -0.6200859432    0.5214111611    1.3740225162
      6  O        -1.6293300863    1.4022704219    1.1076350595
      7  C        -1.3475228241    2.2630618302   -0.0009045133
      8  C        -0.5459745649    3.4742513601    0.4645960591
      9  O         0.8540185244    3.1544558261    0.4895399694
     10  C         1.1502109047    1.8494039053    0.7092035746
     11  C         1.9959456113    1.2455131384   -0.3865672888
     12  C         2.7333851043   -0.0444347869    0.0013688414
     13  C         2.2526140802   -0.7252807756    1.2670835044
     14  O         2.9470858990   -0.9877596799    2.2383594720
     15  O        -3.5013430354    0.7702807646   -1.3228357857
     16  O         1.1263335355   -1.2613257709    1.7018575676
     17  O         1.5800524242    1.6957275986    1.8511061319
     18  C         0.8630800123   -2.1026013901    2.8127840938
     19  C         1.7203423354    1.0071706082   -1.8921861706
     20  C         3.0160642994    1.1491476376   -2.7050242975
     21  C         3.7492837183   -0.1296968504   -2.3061258201
     22  C         2.7211390138   -0.7720986444   -1.3631311668
     23  O         1.5208824819   -0.3815945737   -1.9800728873
     24  H         2.7934299136    2.0268951472   -0.3984043219
     25  H         3.7975913986    0.1746975760    0.2525886867
     26  H         0.9194157717    1.6600985389   -2.2966199722
     27  H         2.7553593274    1.0811778579   -3.7852850401
     28  H         3.5743181186    2.0934101919   -2.5275976733
     29  H         3.8555330256   -0.7663799402   -3.2129457506
     30  H         4.7487306992    0.0180744325   -1.8434069287
     31  H         2.8985368323   -1.8638941572   -1.2597150745
     32  O        -0.5019456552    0.2167087025    2.5507216463
     33  C        -4.6988353708    1.4553799641   -1.2848977927
     34  C        -2.1753487515   -2.2373582230   -0.3902189725
     35  C        -1.7419909552   -3.0071638590   -1.6092706946
     36  C        -0.2668870760   -2.7759228612   -1.4679886753
     37  C        -0.2131287721   -2.1302125524   -0.0234938917
     38  O        -1.3176206963   -2.6978897835    0.5897178642
     39  H        -1.5700420390   -0.5534749428   -1.6666668659
     40  H         0.0457381077    0.0514001948   -0.4756089685
     41  H        -4.6701774203    2.2455661368   -0.5050786773
     42  H        -3.2518208533   -2.4159812073   -0.1669014991
     43  H        -1.9928973093   -4.0774255822   -1.4265873284
     44  H        -2.1772763806   -2.6709027094   -2.5755170778
     45  H         0.2183431361   -3.7784421518   -1.5325042123
     46  H         0.1409021237   -2.1431127366   -2.2685224595
     47  H         0.7221091199   -2.6603434121    0.2459335658
     48  H        -5.5326380648    0.7530076887   -1.0715209031
     49  H        -4.8765294115    1.9315221490   -2.2707906775
     50  H        -0.2146701601   -2.3570360975    2.8532312194
     51  H         1.1246239553   -1.5922649243    3.7652438465
     52  H         1.4411613322   -3.0470368687    2.7218846991
     53  H        -0.6676286527    4.2704706667   -0.3014330797
     54  H        -0.8941824330    3.8788398719    1.4392742063
     55  H        -2.3251255418    2.7209658803   -0.2531382126
     56  H        -1.0006377518    1.8197377820   -0.9533324710
   Point Group: c1    Number of degrees of freedom:   162


   Energy is  -1509.815720791

              Constraints and their Current Values
                                        Value     Constraint
   Dihedral:        1   2   3   4      -66.316      -66.316
   Dihedral:        3   4   5   6      -28.421      -28.421
   Dihedral:        4   5   6   7      -66.316      -66.316
   Dihedral:        5   6   7   8      -85.263      -85.263
   Dihedral:        6   7   8   9       85.263       85.263
   Dihedral:        7   8   9  10      -28.421      -28.421
   Dihedral:        8   9  10  11      123.158      123.158
   Dihedral:        9  10  11  12      161.053      161.053
   Dihedral:       11  12  13  14     -123.158     -123.158

 Attempting to Generate Delocalized Internal Coordinates

   Using Lagrange Multiplier Algorithm


165 Hessian modes will be used to form the next step
  Hessian Eigenvalues:
    -0.977753   -0.977753   -0.977753   -0.977753   -0.977753   -0.977753
     0.045000    0.045000    0.045000    0.045000    0.045029    0.045297
     0.045508    0.045968    0.048218    0.048592    0.050401    0.051265
     0.052920    0.053673    0.053682    0.058107    0.058458    0.059335
     0.059588    0.060689    0.063489    0.066233    0.067642    0.067775
     0.068104    0.069284    0.071324    0.072972    0.074748    0.074839
     0.075661    0.076138    0.078335    0.079585    0.079992    0.082120
     0.082511    0.083641    0.084695    0.085010    0.086137    0.086748
     0.087189    0.088465    0.088719    0.089790    0.090217    0.090575
     0.092894    0.093063    0.097014    0.098565    0.102180    0.106786
     0.111621    0.111927    0.113450    0.113993    0.114506    0.114967
     0.115823    0.117040    0.120008    0.122586    0.124117    0.125961
     0.128646    0.134231    0.138084    0.154050    0.155534    0.160000
     0.160000    0.160000    0.160000    0.160000    0.160000    0.174488
     0.178467    0.180637    0.187681    0.195576    0.209831    0.219897
     0.220581    0.237213    0.243248    0.247927    0.248773    0.249900
     0.250000    0.250000    0.250000    0.250000    0.250000    0.250000
     0.250000    0.250000    0.254270    0.261871    0.264222    0.269346
     0.279421    0.282320    0.289424    0.298738    0.301264    0.308046
     0.310698    0.310857    0.311561    0.313317    0.319165    0.320100
     0.320559    0.321432    0.322001    0.322478    0.322747    0.324065
     0.324135    0.324354    0.324651    0.324698    0.324736    0.324907
     0.325010    0.325056    0.325413    0.326351    0.326874    0.327482
     0.327821    0.328004    0.329908    0.338034    0.344174    0.350186
     0.372493    0.383215    0.401014    0.407723    0.427372    0.447453
     0.490766    0.517894    0.524173    0.537334    0.616980    0.911844
     0.941950    0.942739    0.948370    1.022753    1.022753    1.022753
     1.022753    1.022753    1.022753

 Minimum Search - Taking P-RFO Step
 Searching for Lamda that Maximizes Along the Constraint modes Only
 Value Taken    Lamda =   0.09570902


 ********************************************
 ** ERROR IN DETERMINING Lamda IN CONFormD **
 ********************************************


 ** Scaling Hessian by  4.253734 **


165 Hessian modes will be used to form the next step
  Hessian Eigenvalues:
    -0.977753   -0.977753   -0.977753   -0.977753   -0.908861   -0.908861
     0.191418    0.191418    0.191418    0.191418    0.191539    0.192679
     0.193578    0.195534    0.205108    0.206698    0.214392    0.218069
     0.225107    0.228309    0.228351    0.247171    0.248666    0.252394
     0.253472    0.258154    0.270064    0.281736    0.287732    0.288297
     0.289698    0.294716    0.303392    0.310404    0.317960    0.318344
     0.321841    0.323872    0.333217    0.338531    0.340266    0.349316
     0.350982    0.355785    0.360272    0.361610    0.366405    0.369004
     0.370879    0.376308    0.377387    0.381941    0.383760    0.385280
     0.395145    0.395867    0.412670    0.419267    0.434646    0.454240
     0.474807    0.476109    0.482585    0.484896    0.487079    0.489038
     0.492682    0.497856    0.510484    0.521447    0.527963    0.535806
     0.547226    0.570983    0.587373    0.655286    0.661599    0.680597
     0.680597    0.680597    0.680597    0.680597    0.680597    0.742224
     0.759151    0.768380    0.798344    0.831929    0.892565    0.935385
     0.938292    1.009042    1.022753    1.022753    1.022753    1.022753
     1.034713    1.054614    1.058216    1.063007    1.063434    1.063434
     1.063434    1.063434    1.063434    1.063434    1.063434    1.063434
     1.081597    1.100279    1.100279    1.113928    1.123930    1.145728
     1.188581    1.200915    1.231134    1.270752    1.281496    1.310347
     1.321626    1.322305    1.325298    1.332766    1.357642    1.361619
     1.363571    1.367288    1.369707    1.371736    1.372880    1.378487
     1.378786    1.379716    1.380980    1.381179    1.381340    1.382067
     1.382504    1.382704    1.384220    1.388211    1.390436    1.393020
     1.394462    1.395243    1.403341    1.437905    1.464024    1.489597
     1.584485    1.630094    1.705809    1.734345    1.817927    1.903346
     2.087587    2.202984    2.229692    2.285677    2.624468    3.878742
     4.006804    4.010163    4.034112

 Minimum Search - Taking P-RFO Step
 Searching for Lamda that Maximizes Along the Constraint modes Only
 Value Taken    Lamda =   0.09570102
 Searching for Lamda that Minimizes Along All other modes
 Value Taken    Lamda =  -0.60234234
 Calculated Step too Large.  Step scaled by  0.514211
 Step Taken.  Stepsize is  0.300000

                             Maximum     Tolerance    Cnvgd?
         Gradient            0.727216       0.000300      NO
         Displacement        0.269701       0.001200      NO
         Energy change     *********       0.000001      NO


 New Cartesian Coordinates Obtained by Inverse Iteration

 Displacement from previous Coordinates is:  9.143197
 Adding empirical dispersion correction 
 ----------------------------------------------------------------
 Doing -D3(op) with
 s6 =   1.00000
 s8 =   0.78311
 a1 =   0.30000
 a2 =   4.25000
 n  =  10.00000
 -D3 energy without 3body term =     -0.0755693016 hartrees
 ----------------------------------------------------------------
             Standard Nuclear Orientation (Angstroms)
    I     Atom           X                Y                Z
 ----------------------------------------------------------------
    1      O      -4.1004315901     0.1833746217     0.6062744453
    2      C      -3.4100955728     0.1334590946    -0.4068286742
    3      C      -2.2739421856    -0.8441019751    -0.6529333155
    4      C      -1.0095431283    -0.7271057612     0.2327982280
    5      C      -1.0908644362     0.2590915150     1.3963000463
    6      O      -1.9712692419     1.2516442221     1.0544937516
    7      C      -1.5478956611     2.0891920860    -0.0341949823
    8      C      -0.6117062462     3.2445551779     0.3686642187
    9      O       0.8103736709     2.9809150064     0.4636490406
   10      C       1.3519184698     1.7599686906     0.7487606727
   11      C       2.3226699879     1.2872006217    -0.3179484470
   12      C       3.3067813049     0.1758430745     0.1114001017
   13      C       3.0039696546    -0.5357984230     1.4208012636
   14      O       3.7991498141    -0.5934579216     2.3599848208
   15      O      -3.7734763611     0.8925292296    -1.4853437699
   16      O       1.9987691544    -1.2713278224     1.8910875737
   17      O       1.7879046649     1.7321260787     1.9041956443
   18      C       1.9454669119    -2.1041459851     3.0390266885
   19      C       2.0815198774     0.9359156824    -1.8107054120
   20      C       3.3197149426     1.2969929560    -2.6526151040
   21      C       4.2944266204     0.1993457382    -2.2173378454
   22      C       3.4190375110    -0.5972758574    -1.2297331223
   23      O       2.1522472771    -0.4754506749    -1.8404987127
   24      H       2.9530585826     2.2065779475    -0.3711819124
   25      H       4.3083883509     0.6093326128     0.3348160872
   26      H       1.1633923244     1.4013392435    -2.2246617894
   27      H       3.0669901756     1.1377823061    -3.7238618999
   28      H       3.6836764678     2.3374231786    -2.5201646415
   29      H       4.5151615232    -0.4397737235    -3.0999531017
   30      H       5.2490992647     0.5573644908    -1.7780940204
   31      H       3.8076384077    -1.6281393203    -1.0897365021
   32      O      -1.0831898462    -0.0534094473     2.5812176003
   33      C      -4.8890631111     1.7161009989    -1.4999202941
   34      C      -2.8877164345    -2.2651904847    -0.5143137083
   35      C      -2.4808828106    -3.0708916755    -1.7264528980
   36      C      -0.9927698360    -3.0268817284    -1.4949750253
   37      C      -0.9420159956    -2.4132368578    -0.0320219945
   38      O      -2.1485533098    -2.8444026755     0.5099797798
   39      H      -2.0035685300    -0.6516472364    -1.7246814434
   40      H      -0.3774397798    -0.2793138245    -0.4396563715
   41      H      -4.8182453323     2.4889250101    -0.7048069650
   42      H      -3.9884470537    -2.3082527764    -0.3533532915
   43      H      -2.8722855315    -4.1028027434    -1.5820248900
   44      H      -2.8139343959    -2.6703935954    -2.7073434469
   45      H      -0.6301045486    -4.0788773622    -1.5490064483
   46      H      -0.4617192440    -2.4383983427    -2.2566156587
   47      H      -0.0965899123    -3.0567203437     0.2825945559
   48      H      -5.8127178423     1.1168910160    -1.3488049114
   49      H      -4.9499508751     2.2219046133    -2.4850802365
   50      H       0.9433518626    -2.5707188857     3.1166804841
   51      H       2.1186918667    -1.5156751375     3.9663973571
   52      H       2.7038943887    -2.9129503924     2.9629111836
   53      H      -0.6838009334     4.0064816291    -0.4377744878
   54      H      -0.9614185730     3.7078642918     1.3165903663
   55      H      -2.4739463180     2.6296528865    -0.3175306544
   56      H      -1.2240332484     1.5912851187    -0.9676767784
 ----------------------------------------------------------------
 Molecular Point Group                 C1    NOp =  1
 Largest Abelian Subgroup              C1    NOp =  1
 Nuclear Repulsion Energy =  3419.7358034137 hartrees
 There are      113 alpha and      113 beta electrons
 Applying Cartesian multipole field
    Component          Value
    ---------          -----
     (2,0,0)        1.00000E-12
     (0,2,0)        2.00000E-11
     (0,0,2)       -3.00000E-11
 Nucleus-field energy     =    -0.0000000030 hartrees
 Requested basis set is STO-3G
 There are 86 shells and 176 basis functions
 A cutoff of  1.0D-12 yielded   2665 shell pairs
 There are     12811 function pairs
 Smallest overlap matrix eigenvalue = 1.96E-01
 Guess MOs from SCF MO coefficient file
 Reading MOs from coefficient file
 Reading MOs from coefficient file
 A restricted hybrid HF-DFT SCF calculation will be
 performed using Pulay DIIS extrapolation
 Exchange:     0.2000 Hartree-Fock + 0.0800 Slater + 0.7200 B88
 Correlation:  0.1900 VWN1RPA + 0.8100 LYP
 Using SG-1 standard quadrature grid
 Dispersion:   Grimme D3
 SCF converges when DIIS error is below 1.0E-08
 Geometry optimization detected.  Setting ReadMinima to 0
 Setting SaveMinima to 0
 using 48 threads for integral computing
 -------------------------------------------------------
 OpenMP Integral computing Module                
 Release: version 1.0, May 2013, Q-Chem Inc. Pittsburgh 
 -------------------------------------------------------
 -------------------------------------------------------
 OpenMP BLAS3 based DFT computing Module                
 Release: version 1.0, May 2013, Q-Chem Inc. Pittsburgh 
 -------------------------------------------------------
 ---------------------------------------
  Cycle       Energy         DIIS Error
 ---------------------------------------
    1   -1509.5795868349      1.03E-02
    2   -1509.8990535768      1.38E-03
    3   -1509.8869685699      2.26E-03
    4   -1509.9080701972      6.21E-04
    5   -1509.9097623231      1.20E-04
    6   -1509.9098095124      7.43E-05
    7   -1509.9098315196      3.12E-05
    8   -1509.9098362818      5.14E-06
    9   -1509.9098364991      1.52E-06
   10   -1509.9098365128      1.52E-06
   11   -1509.9098365238      3.38E-07
   12   -1509.9098365244      9.19E-08
   13   -1509.9098365245      1.91E-08
   14   -1509.9098365245      7.92E-09 Convergence criterion met
 ---------------------------------------
 SCF time:  CPU 107.06 s  wall 2.24 s
 SCF   energy in the final basis set = -1509.90983652
 Total energy in the final basis set = -1509.90983652
 
 --------------------------------------------------------------
 
                    Orbital Energies (a.u.)
 --------------------------------------------------------------
 
 Alpha MOs
 -- Occupied --
-18.959 -18.926 -18.921 -18.906 -18.906 -18.898 -18.897 -18.890
-18.843 -18.800 -10.126 -10.125 -10.100 -10.097 -10.094 -10.094
-10.083 -10.082 -10.079 -10.068 -10.068 -10.067 -10.052 -10.045
-10.035 -10.033 -10.028 -10.026 -10.017 -10.013  -1.059  -1.046
 -1.037  -1.034  -1.030  -1.026  -0.967  -0.951  -0.937  -0.888
 -0.787  -0.784  -0.750  -0.744  -0.741  -0.729  -0.707  -0.682
 -0.666  -0.645  -0.623  -0.606  -0.569  -0.557  -0.550  -0.538
 -0.530  -0.521  -0.506  -0.494  -0.483  -0.482  -0.473  -0.458
 -0.457  -0.452  -0.450  -0.434  -0.428  -0.424  -0.419  -0.412
 -0.407  -0.403  -0.392  -0.385  -0.382  -0.373  -0.372  -0.362
 -0.359  -0.354  -0.343  -0.338  -0.328  -0.325  -0.324  -0.320
 -0.317  -0.308  -0.306  -0.301  -0.298  -0.293  -0.284  -0.280
 -0.269  -0.246  -0.242  -0.236  -0.231  -0.225  -0.200  -0.193
 -0.180  -0.166  -0.163  -0.155  -0.153  -0.151  -0.134  -0.132
 -0.082
 -- Virtual --
  0.039   0.069   0.125   0.132   0.174   0.220   0.233   0.242
  0.268   0.278   0.309   0.310   0.319   0.327   0.333   0.343
  0.346   0.350   0.352   0.355   0.368   0.375   0.383   0.386
  0.392   0.399   0.400   0.409   0.411   0.419   0.421   0.422
  0.431   0.432   0.436   0.439   0.442   0.447   0.451   0.454
  0.456   0.462   0.469   0.472   0.476   0.482   0.484   0.491
  0.499   0.505   0.508   0.523   0.528   0.536   0.548   0.565
  0.573   0.579   0.620   0.633   0.665   0.694   0.719
 --------------------------------------------------------------
 
          Ground-State Mulliken Net Atomic Charges

     Atom                 Charge (a.u.)
  ----------------------------------------
      1 O                    -0.236211
      2 C                     0.228230
      3 C                    -0.080870
      4 C                    -0.110682
      5 C                     0.233540
      6 O                    -0.168556
      7 C                    -0.052214
      8 C                    -0.037844
      9 O                    -0.210538
     10 C                     0.219261
     11 C                    -0.087062
     12 C                    -0.074708
     13 C                     0.222539
     14 O                    -0.256169
     15 O                    -0.221406
     16 O                    -0.225073
     17 O                    -0.173797
     18 C                    -0.086373
     19 C                     0.035492
     20 C                    -0.141767
     21 C                    -0.141908
     22 C                     0.039372
     23 O                    -0.214907
     24 H                     0.095401
     25 H                     0.100477
     26 H                     0.079955
     27 H                     0.076876
     28 H                     0.073872
     29 H                     0.077682
     30 H                     0.074681
     31 H                     0.089254
     32 O                    -0.169487
     33 C                    -0.102463
     34 C                     0.044078
     35 C                    -0.142988
     36 C                    -0.144685
     37 C                     0.046481
     38 O                    -0.205814
     39 H                     0.079448
     40 H                     0.093421
     41 H                     0.082676
     42 H                     0.082909
     43 H                     0.073705
     44 H                     0.071781
     45 H                     0.077803
     46 H                     0.078065
     47 H                     0.083229
     48 H                     0.087195
     49 H                     0.090703
     50 H                     0.097947
     51 H                     0.093911
     52 H                     0.083091
     53 H                     0.089386
     54 H                     0.095278
     55 H                     0.098232
     56 H                     0.089548
  ----------------------------------------
  Sum of atomic charges =    -0.000000

 -----------------------------------------------------------------
                    Cartesian Multipole Moments
 -----------------------------------------------------------------
    Charge (ESU x 10^10)
                -0.0000
    Dipole Moment (Debye)
         X       0.0302      Y       1.5501      Z      -6.6771
       Tot       6.8547
    Quadrupole Moments (Debye-Ang)
        XX    -160.7010     XY      -6.1490     YY    -150.3174
        XZ       0.3042     YZ      -4.1848     ZZ    -169.5539
    Octopole Moments (Debye-Ang^2)
       XXX     -19.8926    XXY      26.6793    XYY     -13.4113
       YYY      18.5464    XXZ     -74.0048    XYZ      -9.2084
       YYZ       1.9214    XZZ     -11.0005    YZZ      -2.3112
       ZZZ      12.0221
    Hexadecapole Moments (Debye-Ang^3)
      XXXX   -6913.9971   XXXY    -195.5029   XXYY   -1606.2459
      XYYY    -265.6624   YYYY   -3068.4527   XXXZ    -175.9434
      XXYZ     -10.8319   XYYZ     -14.4501   YYYZ      32.5957
      XXZZ   -1667.2154   XYZZ     -86.6431   YYZZ    -909.0471
      XZZZ    -185.9084   YZZZ     -12.6263   ZZZZ   -2426.7036
 -----------------------------------------------------------------
 Calculating analytic gradient of the SCF energy
 Gradient of SCF Energy
            1           2           3           4           5           6
    1   0.0351496   0.0315343   0.0398678   0.0112245   0.0221967   0.0089072
    2   0.0068901   0.0014055  -0.0611578   0.0844930   0.0710788  -0.0640459
    3  -0.0507044  -0.0266808   0.0498265   0.0627427  -0.0163628   0.0017104
            7           8           9          10          11          12
    1   0.0233470  -0.0143112   0.0366159  -0.0186254  -0.0415102  -0.0053592
    2  -0.0287335  -0.0106278  -0.0588695  -0.0017761  -0.0291778  -0.0111762
    3   0.0222102   0.0023855   0.0445353  -0.0108571   0.0245814  -0.0019556
           13          14          15          16          17          18
    1  -0.0401814  -0.1421928  -0.0749086   0.2009406  -0.0086861  -0.0303743
    2   0.0234096  -0.0496324   0.0159117   0.0422529   0.0452551  -0.0060033
    3  -0.0630105  -0.0411614   0.0869194   0.1029888  -0.0721652  -0.0164217
           19          20          21          22          23          24
    1   0.0321316  -0.0084741  -0.0413449  -0.0405983   0.0666124   0.0048722
    2  -0.0402094  -0.0319769   0.0035096   0.0339836   0.0658935   0.0010509
    3   0.0020502   0.0273375   0.0122783  -0.0178173   0.0187062  -0.0002539
           25          26          27          28          29          30
    1   0.0080461   0.0047872  -0.0003210   0.0017077  -0.0041992   0.0061169
    2   0.0010811   0.0121703  -0.0073656   0.0066366  -0.0021604   0.0008510
    3  -0.0012918  -0.0001196  -0.0070941  -0.0002248  -0.0096525   0.0034988
           31          32          33          34          35          36
    1   0.0128483  -0.0261711   0.0436391   0.0831047   0.0309576  -0.0246306
    2   0.0027099   0.0101030  -0.0214343  -0.0188737   0.0216977  -0.0065239
    3   0.0039219  -0.0613066  -0.0212226   0.0245350   0.0375330   0.0346139
           37          38          39          40          41          42
    1  -0.1145245   0.0139406  -0.0028768  -0.0606682   0.0072606  -0.0048528
    2   0.0206174   0.0401637   0.0069820  -0.0213174  -0.0033768  -0.0056115
    3  -0.0353494  -0.0724471  -0.0136567   0.0447054  -0.0016088  -0.0083910
           43          44          45          46          47          48
    1  -0.0014067  -0.0001190  -0.0107482  -0.0040241  -0.0075158   0.0058529
    2  -0.0076610   0.0024368  -0.0141633  -0.0014704  -0.0195219  -0.0051038
    3   0.0080747  -0.0080281  -0.0116923   0.0000007  -0.0382981  -0.0022697
           49          50          51          52          53          54
    1  -0.0027714   0.0033102  -0.0033837  -0.0027623   0.0042057   0.0038627
    2   0.0017962  -0.0042732   0.0027885   0.0011475  -0.0033751   0.0016007
    3   0.0001723   0.0085450  -0.0032444  -0.0055076  -0.0015897  -0.0023701
           55          56
    1   0.0022256  -0.0077237
    2   0.0015245   0.0061777
    3   0.0023605  -0.0034777
 Max gradient component =       2.009E-01
 RMS gradient           =       3.646E-02
 Gradient time:  CPU 31.66 s  wall 0.67 s
 Geometry Optimization Parameters
   NAtoms,    NIC,     NZ,  NCons,   NDum,   NFix, NCnnct, MaxDiis
       56     494       0       9       0       0       0       0

 Cartesian Hessian Update
 Hessian Updated using BFGS Update


** CONSTRAINED OPTIMIZATION IN DELOCALIZED INTERNAL COORDINATES **
   Searching for a Minimum

   Optimization Cycle:   2

                       Coordinates (Angstroms)
     ATOM                X               Y               Z
      1  O        -4.1004315901    0.1833746217    0.6062744453
      2  C        -3.4100955728    0.1334590946   -0.4068286742
      3  C        -2.2739421856   -0.8441019751   -0.6529333155
      4  C        -1.0095431283   -0.7271057612    0.2327982280
      5  C        -1.0908644362    0.2590915150    1.3963000463
      6  O        -1.9712692419    1.2516442221    1.0544937516
      7  C        -1.5478956611    2.0891920860   -0.0341949823
      8  C        -0.6117062462    3.2445551779    0.3686642187
      9  O         0.8103736709    2.9809150064    0.4636490406
     10  C         1.3519184698    1.7599686906    0.7487606727
     11  C         2.3226699879    1.2872006217   -0.3179484470
     12  C         3.3067813049    0.1758430745    0.1114001017
     13  C         3.0039696546   -0.5357984230    1.4208012636
     14  O         3.7991498141   -0.5934579216    2.3599848208
     15  O        -3.7734763611    0.8925292296   -1.4853437699
     16  O         1.9987691544   -1.2713278224    1.8910875737
     17  O         1.7879046649    1.7321260787    1.9041956443
     18  C         1.9454669119   -2.1041459851    3.0390266885
     19  C         2.0815198774    0.9359156824   -1.8107054120
     20  C         3.3197149426    1.2969929560   -2.6526151040
     21  C         4.2944266204    0.1993457382   -2.2173378454
     22  C         3.4190375110   -0.5972758574   -1.2297331223
     23  O         2.1522472771   -0.4754506749   -1.8404987127
     24  H         2.9530585826    2.2065779475   -0.3711819124
     25  H         4.3083883509    0.6093326128    0.3348160872
     26  H         1.1633923244    1.4013392435   -2.2246617894
     27  H         3.0669901756    1.1377823061   -3.7238618999
     28  H         3.6836764678    2.3374231786   -2.5201646415
     29  H         4.5151615232   -0.4397737235   -3.0999531017
     30  H         5.2490992647    0.5573644908   -1.7780940204
     31  H         3.8076384077   -1.6281393203   -1.0897365021
     32  O        -1.0831898462   -0.0534094473    2.5812176003
     33  C        -4.8890631111    1.7161009989   -1.4999202941
     34  C        -2.8877164345   -2.2651904847   -0.5143137083
     35  C        -2.4808828106   -3.0708916755   -1.7264528980
     36  C        -0.9927698360   -3.0268817284   -1.4949750253
     37  C        -0.9420159956   -2.4132368578   -0.0320219945
     38  O        -2.1485533098   -2.8444026755    0.5099797798
     39  H        -2.0035685300   -0.6516472364   -1.7246814434
     40  H        -0.3774397798   -0.2793138245   -0.4396563715
     41  H        -4.8182453323    2.4889250101   -0.7048069650
     42  H        -3.9884470537   -2.3082527764   -0.3533532915
     43  H        -2.8722855315   -4.1028027434   -1.5820248900
     44  H        -2.8139343959   -2.6703935954   -2.7073434469
     45  H        -0.6301045486   -4.0788773622   -1.5490064483
     46  H        -0.4617192440   -2.4383983427   -2.2566156587
     47  H        -0.0965899123   -3.0567203437    0.2825945559
     48  H        -5.8127178423    1.1168910160   -1.3488049114
     49  H        -4.9499508751    2.2219046133   -2.4850802365
     50  H         0.9433518626   -2.5707188857    3.1166804841
     51  H         2.1186918667   -1.5156751375    3.9663973571
     52  H         2.7038943887   -2.9129503924    2.9629111836
     53  H        -0.6838009334    4.0064816291   -0.4377744878
     54  H        -0.9614185730    3.7078642918    1.3165903663
     55  H        -2.4739463180    2.6296528865   -0.3175306544
     56  H        -1.2240332484    1.5912851187   -0.9676767784
   Point Group: c1    Number of degrees of freedom:   162


   Energy is  -1509.909836524

              Constraints and their Current Values
                                        Value     Constraint
   Dihedral:        1   2   3   4      -66.316      -66.316
   Dihedral:        3   4   5   6      -28.353      -28.421
   Dihedral:        4   5   6   7      -66.173      -66.316
   Dihedral:        5   6   7   8      -83.817      -85.263
   Dihedral:        6   7   8   9       85.263       85.263
   Dihedral:        7   8   9  10      -27.260      -28.421
   Dihedral:        8   9  10  11      123.513      123.158
   Dihedral:        9  10  11  12      161.053      161.053
   Dihedral:       11  12  13  14     -123.292     -123.158
 Hessian Updated using BFGS Update

   Using Lagrange Multiplier Algorithm


157 Hessian modes will be used to form the next step
  Hessian Eigenvalues:
    -0.977753   -0.977753   -0.977753   -0.916683   -0.908864   -0.872067
     0.191399    0.191418    0.191418    0.191419    0.191533    0.192679
     0.194204    0.195448    0.205017    0.207554    0.214393    0.217733
     0.224767    0.227818    0.228365    0.246203    0.248679    0.252412
     0.253340    0.258105    0.272135    0.281730    0.287722    0.288332
     0.289565    0.294674    0.303309    0.310649    0.318030    0.318311
     0.322080    0.323708    0.333292    0.338550    0.340228    0.349387
     0.350951    0.355786    0.360273    0.365478    0.366503    0.368958
     0.370926    0.376499    0.377729    0.381932    0.383908    0.385141
     0.395085    0.396150    0.412670    0.418260    0.434346    0.454041
     0.474832    0.476096    0.481647    0.484890    0.487073    0.489040
     0.492682    0.498344    0.510610    0.521537    0.528025    0.536182
     0.546097    0.570981    0.587700    0.648924    0.660858    0.677493
     0.680597    0.680597    0.680601    0.715525    0.760001    0.763903
     0.796279    0.812866    0.832619    0.892697    0.936128    1.000011
     1.009411    1.022753    1.022753    1.022753    1.034873    1.049518
     1.054624    1.058217    1.063084    1.081559    1.098752    1.100279
     1.113709    1.123925    1.145548    1.188017    1.200362    1.230082
     1.266313    1.281000    1.308922    1.315165    1.321640    1.325221
     1.331504    1.357629    1.361506    1.363516    1.367211    1.369692
     1.371664    1.372814    1.378414    1.378784    1.379714    1.380970
     1.381116    1.381305    1.382061    1.382498    1.382697    1.384209
     1.388209    1.390435    1.393014    1.394425    1.395243    1.403336
     1.437892    1.460185    1.478849    1.584382    1.615664    1.695488
     1.732575    1.817804    1.893644    2.080140    2.187837    2.225447
     2.273955    2.597913    3.854788    3.958442    4.006752    4.030485
     4.808598

 Minimum Search - Taking P-RFO Step
 Searching for Lamda that Maximizes Along the Constraint modes Only
 Value Taken    Lamda =   0.07834918
 Searching for Lamda that Minimizes Along All other modes
 Value Taken    Lamda =  -0.20067853
 Calculated Step too Large.  Step scaled by  0.750876
 Step Taken.  Stepsize is  0.300000

                             Maximum     Tolerance    Cnvgd?
         Gradient            0.296644       0.000300      NO
         Displacement        0.292346       0.001200      NO
         Energy change     -0.094116       0.000001      NO


 New Cartesian Coordinates Obtained by Inverse Iteration

 Displacement from previous Coordinates is:  1.200166
 Adding empirical dispersion correction 
 ----------------------------------------------------------------
 Doing -D3(op) with
 s6 =   1.00000
 s8 =   0.78311
 a1 =   0.30000
 a2 =   4.25000
 n  =  10.00000
 -D3 energy without 3body term =     -0.0752411383 hartrees
 ----------------------------------------------------------------
             Standard Nuclear Orientation (Angstroms)
    I     Atom           X                Y                Z
 ----------------------------------------------------------------
    1      O      -4.1794886576     0.1894009984     0.5300514445
    2      C      -3.4541509068     0.1297109622    -0.4668782277
    3      C      -2.2946267996    -0.8481905088    -0.6754253359
    4      C      -1.0159751269    -0.7535362375     0.2266280389
    5      C      -1.0759014622     0.2434917078     1.4066165467
    6      O      -1.9363319537     1.2903051036     1.1169510939
    7      C      -1.5148636686     2.1637152395     0.0447919557
    8      C      -0.5595286302     3.3093982003     0.4641061566
    9      O       0.8678026010     3.0376789683     0.5320558674
   10      C       1.4089215051     1.7963507394     0.8078199545
   11      C       2.3583887709     1.3083600888    -0.2898170717
   12      C       3.3465350105     0.1812817530     0.1131079665
   13      C       3.0685142999    -0.5353347649     1.4320524719
   14      O       3.9253264086    -0.5773509199     2.3367149524
   15      O      -3.7795783883     0.8583183853    -1.5904121046
   16      O       1.9941744111    -1.2511070513     1.8320657595
   17      O       1.8463200978     1.7226783482     1.9702924333
   18      C       1.9153553079    -2.1042252375     2.9660583691
   19      C       2.0578019379     0.9563473613    -1.7786269214
   20      C       3.2832805956     1.3077852691    -2.6607243085
   21      C       4.2642909410     0.1910059756    -2.2535960502
   22      C       3.4028462854    -0.6031377141    -1.2361675622
   23      O       2.1038802902    -0.4698490317    -1.8074337939
   24      H       2.9996411840     2.2178921279    -0.3573759671
   25      H       4.3564786240     0.6026988585     0.3091775021
   26      H       1.1295065647     1.4275247674    -2.1612499385
   27      H       2.9974096340     1.1581588030    -3.7224714595
   28      H       3.6617591090     2.3417785132    -2.5357401029
   29      H       4.4551751783    -0.4488775768    -3.1395326119
   30      H       5.2330537951     0.5373162905    -1.8419295781
   31      H       3.7753683919    -1.6405599263    -1.1073109904
   32      O      -1.0321624641    -0.0801665906     2.5954022992
   33      C      -4.9202985625     1.6680910659    -1.6284099452
   34      C      -2.9110966481    -2.2788874697    -0.5055944129
   35      C      -2.4835976259    -3.1133267196    -1.7050034330
   36      C      -0.9858286381    -3.0632291176    -1.4481070825
   37      C      -0.9508554862    -2.4296803181     0.0151272490
   38      O      -2.1781889874    -2.8442261178     0.5539386685
   39      H      -2.0078920403    -0.6751808162    -1.7418224127
   40      H      -0.3602089621    -0.3185989309    -0.4581390445
   41      H      -4.8827875168     2.4558015984    -0.8444299823
   42      H      -4.0121169515    -2.3126387841    -0.3525028610
   43      H      -2.8755559293    -4.1411743164    -1.5534344959
   44      H      -2.8031175420    -2.7297558885    -2.6943942242
   45      H      -0.6145319305    -4.1099889996    -1.4707804410
   46      H      -0.4409152642    -2.4853022222    -2.2091815807
   47      H      -0.1051480691    -3.0577496258     0.3631826449
   48      H      -5.8414074816     1.0618476272    -1.4845283741
   49      H      -4.9701130254     2.1579447216    -2.6219512167
   50      H       0.9006999724    -2.5480325684     3.0087912255
   51      H       2.0841790137    -1.5404363669     3.9100303266
   52      H       2.6595969630    -2.9271627279     2.8911725402
   53      H      -0.6464926023     4.0852077519    -0.3281026523
   54      H      -0.8897130271     3.7547497169     1.4283781715
   55      H      -2.4369985328     2.7264296341    -0.2085514623
   56      H      -1.2111588207     1.6811741372    -0.9040968391
 ----------------------------------------------------------------
 Molecular Point Group                 C1    NOp =  1
 Largest Abelian Subgroup              C1    NOp =  1
 Nuclear Repulsion Energy =  3395.0673485654 hartrees
 There are      113 alpha and      113 beta electrons
 Applying Cartesian multipole field
    Component          Value
    ---------          -----
     (2,0,0)        1.00000E-12
     (0,2,0)        2.00000E-11
     (0,0,2)       -3.00000E-11
 Nucleus-field energy     =    -0.0000000023 hartrees
 Requested basis set is STO-3G
 There are 86 shells and 176 basis functions
 A cutoff of  1.0D-12 yielded   2649 shell pairs
 There are     12750 function pairs
 Smallest overlap matrix eigenvalue = 2.00E-01
 Guess MOs from SCF MO coefficient file
 Reading MOs from coefficient file
 Reading MOs from coefficient file
 A restricted hybrid HF-DFT SCF calculation will be
 performed using Pulay DIIS extrapolation
 Exchange:     0.2000 Hartree-Fock + 0.0800 Slater + 0.7200 B88
 Correlation:  0.1900 VWN1RPA + 0.8100 LYP
 Using SG-1 standard quadrature grid
 Dispersion:   Grimme D3
 SCF converges when DIIS error is below 1.0E-08
 Geometry optimization detected.  Setting ReadMinima to 0
 Setting SaveMinima to 0
 using 48 threads for integral computing
 -------------------------------------------------------
 OpenMP Integral computing Module                
 Release: version 1.0, May 2013, Q-Chem Inc. Pittsburgh 
 -------------------------------------------------------
 -------------------------------------------------------
 OpenMP BLAS3 based DFT computing Module                
 Release: version 1.0, May 2013, Q-Chem Inc. Pittsburgh 
 -------------------------------------------------------
 ---------------------------------------
  Cycle       Energy         DIIS Error
 ---------------------------------------
    1   -1509.9133124846      3.11E-03
    2   -1510.0037947551      6.34E-04
    3   -1510.0006428662      1.09E-03
    4   -1510.0054804104      2.52E-04
    5   -1510.0057642400      4.42E-05
    6   -1510.0057711758      2.38E-05
    7   -1510.0057731258      1.10E-05
    8   -1510.0057737305      1.81E-06
    9   -1510.0057737490      4.73E-07
   10   -1510.0057737504      2.27E-07
   11   -1510.0057737508      9.88E-08
   12   -1510.0057737507      5.56E-08
   13   -1510.0057737507      1.19E-08
   14   -1510.0057737506      2.98E-09 Convergence criterion met
 ---------------------------------------
 SCF time:  CPU 107.47 s  wall 2.25 s
 SCF   energy in the final basis set = -1510.00577375
 Total energy in the final basis set = -1510.00577375
 
 --------------------------------------------------------------
 
                    Orbital Energies (a.u.)
 --------------------------------------------------------------
 
 Alpha MOs
 -- Occupied --
-18.953 -18.929 -18.919 -18.905 -18.904 -18.903 -18.897 -18.896
-18.849 -18.814 -10.122 -10.122 -10.099 -10.095 -10.093 -10.092
-10.081 -10.080 -10.077 -10.068 -10.066 -10.065 -10.048 -10.044
-10.035 -10.034 -10.028 -10.025 -10.017 -10.013  -1.047  -1.036
 -1.031  -1.023  -1.020  -1.016  -0.961  -0.947  -0.937  -0.900
 -0.782  -0.777  -0.745  -0.739  -0.736  -0.724  -0.705  -0.678
 -0.666  -0.640  -0.617  -0.602  -0.565  -0.554  -0.548  -0.537
 -0.527  -0.519  -0.501  -0.491  -0.481  -0.478  -0.466  -0.453
 -0.452  -0.447  -0.446  -0.430  -0.425  -0.422  -0.416  -0.410
 -0.407  -0.401  -0.390  -0.383  -0.378  -0.371  -0.368  -0.359
 -0.356  -0.351  -0.341  -0.337  -0.328  -0.325  -0.322  -0.319
 -0.318  -0.311  -0.304  -0.300  -0.298  -0.294  -0.281  -0.277
 -0.272  -0.245  -0.241  -0.237  -0.230  -0.230  -0.200  -0.197
 -0.177  -0.168  -0.162  -0.155  -0.153  -0.151  -0.143  -0.136
 -0.103
 -- Virtual --
  0.041   0.069   0.119   0.125   0.180   0.221   0.233   0.250
  0.266   0.273   0.304   0.306   0.317   0.325   0.330   0.337
  0.343   0.348   0.350   0.352   0.366   0.371   0.377   0.382
  0.389   0.396   0.398   0.405   0.405   0.411   0.414   0.418
  0.424   0.428   0.430   0.437   0.440   0.440   0.446   0.447
  0.453   0.457   0.460   0.469   0.472   0.479   0.481   0.484
  0.494   0.498   0.500   0.507   0.516   0.525   0.544   0.558
  0.565   0.569   0.608   0.618   0.650   0.665   0.681
 --------------------------------------------------------------
 
          Ground-State Mulliken Net Atomic Charges

     Atom                 Charge (a.u.)
  ----------------------------------------
      1 O                    -0.230243
      2 C                     0.220515
      3 C                    -0.081506
      4 C                    -0.103245
      5 C                     0.229235
      6 O                    -0.169195
      7 C                    -0.052352
      8 C                    -0.038114
      9 O                    -0.208549
     10 C                     0.215843
     11 C                    -0.086516
     12 C                    -0.076388
     13 C                     0.218966
     14 O                    -0.246484
     15 O                    -0.212936
     16 O                    -0.215912
     17 O                    -0.172373
     18 C                    -0.094215
     19 C                     0.032943
     20 C                    -0.142200
     21 C                    -0.142500
     22 C                     0.036694
     23 O                    -0.210029
     24 H                     0.093997
     25 H                     0.098318
     26 H                     0.079371
     27 H                     0.076724
     28 H                     0.074408
     29 H                     0.077411
     30 H                     0.075191
     31 H                     0.087998
     32 O                    -0.169748
     33 C                    -0.106200
     34 C                     0.040916
     35 C                    -0.143640
     36 C                    -0.144453
     37 C                     0.044976
     38 O                    -0.202417
     39 H                     0.080232
     40 H                     0.091384
     41 H                     0.083409
     42 H                     0.082953
     43 H                     0.074048
     44 H                     0.072437
     45 H                     0.077268
     46 H                     0.078133
     47 H                     0.083019
     48 H                     0.087130
     49 H                     0.090791
     50 H                     0.099367
     51 H                     0.093953
     52 H                     0.082973
     53 H                     0.089210
     54 H                     0.095049
     55 H                     0.095981
     56 H                     0.088372
  ----------------------------------------
  Sum of atomic charges =     0.000000

 -----------------------------------------------------------------
                    Cartesian Multipole Moments
 -----------------------------------------------------------------
    Charge (ESU x 10^10)
                -0.0000
    Dipole Moment (Debye)
         X      -0.0589      Y       1.4536      Z      -6.5389
       Tot       6.6988
    Quadrupole Moments (Debye-Ang)
        XX    -161.4059     XY      -6.3591     YY    -149.9433
        XZ       0.3253     YZ      -4.2244     ZZ    -169.4167
    Octopole Moments (Debye-Ang^2)
       XXX     -27.8593    XXY      26.2813    XYY     -14.3234
       YYY      18.7521    XXZ     -77.4780    XYZ      -9.3490
       YYZ       1.6052    XZZ     -13.0453    YZZ      -2.2759
       ZZZ       9.3305
    Hexadecapole Moments (Debye-Ang^3)
      XXXX   -7002.6910   XXXY    -215.4390   XXYY   -1629.4517
      XYYY    -291.8192   YYYY   -3126.2329   XXXZ    -205.3347
      XXYZ     -16.6089   XYYZ     -24.9636   YYYZ      21.3201
      XXZZ   -1675.1337   XYZZ     -95.7063   YYZZ    -923.4982
      XZZZ    -215.9711   YZZZ     -22.9726   ZZZZ   -2445.0219
 -----------------------------------------------------------------
 Calculating analytic gradient of the SCF energy
 Gradient of SCF Energy
            1           2           3           4           5           6
    1   0.0232849   0.0240395   0.0340509   0.0127122   0.0266771   0.0065100
    2   0.0020085  -0.0007999  -0.0508415   0.0611259   0.0652822  -0.0481897
    3  -0.0362614  -0.0301442   0.0352626   0.0656300  -0.0171765   0.0048399
            7           8           9          10          11          12
    1   0.0233635  -0.0143572   0.0274352  -0.0211684  -0.0362346  -0.0002089
    2  -0.0221176  -0.0047200  -0.0448944  -0.0049917  -0.0280136  -0.0087226
    3   0.0161112   0.0015508   0.0379938  -0.0177607   0.0213764   0.0021171
           13          14          15          16          17          18
    1  -0.0461895  -0.0712734  -0.0667180   0.1319799  -0.0000649  -0.0259522
    2   0.0222088  -0.0244923   0.0134409   0.0120887   0.0391462   0.0000858
    3  -0.0665361  -0.0160333   0.0697676   0.0882510  -0.0491394  -0.0219436
           19          20          21          22          23          24
    1   0.0242459  -0.0057769  -0.0297814  -0.0342343   0.0543442   0.0048867
    2  -0.0325727  -0.0227806   0.0033695   0.0258413   0.0513784  -0.0000175
    3  -0.0003519   0.0215124   0.0110945  -0.0139413   0.0119658   0.0002105
           25          26          27          28          29          30
    1   0.0066401   0.0044483  -0.0005519   0.0013336  -0.0041262   0.0052088
    2   0.0004065   0.0110591  -0.0062307   0.0052525  -0.0014679   0.0000948
    3  -0.0003805  -0.0000573  -0.0052897  -0.0010779  -0.0074210   0.0021101
           31          32          33          34          35          36
    1   0.0117250  -0.0250531   0.0390719   0.0655450   0.0216332  -0.0172879
    2   0.0025613   0.0085705  -0.0193827  -0.0146614   0.0174375  -0.0074663
    3   0.0033751  -0.0441211  -0.0177661   0.0224316   0.0268718   0.0282782
           37          38          39          40          41          42
    1  -0.0976736   0.0155732  -0.0026832  -0.0492246   0.0051729  -0.0041763
    2   0.0178508   0.0301669   0.0066834  -0.0146368  -0.0016990  -0.0046605
    3  -0.0308237  -0.0562854  -0.0107900   0.0322352  -0.0008061  -0.0079611
           43          44          45          46          47          48
    1  -0.0012609  -0.0002984  -0.0094508  -0.0031721  -0.0045017   0.0037736
    2  -0.0056312   0.0010434  -0.0116322  -0.0015551  -0.0195574  -0.0038119
    3   0.0070309  -0.0063411  -0.0099810  -0.0004346  -0.0352850  -0.0016998
           49          50          51          52          53          54
    1  -0.0026690   0.0017917  -0.0025627  -0.0016205   0.0027342   0.0043627
    2   0.0017822  -0.0038165   0.0025274   0.0006546  -0.0033108   0.0020330
    3  -0.0000986   0.0064363  -0.0020654  -0.0043465  -0.0022185  -0.0016672
           55          56
    1   0.0038647  -0.0081363
    2   0.0026077   0.0059669
    3   0.0024594  -0.0027066
 Max gradient component =       1.320E-01
 RMS gradient           =       2.807E-02
 Gradient time:  CPU 32.15 s  wall 0.68 s
 Geometry Optimization Parameters
   NAtoms,    NIC,     NZ,  NCons,   NDum,   NFix, NCnnct, MaxDiis
       56     494       0       9       0       0       0       0

 Cartesian Hessian Update
 Hessian Updated using BFGS Update


** CONSTRAINED OPTIMIZATION IN DELOCALIZED INTERNAL COORDINATES **
   Searching for a Minimum

   Optimization Cycle:   3

                       Coordinates (Angstroms)
     ATOM                X               Y               Z
      1  O        -4.1794886576    0.1894009984    0.5300514445
      2  C        -3.4541509068    0.1297109622   -0.4668782277
      3  C        -2.2946267996   -0.8481905088   -0.6754253359
      4  C        -1.0159751269   -0.7535362375    0.2266280389
      5  C        -1.0759014622    0.2434917078    1.4066165467
      6  O        -1.9363319537    1.2903051036    1.1169510939
      7  C        -1.5148636686    2.1637152395    0.0447919557
      8  C        -0.5595286302    3.3093982003    0.4641061566
      9  O         0.8678026010    3.0376789683    0.5320558674
     10  C         1.4089215051    1.7963507394    0.8078199545
     11  C         2.3583887709    1.3083600888   -0.2898170717
     12  C         3.3465350105    0.1812817530    0.1131079665
     13  C         3.0685142999   -0.5353347649    1.4320524719
     14  O         3.9253264086   -0.5773509199    2.3367149524
     15  O        -3.7795783883    0.8583183853   -1.5904121046
     16  O         1.9941744111   -1.2511070513    1.8320657595
     17  O         1.8463200978    1.7226783482    1.9702924333
     18  C         1.9153553079   -2.1042252375    2.9660583691
     19  C         2.0578019379    0.9563473613   -1.7786269214
     20  C         3.2832805956    1.3077852691   -2.6607243085
     21  C         4.2642909410    0.1910059756   -2.2535960502
     22  C         3.4028462854   -0.6031377141   -1.2361675622
     23  O         2.1038802902   -0.4698490317   -1.8074337939
     24  H         2.9996411840    2.2178921279   -0.3573759671
     25  H         4.3564786240    0.6026988585    0.3091775021
     26  H         1.1295065647    1.4275247674   -2.1612499385
     27  H         2.9974096340    1.1581588030   -3.7224714595
     28  H         3.6617591090    2.3417785132   -2.5357401029
     29  H         4.4551751783   -0.4488775768   -3.1395326119
     30  H         5.2330537951    0.5373162905   -1.8419295781
     31  H         3.7753683919   -1.6405599263   -1.1073109904
     32  O        -1.0321624641   -0.0801665906    2.5954022992
     33  C        -4.9202985625    1.6680910659   -1.6284099452
     34  C        -2.9110966481   -2.2788874697   -0.5055944129
     35  C        -2.4835976259   -3.1133267196   -1.7050034330
     36  C        -0.9858286381   -3.0632291176   -1.4481070825
     37  C        -0.9508554862   -2.4296803181    0.0151272490
     38  O        -2.1781889874   -2.8442261178    0.5539386685
     39  H        -2.0078920403   -0.6751808162   -1.7418224127
     40  H        -0.3602089621   -0.3185989309   -0.4581390445
     41  H        -4.8827875168    2.4558015984   -0.8444299823
     42  H        -4.0121169515   -2.3126387841   -0.3525028610
     43  H        -2.8755559293   -4.1411743164   -1.5534344959
     44  H        -2.8031175420   -2.7297558885   -2.6943942242
     45  H        -0.6145319305   -4.1099889996   -1.4707804410
     46  H        -0.4409152642   -2.4853022222   -2.2091815807
     47  H        -0.1051480691   -3.0577496258    0.3631826449
     48  H        -5.8414074816    1.0618476272   -1.4845283741
     49  H        -4.9701130254    2.1579447216   -2.6219512167
     50  H         0.9006999724   -2.5480325684    3.0087912255
     51  H         2.0841790137   -1.5404363669    3.9100303266
     52  H         2.6595969630   -2.9271627279    2.8911725402
     53  H        -0.6464926023    4.0852077519   -0.3281026523
     54  H        -0.8897130271    3.7547497169    1.4283781715
     55  H        -2.4369985328    2.7264296341   -0.2085514623
     56  H        -1.2111588207    1.6811741372   -0.9040968391
   Point Group: c1    Number of degrees of freedom:   162


   Energy is  -1510.005773751

              Constraints and their Current Values
                                        Value     Constraint
   Dihedral:        1   2   3   4      -66.316      -66.316
   Dihedral:        3   4   5   6      -28.199      -28.421
   Dihedral:        4   5   6   7      -66.338      -66.316
   Dihedral:        5   6   7   8      -85.500      -85.263
   Dihedral:        6   7   8   9       85.263       85.263
   Dihedral:        7   8   9  10      -28.551      -28.421
   Dihedral:        8   9  10  11      123.183      123.158
   Dihedral:        9  10  11  12      161.053      161.053
   Dihedral:       11  12  13  14     -123.136     -123.158
 Hessian Updated using BFGS Update

   Using Lagrange Multiplier Algorithm


159 Hessian modes will be used to form the next step
  Hessian Eigenvalues:
    -0.977753   -0.977753   -0.977694   -0.913857   -0.898064   -0.875686
     0.186481    0.191418    0.191419    0.191430    0.191535    0.192043
     0.194179    0.194899    0.201400    0.206340    0.208435    0.214592
     0.220827    0.226056    0.228363    0.246132    0.248791    0.251653
     0.252575    0.258103    0.271378    0.283291    0.286635    0.288248
     0.289223    0.294117    0.301930    0.306693    0.316591    0.318178
     0.320134    0.322841    0.333210    0.338556    0.339447    0.349339
     0.350592    0.355719    0.360286    0.363938    0.365731    0.366513
     0.370928    0.375322    0.377199    0.379713    0.382123    0.383961
     0.390666    0.396172    0.403792    0.412672    0.429427    0.445077
     0.467118    0.475006    0.476157    0.484899    0.487082    0.489040
     0.492682    0.497467    0.510539    0.521493    0.528025    0.532511
     0.538669    0.570781    0.577296    0.589714    0.666008    0.671471
     0.680597    0.680597    0.680601    0.680750    0.685980    0.759927
     0.761707    0.797062    0.827825    0.833778    0.873519    0.893657
     0.936755    1.004704    1.009502    1.022753    1.022753    1.022814
     1.036625    1.054658    1.058217    1.063198    1.078208    1.083978
     1.099207    1.113701    1.123925    1.145195    1.184298    1.191177
     1.227930    1.246802    1.263691    1.279898    1.301975    1.316560
     1.323909    1.327027    1.333880    1.357615    1.361365    1.363527
     1.367097    1.369688    1.371538    1.372719    1.378275    1.378804
     1.379710    1.380896    1.381034    1.381284    1.382076    1.382489
     1.382717    1.384232    1.388208    1.390449    1.393152    1.394401
     1.395280    1.403407    1.437654    1.441402    1.470980    1.583934
     1.596799    1.695393    1.731499    1.820557    1.876281    2.062633
     2.165165    2.222298    2.267522    2.597321    3.825787    3.952821
     4.013141    4.035219    4.753991

 Minimum Search - Taking P-RFO Step
 Searching for Lamda that Maximizes Along the Constraint modes Only
 Value Taken    Lamda =   0.00410193
 Searching for Lamda that Minimizes Along All other modes
 Value Taken    Lamda =  -0.15566685
 Calculated Step too Large.  Step scaled by  0.537106
 Step Taken.  Stepsize is  0.300000

                             Maximum     Tolerance    Cnvgd?
         Gradient            0.119686       0.000300      NO
         Displacement        0.122610       0.001200      NO
         Energy change     -0.095937       0.000001      NO


 New Cartesian Coordinates Obtained by Inverse Iteration

 Displacement from previous Coordinates is:  1.077340
 Adding empirical dispersion correction 
 ----------------------------------------------------------------
 Doing -D3(op) with
 s6 =   1.00000
 s8 =   0.78311
 a1 =   0.30000
 a2 =   4.25000
 n  =  10.00000
[...]
     15  O        -3.6578110519    1.1217157818   -1.5188269784
     16  O         1.8106577686   -1.2365973467    1.3134719060
     17  O         1.1861623660    1.2188492220    1.9301734311
     18  C         1.4945555071   -1.8840513110    2.6102605846
     19  C         1.7211567477    0.9730700277   -1.6031452457
     20  C         2.7564790622    1.0732679784   -2.7886895481
     21  C         3.6584741393   -0.1875025043   -2.5122753198
     22  C         2.9811839015   -0.7728218226   -1.2131769031
     23  O         1.5391879599   -0.4852944815   -1.4329152939
     24  H         3.0786556683    2.2986873299   -0.4676837477
     25  H         4.4337574208    0.4259573032    0.0145346221
     26  H         0.7490876291    1.4672750736   -1.7910337726
     27  H         2.2389217386    0.9957886795   -3.7581154250
     28  H         3.3223332961    2.0178366338   -2.7627859258
     29  H         3.5999534569   -0.9141671453   -3.3381658816
     30  H         4.7155737164    0.0728616229   -2.3439701484
     31  H         3.1330133422   -1.8568080543   -1.0470077127
     32  O        -0.9977086360   -0.1184000869    2.4169769704
     33  C        -4.8876152454    1.8542040273   -1.1421807918
     34  C        -2.5240903356   -2.3175998188   -1.1710263260
     35  C        -1.3000910794   -3.0809150878   -1.8233415866
     36  C        -0.3038351517   -3.1667358838   -0.6080887193
     37  C        -1.0907196951   -2.3283513476    0.4690499090
     38  O        -2.4968782408   -2.7316498645    0.2479785634
     39  H        -1.8314548924   -0.3552313734   -2.0359925354
     40  H        -0.0271081419   -0.6252841478   -0.4638185358
     41  H        -4.8301196773    2.2427833265   -0.1046740917
     42  H        -3.5109304573   -2.5386631660   -1.6221558403
     43  H        -1.6076073877   -4.0793197757   -2.1725807442
     44  H        -0.8777778474   -2.5224631175   -2.6740140673
     45  H        -0.1688595143   -4.2063454612   -0.2693051750
     46  H         0.6802686675   -2.7260032098   -0.8294336110
     47  H        -0.8089071743   -2.4981191352    1.5227743925
     48  H        -5.7880388240    1.2114554821   -1.2225555040
     49  H        -4.9735412721    2.6981394842   -1.8512981652
     50  H         0.5608093825   -1.4140472015    2.9851876757
     51  H         2.3338195598   -1.7338317948    3.3169065573
     52  H         1.3383489862   -2.9674243269    2.4419653995
     53  H        -0.4447165671    4.3216103022   -0.1863123104
     54  H        -0.7616091895    3.8487289386    1.5165021054
     55  H        -2.2796884744    2.9517417934   -0.3373601259
     56  H        -0.9609587023    1.8833847073   -0.8837208709
   Point Group: c1    Number of degrees of freedom:   162


   Energy is  -1510.253710682

              Constraints and their Current Values
                                        Value     Constraint
   Dihedral:        1   2   3   4      -66.316      -66.316
   Dihedral:        3   4   5   6      -28.421      -28.421
   Dihedral:        4   5   6   7      -66.316      -66.316
   Dihedral:        5   6   7   8      -85.263      -85.263
   Dihedral:        6   7   8   9       85.263       85.263
   Dihedral:        7   8   9  10      -28.421      -28.421
   Dihedral:        8   9  10  11      123.158      123.158
   Dihedral:        9  10  11  12      161.053      161.053
   Dihedral:       11  12  13  14     -123.158     -123.158
 Hessian Updated using BFGS Update

153 Hessian modes will be used to form the next step
  Hessian Eigenvalues:
     0.002934    0.004795    0.007345    0.014569    0.026276    0.030941
     0.041164    0.075372    0.115076    0.175346    0.191263    0.191746
     0.197672    0.198837    0.211845    0.216040    0.222661    0.228395
     0.239390    0.246204    0.249124    0.254996    0.257664    0.267949
     0.272791    0.281686    0.285609    0.289423    0.294617    0.299560
     0.307646    0.316760    0.320554    0.323821    0.327431    0.335762
     0.339179    0.346727    0.348104    0.353272    0.355448    0.360452
     0.364121    0.366456    0.369666    0.374747    0.377185    0.379642
     0.381282    0.382118    0.387793    0.391081    0.410179    0.412657
     0.420952    0.436339    0.441263    0.459038    0.474954    0.479395
     0.486806    0.492406    0.493673    0.501063    0.513859    0.521293
     0.527778    0.535120    0.538935    0.554355    0.584176    0.608584
     0.628002    0.657307    0.672258    0.677942    0.679937    0.681025
     0.700760    0.731568    0.738842    0.779205    0.812415    0.857549
     0.861641    0.889273    0.956294    0.977340    0.995523    1.001598
     1.028750    1.035673    1.046324    1.059824    1.065031    1.068730
     1.101137    1.115032    1.119833    1.132411    1.156467    1.169965
     1.192448    1.223925    1.240120    1.252821    1.271253    1.280239
     1.304986    1.310846    1.328293    1.335360    1.353468    1.361738
     1.363703    1.367831    1.369095    1.370342    1.372454    1.377240
     1.378469    1.379755    1.380732    1.380961    1.381586    1.382323
     1.382732    1.383496    1.384384    1.389969    1.390202    1.392689
     1.393591    1.403086    1.407752    1.437056    1.491115    1.545165
     1.580423    1.681800    1.693728    1.741238    1.868756    1.989798
     2.091420    2.175785    2.233440    2.535238    2.837449    3.780179
     3.923705    3.990204    4.594503

 Minimum Search - Taking Simple RFO Step
 Searching for Lamda that Minimizes Along All modes
 Value Taken    Lamda =   0.00000000
 Step Taken.  Stepsize is  0.003598

                             Maximum     Tolerance    Cnvgd?
         Gradient           0.000130      0.000300     YES
         Displacement       0.001779      0.001200      NO
         Energy change     -0.000001      0.000001     YES

 Final energy is   -1510.25371068159     


 ******************************
 **  OPTIMIZATION CONVERGED  **
 ******************************

                       Coordinates (Angstroms)
     ATOM                X               Y               Z
      1  O        -4.2616651240   -0.2891046826    0.2900106046
      2  C        -3.4643345040    0.0119078320   -0.6226551326
      3  C        -2.1806046199   -0.7712955998   -1.0742952922
      4  C        -1.0232433644   -0.8047908367    0.0080960333
      5  C        -1.2017556971    0.1817229716    1.2216230672
      6  O        -1.9615842984    1.3911338302    0.9433937572
      7  C        -1.3977905803    2.3763438717    0.0145246792
      8  C        -0.3783117787    3.4792595352    0.5357746283
      9  O         1.0703038367    3.2091107209    0.6491393189
     10  C         1.4690983089    1.8475327664    0.8902672298
     11  C         2.4509414948    1.4115289410   -0.2641445837
     12  C         3.3654678902    0.1499870289    0.0287240401
     13  C         3.0950302286   -0.6174702859    1.3712780135
     14  O         3.9417906402   -0.8308581769    2.2689235765
     15  O        -3.6578110519    1.1217157818   -1.5188269784
     16  O         1.8106577686   -1.2365973467    1.3134719060
     17  O         1.1861623660    1.2188492220    1.9301734311
     18  C         1.4945555071   -1.8840513110    2.6102605846
     19  C         1.7211567477    0.9730700277   -1.6031452457
     20  C         2.7564790622    1.0732679784   -2.7886895481
     21  C         3.6584741393   -0.1875025043   -2.5122753198
     22  C         2.9811839015   -0.7728218226   -1.2131769031
     23  O         1.5391879599   -0.4852944815   -1.4329152939
     24  H         3.0786556683    2.2986873299   -0.4676837477
     25  H         4.4337574208    0.4259573032    0.0145346221
     26  H         0.7490876291    1.4672750736   -1.7910337726
     27  H         2.2389217386    0.9957886795   -3.7581154250
     28  H         3.3223332961    2.0178366338   -2.7627859258
     29  H         3.5999534569   -0.9141671453   -3.3381658816
     30  H         4.7155737164    0.0728616229   -2.3439701484
     31  H         3.1330133422   -1.8568080543   -1.0470077127
     32  O        -0.9977086360   -0.1184000869    2.4169769704
     33  C        -4.8876152454    1.8542040273   -1.1421807918
     34  C        -2.5240903356   -2.3175998188   -1.1710263260
     35  C        -1.3000910794   -3.0809150878   -1.8233415866
     36  C        -0.3038351517   -3.1667358838   -0.6080887193
     37  C        -1.0907196951   -2.3283513476    0.4690499090
     38  O        -2.4968782408   -2.7316498645    0.2479785634
     39  H        -1.8314548924   -0.3552313734   -2.0359925354
     40  H        -0.0271081419   -0.6252841478   -0.4638185358
     41  H        -4.8301196773    2.2427833265   -0.1046740917
     42  H        -3.5109304573   -2.5386631660   -1.6221558403
     43  H        -1.6076073877   -4.0793197757   -2.1725807442
     44  H        -0.8777778474   -2.5224631175   -2.6740140673
     45  H        -0.1688595143   -4.2063454612   -0.2693051750
     46  H         0.6802686675   -2.7260032098   -0.8294336110
     47  H        -0.8089071743   -2.4981191352    1.5227743925
     48  H        -5.7880388240    1.2114554821   -1.2225555040
     49  H        -4.9735412721    2.6981394842   -1.8512981652
     50  H         0.5608093825   -1.4140472015    2.9851876757
     51  H         2.3338195598   -1.7338317948    3.3169065573
     52  H         1.3383489862   -2.9674243269    2.4419653995
     53  H        -0.4447165671    4.3216103022   -0.1863123104
     54  H        -0.7616091895    3.8487289386    1.5165021054
     55  H        -2.2796884744    2.9517417934   -0.3373601259
     56  H        -0.9609587023    1.8833847073   -0.8837208709

Z-matrix Print:
$molecule
0 1
O 
C  1 1.479499
H  2 1.106553 1 110.593034
C  1 1.486711 2 95.068532 3 -179.998699 0
H  4 1.107109 1 110.154863 2 179.811639 0
C  2 1.577164 1 103.288281 3 -123.399397 0
H  6 1.101395 2 111.966324 1 -155.280159 0
H  6 1.101660 2 110.401822 1 83.327785 0
C  6 1.574656 2 101.139995 1 -34.876302 0
H  9 1.101618 6 111.476066 2 117.107502 0
H  9 1.101624 6 112.783732 2 -120.217092 0
C  2 1.586743 1 103.406144 3 123.716159 0
H  12 1.105669 2 109.116053 1 151.273515 0
C  12 1.576953 2 114.066414 1 -91.108291 0
O  14 1.247678 12 127.735796 2 106.925940 0
O  14 1.439123 12 108.147489 2 -81.087771 0
C  16 1.477944 14 117.219466 12 123.158001 0
H  17 1.111474 16 104.295317 14 -147.839060 0
H  17 1.115908 16 109.255159 14 97.552494 0
C  12 1.585440 2 101.613381 1 34.915923 0
H  20 1.103451 12 110.920279 2 118.149162 0
C  20 1.569898 12 116.589361 2 -118.447039 0
O  22 1.252320 20 125.436938 12 -123.157944 0
O  22 1.426980 20 109.421066 12 66.945838 0
C  24 1.483502 22 110.226407 20 -175.879213 0
H  25 1.107375 24 109.701462 22 -0.081925 0
H  25 1.107439 24 108.915046 22 -120.123018 0
H  25 1.110566 24 106.831497 22 120.760657 0
C  17 1.589799 16 121.794817 14 -28.421035 0
H  29 1.110248 17 104.699331 16 -158.309504 0
H  29 1.113856 17 108.659628 16 -44.737625 0
O  29 1.466731 17 120.321202 16 85.263021 0
C  32 1.455138 29 118.597120 17 -85.263037 0
O  33 1.249232 32 117.899664 29 128.269573 0
C  33 1.574079 32 115.639047 29 -66.315956 0
H  35 1.116786 33 109.037866 32 97.431339 0
C  35 1.584985 33 115.494552 32 -28.421012 0
H  37 1.104480 35 111.823467 33 111.788669 0
C  37 1.570143 35 114.274865 33 -12.262096 0
O  39 1.248721 37 127.736827 35 -66.315947 0
O  39 1.439525 37 108.383469 35 118.285102 0
C  41 1.480142 39 109.559273 37 178.211318 0
H  42 1.105648 41 106.206753 39 179.141169 0
H  42 1.109211 41 111.670702 39 -61.626064 0
H  42 1.109378 41 111.608269 39 59.667945 0
C  37 1.586946 35 100.316335 33 -128.766289 0
H  46 1.107357 37 114.345592 35 161.676449 0
O  46 1.478429 37 102.145817 35 42.201955 0
C  48 1.479461 46 94.851351 37 -59.237519 0
H  49 1.103891 48 110.081397 46 177.456724 0
C  49 1.575533 48 103.148722 46 -57.789017 0
H  51 1.100772 49 111.772519 48 159.032651 0
H  51 1.101717 49 110.676266 48 -78.915482 0
C  51 1.573763 49 100.529396 48 39.024886 0
H  54 1.101520 51 111.846892 49 -122.598655 0
H  54 1.101753 51 112.408554 49 114.707737 0
$end

 
 --------------------------------------------------------------
 
                    Orbital Energies (a.u.)
 --------------------------------------------------------------
 
 Alpha MOs
 -- Occupied --
-18.925 -18.923 -18.919 -18.918 -18.916 -18.910 -18.896 -18.877
-18.870 -18.863 -10.118 -10.104 -10.098 -10.088 -10.084 -10.082
-10.080 -10.078 -10.059 -10.052 -10.050 -10.047 -10.045 -10.041
-10.037 -10.035 -10.029 -10.016 -10.012 -10.008  -1.020  -1.006
 -1.005  -0.998  -0.994  -0.961  -0.950  -0.937  -0.929  -0.925
 -0.778  -0.753  -0.736  -0.725  -0.716  -0.711  -0.694  -0.658
 -0.652  -0.623  -0.598  -0.587  -0.562  -0.554  -0.541  -0.531
 -0.520  -0.504  -0.481  -0.480  -0.474  -0.456  -0.455  -0.447
 -0.440  -0.432  -0.422  -0.417  -0.415  -0.405  -0.405  -0.400
 -0.397  -0.385  -0.378  -0.372  -0.361  -0.359  -0.357  -0.352
 -0.348  -0.344  -0.342  -0.339  -0.329  -0.326  -0.322  -0.318
 -0.317  -0.311  -0.305  -0.299  -0.296  -0.294  -0.284  -0.275
 -0.269  -0.258  -0.249  -0.246  -0.241  -0.228  -0.222  -0.178
 -0.173  -0.171  -0.170  -0.164  -0.158  -0.152  -0.151  -0.141
 -0.133
 -- Virtual --
  0.067   0.081   0.100   0.113   0.217   0.224   0.232   0.254
  0.257   0.264   0.269   0.289   0.295   0.309   0.311   0.316
  0.324   0.331   0.340   0.345   0.351   0.353   0.360   0.368
  0.373   0.378   0.387   0.389   0.391   0.396   0.403   0.413
  0.416   0.417   0.420   0.422   0.426   0.430   0.435   0.437
  0.441   0.442   0.444   0.445   0.452   0.462   0.463   0.466
  0.476   0.482   0.483   0.492   0.498   0.505   0.526   0.533
  0.547   0.560   0.568   0.622   0.627   0.644   0.662
 --------------------------------------------------------------
 
          Ground-State Mulliken Net Atomic Charges

     Atom                 Charge (a.u.)
  ----------------------------------------
      1 O                    -0.210963
      2 C                     0.207486
      3 C                    -0.082738
      4 C                    -0.101141
      5 C                     0.223416
      6 O                    -0.187926
      7 C                    -0.046967
      8 C                    -0.050787
      9 O                    -0.195895
     10 C                     0.215729
     11 C                    -0.080775
     12 C                    -0.081958
     13 C                     0.212364
     14 O                    -0.215994
     15 O                    -0.179519
     16 O                    -0.172943
     17 O                    -0.176605
     18 C                    -0.141968
     19 C                     0.025677
     20 C                    -0.142495
     21 C                    -0.143369
     22 C                     0.028729
     23 O                    -0.187000
     24 H                     0.090481
     25 H                     0.088188
     26 H                     0.080314
     27 H                     0.080622
     28 H                     0.078530
     29 H                     0.081121
     30 H                     0.078836
     31 H                     0.088801
     32 O                    -0.175007
     33 C                    -0.130904
     34 C                     0.026246
     35 C                    -0.144729
     36 C                    -0.144018
     37 C                     0.025847
     38 O                    -0.188874
     39 H                     0.078085
     40 H                     0.110677
     41 H                     0.089503
     42 H                     0.080353
     43 H                     0.074866
     44 H                     0.072189
     45 H                     0.072820
     46 H                     0.080244
     47 H                     0.088280
     48 H                     0.088292
     49 H                     0.084676
     50 H                     0.107865
     51 H                     0.098577
     52 H                     0.078791
     53 H                     0.087960
     54 H                     0.087788
     55 H                     0.095587
     56 H                     0.073634
  ----------------------------------------
  Sum of atomic charges =    -0.000000

 -----------------------------------------------------------------
                    Cartesian Multipole Moments
 -----------------------------------------------------------------
    Charge (ESU x 10^10)
                -0.0000
    Dipole Moment (Debye)
         X       2.0415      Y       2.1669      Z      -5.5528
       Tot       6.3006
    Quadrupole Moments (Debye-Ang)
        XX    -163.4316     XY      -7.5010     YY    -152.7111
        XZ      -1.6685     YZ      -1.6033     ZZ    -165.2298
    Octopole Moments (Debye-Ang^2)
       XXX       5.2837    XXY      51.1484    XYY      -8.1568
       YYY      36.2170    XXZ     -54.8942    XYZ      -5.5808
       YYZ       8.8581    XZZ      -2.2818    YZZ       0.4352
       ZZZ      28.7421
    Hexadecapole Moments (Debye-Ang^3)
      XXXX   -6192.9932   XXXY    -110.3563   XXYY   -1547.4671
      XYYY    -142.7256   YYYY   -3226.8612   XXXZ    -170.0657
      XXYZ      22.8161   XYYZ     -20.2038   YYYZ     -24.8430
      XXZZ   -1464.7972   XYZZ       2.8874   YYZZ    -895.2174
      XZZZ    -181.6081   YZZZ     -30.2507   ZZZZ   -2243.2710
 -----------------------------------------------------------------
Archival summary:
1\1\vega02.cac.cornell.edu\OPT\ProcedureUnspecified\STO-3G\102026\jj585\SunJan1423:53:462018SunJan1423:53:462018\0\\#,OPT,ProcedureUnspecified,STO-3G,\\0,1\O\C,1,1.4795\H,2,1.10655,1,110.593\C,1,1.48671,2,95.0685,3,-179.999,0\H,4,1.10711,1,110.155,2,179.812,0\C,2,1.57716,1,103.288,3,-123.399,0\H,6,1.1014,2,111.966,1,-155.28,0\H,6,1.10166,2,110.402,1,83.3278,0\C,6,1.57466,2,101.14,1,-34.8763,0\H,9,1.10162,6,111.476,2,117.108,0\H,9,1.10162,6,112.784,2,-120.217,0\C,2,1.58674,1,103.406,3,123.716,0\H,12,1.10567,2,109.116,1,151.274,0\C,12,1.57695,2,114.066,1,-91.1083,0\O,14,1.24768,12,127.736,2,106.926,0\O,14,1.43912,12,108.147,2,-81.0878,0\C,16,1.47794,14,117.219,12,123.158,0\H,17,1.11147,16,104.295,14,-147.839,0\H,17,1.11591,16,109.255,14,97.5525,0\C,12,1.58544,2,101.613,1,34.9159,0\H,20,1.10345,12,110.92,2,118.149,0\C,20,1.5699,12,116.589,2,-118.447,0\O,22,1.25232,20,125.437,12,-123.158,0\O,22,1.42698,20,109.421,12,66.9458,0\C,24,1.4835,22,110.226,20,-175.879,0\H,25,1.10737,24,109.701,22,-0.0819253,0\H,25,1.10744,24,108.915,22,-120.123,0\H,25,1.11057,24,106.831,22,120.761,0\C,17,1.5898,16,121.795,14,-28.421,0\H,29,1.11025,17,104.699,16,-158.31,0\H,29,1.11386,17,108.66,16,-44.7376,0\O,29,1.46673,17,120.321,16,85.263,0\C,32,1.45514,29,118.597,17,-85.263,0\O,33,1.24923,32,117.9,29,128.27,0\C,33,1.57408,32,115.639,29,-66.316,0\H,35,1.11679,33,109.038,32,97.4313,0\C,35,1.58499,33,115.495,32,-28.421,0\H,37,1.10448,35,111.823,33,111.789,0\C,37,1.57014,35,114.275,33,-12.2621,0\O,39,1.24872,37,127.737,35,-66.3159,0\O,39,1.43952,37,108.383,35,118.285,0\C,41,1.48014,39,109.559,37,178.211,0\H,42,1.10565,41,106.207,39,179.141,0\H,42,1.10921,41,111.671,39,-61.6261,0\H,42,1.10938,41,111.608,39,59.6679,0\C,37,1.58695,35,100.316,33,-128.766,0\H,46,1.10736,37,114.346,35,161.676,0\O,46,1.47843,37,102.146,35,42.202,0\C,48,1.47946,46,94.8514,37,-59.2375,0\H,49,1.10389,48,110.081,46,177.457,0\C,49,1.57553,48,103.149,46,-57.789,0\H,51,1.10077,49,111.773,48,159.033,0\H,51,1.10172,49,110.676,48,-78.9155,0\C,51,1.57376,49,100.529,48,39.0249,0\H,54,1.10152,51,111.847,49,-122.599,0\H,54,1.10175,51,112.409,49,114.708,0\\\@

 Total job time:  174.44s(wall), 8328.74s(cpu) 
 Sun Jan 14 23:53:46 2018

        *************************************************************
        *                                                           *
        *  Thank you very much for using Q-Chem.  Have a nice day.  *
        *                                                           *
        *************************************************************


0 sent ACK to 0 
now end server 0 ... 
