mFile = /opt/software/qchem/qchem-5.0.1//bin/mpi/machines
Process 0 of 1 is on vega02.cac.cornell.edu - thread support 0
initial socket setup ...start
initial socket setup ...done 
now start server 0 ... 
vega02.cac.cornell.edu 10.84.3
Q-Chem Developer Version! Running on 10.84.3.*
                  Welcome to Q-Chem
     A Quantum Leap Into The Future Of Chemistry


 Q-Chem 5.0, Q-Chem, Inc., Pleasanton, CA (2017)

 Yihan Shao,  Zhengting Gan,  E. Epifanovsky,  A. T. B. Gilbert,  M. Wormit,  
 J. Kussmann,  A. W. Lange,  A. Behn,  Jia Deng,  Xintian Feng,  D. Ghosh,  
 M. Goldey,  P. R. Horn,  L. D. Jacobson,  I. Kaliman,  T. Kus,  A. Landau,  
 Jie Liu,  E. I. Proynov,  R. M. Richard,  R. P. Steele,  E. J. Sundstrom,  
 H. L. Woodcock III,  P. M. Zimmerman,  D. Zuev,  B. Albrecht,  E. Alguire,  
 S. A. Baeppler,  Z. Benda,  Y. A. Bernard,  E. J. Berquist,  K. B. Bravaya,  
 D. Casanova,  Chun-Min Chang,  Yunqing Chen,  A. Chien,  K. D. Closser,  
 M. P. Coons,  S. Dasgupta,  M. Diedenhofen,  Hainam Do,  R. G. Edgar,  
 Po-Tung Fang,  S. Fatehi,  Qingguo Feng,  Qinghui Ge,  A. Ghysels,  
 J. Gomes,  J. Gonthier,  A. Gunina,  M. W. D. Hanson-Heine,  
 P. H. P. Harbach,  A. W. Hauser,  J. E. Herr,  E. G. Hohenstein,  
 Z. C. Holden,  Kerwin Hui,  T.-C. Jagau,  Hyunjun Ji,  B. Kaduk,  
 K. Khistyaev,  Jaehoon Kim,  P. Klunzinger,  K. Koh,  D. Kosenkov,  
 T. Kowalczyk,  C. M. Krauter,  A. Kunitsa,  Ka Un Lao,  A. Laurent,  
 K. V. Lawler,  Joonho Lee,  D. Lefrancois,  S. Lehtola,  D. S. Levine,  
 Yi-Pei Li,  You-Sheng Lin,  Fenglai Liu,  E. Livshits,  A. Luenser,  
 P. Manohar,  E. Mansoor,  S. F. Manzer,  Shan-Ping Mao,  Yuezhi Mao,  
 N. Mardirossian,  A. V. Marenich,  L. A. Martinez-Martinez,  S. A. Maurer,  
 N. J. Mayhall,  S. C. McKenzie,  J.-M. Mewes,  A. F. Morrison,  K. Nanda,  
 T. S. Nguyen-Beck,  R. Olivares-Amaya,  J. A. Parkhill,  T. M. Perrine,  
 F. Plasser,  S. Prager,  A. Prociuk,  D. R. Rehn,  F. Rob,  M. Schneider,  
 N. Sergueev,  S. M. Sharada,  S. Sharma,  D. W. Small,  T. Stauch,  
 T. Stein,  Yu-Chuan Su,  A. J. W. Thom,  T. Tsuchimochi,  L. Vogt,  
 O. Vydrov,  M. A. Watson,  J. Wenzel,  M. de Wergifosse,  T. A. Wesolowski,  
 A. White,  J. Witte,  A. Yamada,  Jun Yang,  K. Yao,  S. Yeganeh,  
 S. R. Yost,  Zhi-Qiang You,  A. Zech,  Igor Ying Zhang,  Xing Zhang,  
 Yan Zhao,  Ying Zhu,  B. R. Brooks,  G. K. L. Chan,  C. J. Cramer,  
 M. S. Gordon,  W. J. Hehre,  A. Klamt,  M. W. Schmidt,  C. D. Sherrill,  
 D. G. Truhlar,  A. Aspuru-Guzik,  R. Baer,  A. T. Bell,  N. A. Besley,  
 Jeng-Da Chai,  A. Dreuw,  B. D. Dunietz,  T. R. Furlani,  Chao-Ping Hsu,  
 Yousung Jung,  Jing Kong,  D. S. Lambrecht,  WanZhen Liang,  C. Ochsenfeld,  
 V. A. Rassolov,  L. V. Slipchenko,  J. E. Subotnik,  T. Van Voorhis,  
 J. M. Herbert,  A. I. Krylov,  P. M. W. Gill,  M. Head-Gordon

 Contributors to earlier versions of Q-Chem not listed above: 
 R. D. Adamson,  B. Austin,  J. Baker,  G. J. O. Beran,  K. Brandhorst,  
 S. T. Brown,  E. F. C. Byrd,  A. K. Chakraborty,  C.-L. Cheng,  
 Siu Hung Chien,  D. M. Chipman,  D. L. Crittenden,  H. Dachsel,  
 R. A. DiStasio Jr.,  R. J. Doerksen,  A. D. Dutoi,  L. Fusti-Molnar,  
 W. A. Goddard III,  A. Golubeva-Zadorozhnaya,  S. R. Gwaltney,  G. Hawkins,  
 A. Heyden,  S. Hirata,  G. Kedziora,  F. J. Keil,  C. Kelley,  Jihan Kim,  
 R. A. King,  R. Z. Khaliullin,  P. P. Korambath,  W. Kurlancheek,  
 A. M. Lee,  M. S. Lee,  S. V. Levchenko,  Ching Yeh Lin,  D. Liotard,  
 R. C. Lochan,  I. Lotan,  P. E. Maslen,  N. Nair,  D. P. O'Neill,  
 D. Neuhauser,  E. Neuscamman,  C. M. Oana,  R. Olson,  B. Peters,  
 R. Peverati,  P. A. Pieniazek,  Y. M. Rhee,  J. Ritchie,  M. A. Rohrdanz,  
 E. Rosta,  N. J. Russ,  H. F. Schaefer III,  N. E. Schultz,  N. Shenvi,  
 A. C. Simmonett,  A. Sodt,  D. Stuck,  K. S. Thanthiriwatte,  V. Vanovschi,  
 Tao Wang,  A. Warshel,  C. F. Williams,  Q. Wu,  X. Xu,  W. Zhang

 Please cite Q-Chem as follows:
 Y. Shao et al., Mol. Phys. 113, 184-215 (2015)
 DOI: 10.1080/00268976.2014.952696

 Q-Chem 5.0.1 for Intel X86 EM64T Linux

 Parts of Q-Chem use Armadillo 5.200.1 (Boston Tea Smuggler).
 http://arma.sourceforge.net/

 Q-Chem begins on Mon Jan 15 01:53:13 2018  

Host: vega02.cac.cornell.edu
0

     Scratch files written to /scratch/jj585/SOT1001/0620r.save//
 Parallel job on  1  processors

Checking the input file for inconsistencies... 	...done.

--------------------------------------------------------------
User input:
--------------------------------------------------------------
$molecule
0  1
O 2.9923871708 -2.2172041351 0.0388984471
C 3.9795188412 -1.5400956347 0.4039150264
C 4.8751519743 -0.6340123978 -0.515359319
C 4.2519817079 0.8197469842 -0.7089673304
C 2.9093739596 1.016565585 0.0695665134
O 1.8485498408 1.0849690136 -0.8931480771
C 0.5403478344 1.2720946092 -0.2187595984
C -0.4901027839 0.2428499593 -0.8161915929
O -1.8252003217 0.8723010703 -0.9346929102
C -2.7135078526 0.3611349153 0.0756616161
C -4.1229175848 1.0160543708 -0.1589408173
C -5.2695647239 0.0278974205 -0.6326069545
C -4.8654079579 -1.3875798478 -1.1767915372
O -5.6618315075 -2.2627802144 -1.5819307075
O 4.4380818815 -1.4579738984 1.7534090074
O -3.4455472239 -1.5116012021 -1.2695367558
O -2.3555611323 -0.3725564839 1.0211369907
C -3.070538791 -2.8410504552 -1.8007412446
C -4.7108835286 1.4601507074 1.2510737987
C -5.9918628539 2.3600850988 1.0307995063
C -7.0759663065 1.2738792943 0.6811131159
C -6.1913185593 -0.0322794912 0.6658945875
O -5.2498018026 0.1871493536 1.7853184025
H -4.0045854931 1.8577130196 -0.8630375981
H -5.8371497437 0.5033753804 -1.4547671587
H -3.9562018834 1.8773556502 1.9454783914
H -6.2446798344 2.9064202004 1.9530813052
H -5.8455074112 3.0890149601 0.2176586521
H -7.8449290583 1.2055649351 1.4674506599
H -7.5725720876 1.4571702668 -0.2849783721
H -6.7425234598 -0.9844623219 0.7927348525
O 2.7421097823 1.0865001247 1.30736001
C 3.5336989975 -2.2246546906 2.6414670256
C 6.2818275698 -0.2698959737 0.1191490599
C 7.2022409507 0.3266496869 -1.0188075274
C 6.5834841835 1.7634998293 -1.1918259833
C 5.4203107065 1.7227748278 -0.123680984
O 5.9819342382 0.9033811948 0.9724641917
H 4.9778952698 -1.1403386865 -1.4917726653
H 4.0617477529 1.0300356166 -1.7759395346
H 3.4656116807 -3.2890635918 2.3367536405
H 6.7364095162 -1.0797884868 0.7207998883
H 8.2488466927 0.3762066362 -0.67877579
H 7.1595133542 -0.2695244266 -1.9444243086
H 7.3114439843 2.5504881319 -0.9382129583
H 6.2060945091 1.9462964532 -2.2107029469
H 5.0910144809 2.7080059594 0.2593969086
H 2.5127235752 -1.7912433292 2.6466929884
H 3.9704617932 -2.1532482549 3.6543049068
H -1.9674329635 -2.8376988565 -1.8738078345
H -3.5131344929 -3.0166329337 -2.8024196399
H -3.3956502852 -3.655056803 -1.1212547578
H -0.1663792779 -0.0367823911 -1.8410062067
H -0.555545985 -0.6629230373 -0.1779124049
H 0.1807357938 2.3037622822 -0.4266726946
H 0.6759146089 1.1485304056 0.8769961677
$end

$rem
JOBTYPE                   OPT
METHOD                    B3LYP
DFT_D                     d3_op
BASIS                     STO-3G
GEOM_OPT_MAX_CYCLES       100
GEOM_OPT_TOL_GRADIENT     300
GEOM_OPT_TOL_DISPLACEMENT 1200
GEOM_OPT_TOL_ENERGY       100
SYMMETRY                  False
THRESH                    12
SCF_CONVERGENCE           8
MAX_SUB_FILE_NUM          128
MEM_STATIC                400
MEM_TOTAL                 4000
$end
--------------------------------------------------------------
 Adding empirical dispersion correction 
 ----------------------------------------------------------------
 Doing -D3(op) with
 s6 =   1.00000
 s8 =   0.78311
 a1 =   0.30000
 a2 =   4.25000
 n  =  10.00000
 -D3 energy without 3body term =     -0.0645628087 hartrees
 ----------------------------------------------------------------
             Standard Nuclear Orientation (Angstroms)
    I     Atom           X                Y                Z
 ----------------------------------------------------------------
    1      O       2.9514598406    -2.2080365334     0.4545550478
    2      C       3.9469249622    -1.4796524028     0.6658550928
    3      C       4.8425940142    -0.7915414623    -0.4261573367
    4      C       4.2297564708     0.5968243133    -0.9120711175
    5      C       2.8949987252     0.9630245765    -0.1828474198
    6      O       1.8271788707     0.8413462323    -1.1324796442
    7      C       0.5259214326     1.1762287888    -0.5033603778
    8      C      -0.5175638867     0.0557397211    -0.8690660677
    9      O      -1.8483933826     0.6599371474    -1.1069211112
   10      C      -2.7328040316     0.3769505355    -0.0074058736
   11      C      -4.1386527825     0.9828066127    -0.3636660192
   12      C      -5.2970132423    -0.0708121560    -0.6160585010
   13      C      -4.9087037757    -1.5719610620    -0.8585933826
   14      O      -5.7154019657    -2.5042731003    -1.0693923221
   15      O       4.4168085207    -1.1250595604     1.9664824045
   16      O      -3.4906774428    -1.7260755438    -0.9323329347
   17      O      -2.3733643173    -0.1491078412     1.0670327165
   18      C      -3.1307119210    -3.1400945501    -1.1797595364
   19      C      -4.7118073823     1.7140929737     0.9277598546
   20      C      -5.9871275928     2.5613989572     0.5341335908
   21      C      -7.0827645646     1.4368481790     0.4229171773
   22      C      -6.2089187653     0.1472683299     0.6724394103
   23      O      -5.2568168662     0.5840647844     1.7166727796
   24      H      -4.0190554824     1.6597712713    -1.2271238228
   25      H      -5.8672019871     0.2300825458    -1.5152395841
   26      H      -3.9482841034     2.2584286299     1.5164303773
   27      H      -6.2281838924     3.2887936501     1.3252031241
   28      H      -5.8412888506     3.1052850581    -0.4129016132
   29      H      -7.8460091260     1.5397493966     1.2110582670
   30      H      -7.5854946411     1.4214661315    -0.5571703231
   31      H      -6.7668293486    -0.7528728991     0.9965520252
   32      O       2.7381120676     1.2886333643     1.0148029378
   33      C       3.5132771067    -1.6831402427     2.9992126778
   34      C       6.2571633014    -0.3177701167     0.1109202444
   35      C       7.1733621749     0.0220968076    -1.1312724980
   36      C       6.5649632828     1.3981275157    -1.5935753567
   37      C       5.4099884817     1.5899918102    -0.5330160211
   38      O       5.9735874155     1.0092384087     0.7053065910
   39      H       4.9334832494    -1.4895287435    -1.2775435125
   40      H       4.0327995572     0.5840878152    -1.9982965577
   41      H       3.4341241144    -2.7868259875     2.9213344438
   42      H       6.7098906053    -0.9903040012     0.8641071473
   43      H       8.2229951638     0.1307527146    -0.8151624931
   44      H       7.1184611375    -0.7519138545    -1.9135186343
   45      H       7.3012851816     2.2135021923    -1.5123976228
   46      H       6.1810197837     1.3702189345    -2.6259301115
   47      H       5.0917597864     2.6362027620    -0.3597007003
   48      H       2.4959342512    -1.2482151371     2.9210001551
   49      H       3.9586098274    -1.4083349875     3.9727947401
   50      H      -2.0282282516    -3.1624848147    -1.2586319724
   51      H      -3.5826362225    -3.5144658630    -2.1208707496
   52      H      -3.4570451816    -3.7931018907    -0.3448381510
   53      H      -0.2042478362    -0.4325632496    -1.8159712444
   54      H      -0.5853182053    -0.6980520792    -0.0570838450
   55      H       0.1730785446     2.1461362901    -0.9176889891
   56      H       0.6691479565     1.2802844802     0.5934466871
 ----------------------------------------------------------------
 Molecular Point Group                 C1    NOp =  1
 Largest Abelian Subgroup              C1    NOp =  1
 Nuclear Repulsion Energy =  3010.3045807171 hartrees
 There are      113 alpha and      113 beta electrons
 Requested basis set is STO-3G
 There are 86 shells and 176 basis functions

 Total QAlloc Memory Limit   4000 MB
 Mega-Array Size       392 MB
 MEM_STATIC part       400 MB
 A cutoff of  1.0D-12 yielded   1978 shell pairs
 There are      9205 function pairs
 
 -------------------------------------------------------
 OpenMP Integral Computing Module                       
 Release: version 1.0, May 2013, Q-Chem Inc. Pittsburgh 
 -------------------------------------------------------
 Integral Job Info:
 Integral job number is                      11
 Integral operator is                         1
 short-range coefficients                     0
 long-range coefficients              100000000
 Omega coefficients                           0
 if combine SR and LR in K                    0
 Integral screening is                        0
 Integral computing path is                   2
 max size of driver memory is            800000
 size of driver memory is                 45569
 size of scratch memory is              1046100
 max col of scratch BK array                289
 max len of scratch array in speh3           22
 max len of scratch index in speh4            8
 max int batch size is                      520
 min int batch size is                       52
 fixed nKL is                                52
 max L of basis functions is                  1
 order of int derivative is                   0
 number of shells is                         86
 number of basis is                         176
 number of cartesian basis is               176
 number of contracted shell pairs          1978
 number of primitive shell pairs          10367
 maxK2 (contraction) of shell pair            9
 max number of K2 of shell pair               1
 max number of CS2 of shell pair            302
 max number of PS2 of shell pair           1176
 mem total for path MDJ                   49782
 -------------------------------------------------------
 Smallest overlap matrix eigenvalue = 2.13E-01

 Scale SEOQF with 1.000000e-02/1.000000e-01/1.000000e-01

 Standard Electronic Orientation quadrupole field applied
 Nucleus-field energy     =     0.0000000191 hartrees
 Guess from superposition of atomic densities
 Warning:  Energy on first SCF cycle will be non-variational
 A restricted hybrid HF-DFT SCF calculation will be
 performed using Pulay DIIS extrapolation
 Exchange:     0.2000 Hartree-Fock + 0.0800 Slater + 0.7200 B88
 Correlation:  0.1900 VWN1RPA + 0.8100 LYP
 Using SG-1 standard quadrature grid
 Dispersion:   Grimme D3
 SCF converges when DIIS error is below 1.0E-08
 using 48 threads for integral computing
 -------------------------------------------------------
 OpenMP Integral computing Module                
 Release: version 1.0, May 2013, Q-Chem Inc. Pittsburgh 
 -------------------------------------------------------
 -------------------------------------------------------
 OpenMP BLAS3 based DFT computing Module                
 Release: version 1.0, May 2013, Q-Chem Inc. Pittsburgh 
 -------------------------------------------------------
 ---------------------------------------
  Cycle       Energy         DIIS Error
 ---------------------------------------
    1   -1507.6251180561      7.46E-02
    2   -1509.7242517121      1.05E-02
    3   -1507.3094053265      2.74E-02
    4   -1510.1834756846      4.51E-03
    5   -1510.2664527718      1.48E-03
    6   -1510.2753818105      4.83E-04
    7   -1510.2762986355      1.66E-04
    8   -1510.2764153037      3.53E-05
    9   -1510.2764196790      1.78E-05
   10   -1510.2764209337      5.59E-06
   11   -1510.2764210666      1.55E-06
   12   -1510.2764210777      3.49E-07
   13   -1510.2764210781      2.28E-07
   14   -1510.2764210782      6.80E-08
   15   -1510.2764210782      1.43E-08
   16   -1510.2764210783      5.69E-09 Convergence criterion met
 ---------------------------------------
 SCF time:  CPU 116.34 s  wall 2.47 s
 SCF   energy in the final basis set = -1510.27642108
 Total energy in the final basis set = -1510.27642108
 
 --------------------------------------------------------------
 
                    Orbital Energies (a.u.)
 --------------------------------------------------------------
 
 Alpha MOs
 -- Occupied --
-18.943 -18.934 -18.933 -18.923 -18.888 -18.887 -18.877 -18.875
-18.869 -18.865 -10.103 -10.099 -10.096 -10.095 -10.068 -10.064
-10.062 -10.060 -10.060 -10.059 -10.059 -10.059 -10.039 -10.038
-10.037 -10.036 -10.021 -10.020 -10.020 -10.019  -1.017  -1.013
 -1.007  -1.001  -0.970  -0.969  -0.939  -0.937  -0.932  -0.928
 -0.764  -0.762  -0.726  -0.722  -0.711  -0.705  -0.693  -0.665
 -0.657  -0.617  -0.597  -0.578  -0.546  -0.544  -0.537  -0.536
 -0.512  -0.512  -0.483  -0.480  -0.467  -0.459  -0.449  -0.444
 -0.432  -0.431  -0.421  -0.414  -0.411  -0.409  -0.406  -0.395
 -0.391  -0.382  -0.377  -0.368  -0.359  -0.357  -0.350  -0.348
 -0.345  -0.342  -0.332  -0.331  -0.329  -0.326  -0.324  -0.314
 -0.308  -0.306  -0.305  -0.300  -0.295  -0.292  -0.281  -0.277
 -0.272  -0.252  -0.247  -0.244  -0.244  -0.234  -0.233  -0.183
 -0.177  -0.173  -0.164  -0.158  -0.156  -0.148  -0.148  -0.142
 -0.142
 -- Virtual --
  0.097   0.098   0.102   0.109   0.217   0.235   0.244   0.252
  0.256   0.280   0.282   0.288   0.305   0.315   0.325   0.327
  0.336   0.343   0.345   0.351   0.355   0.361   0.371   0.373
  0.376   0.381   0.383   0.395   0.397   0.407   0.409   0.409
  0.413   0.417   0.420   0.422   0.423   0.428   0.429   0.434
  0.435   0.437   0.439   0.443   0.444   0.451   0.454   0.456
  0.467   0.467   0.490   0.490   0.501   0.502   0.505   0.536
  0.541   0.552   0.552   0.634   0.642   0.651   0.658
 --------------------------------------------------------------
 
          Ground-State Mulliken Net Atomic Charges

     Atom                 Charge (a.u.)
  ----------------------------------------
      1 O                    -0.218788
      2 C                     0.205373
      3 C                    -0.078309
      4 C                    -0.078807
      5 C                     0.205981
      6 O                    -0.172732
      7 C                    -0.057841
      8 C                    -0.053784
      9 O                    -0.176535
     10 C                     0.219420
     11 C                    -0.079557
     12 C                    -0.079278
     13 C                     0.210802
     14 O                    -0.214729
     15 O                    -0.161544
     16 O                    -0.166752
     17 O                    -0.216333
     18 C                    -0.125699
     19 C                     0.026127
     20 C                    -0.145288
     21 C                    -0.142535
     22 C                     0.025627
     23 O                    -0.185412
     24 H                     0.085488
     25 H                     0.085371
     26 H                     0.084053
     27 H                     0.078396
     28 H                     0.073360
     29 H                     0.078538
     30 H                     0.073864
     31 H                     0.087273
     32 O                    -0.210262
     33 C                    -0.126817
     34 C                     0.026266
     35 C                    -0.144343
     36 C                    -0.143763
     37 C                     0.026138
     38 O                    -0.183258
     39 H                     0.084260
     40 H                     0.086570
     41 H                     0.087867
     42 H                     0.087988
     43 H                     0.077963
     44 H                     0.072954
     45 H                     0.077980
     46 H                     0.073273
     47 H                     0.084194
     48 H                     0.092273
     49 H                     0.092457
     50 H                     0.093895
     51 H                     0.091471
     52 H                     0.092770
     53 H                     0.088834
     54 H                     0.100169
     55 H                     0.084338
     56 H                     0.101036
  ----------------------------------------
  Sum of atomic charges =    -0.000000

 -----------------------------------------------------------------
                    Cartesian Multipole Moments
 -----------------------------------------------------------------
    Charge (ESU x 10^10)
                -0.0000
    Dipole Moment (Debye)
         X       0.6374      Y       0.6977      Z      -2.8464
       Tot       2.9992
    Quadrupole Moments (Debye-Ang)
        XX    -150.0404     XY     -13.6368     YY    -155.1138
        XZ      -3.6611     YZ      -3.8736     ZZ    -160.7248
    Octopole Moments (Debye-Ang^2)
       XXX      36.8028    XXY      37.6998    XYY       0.5347
       YYY     -11.0915    XXZ     -60.5569    XYZ     -15.9541
       YYZ       6.8608    XZZ      20.1750    YZZ     -21.1635
       ZZZ      17.1923
    Hexadecapole Moments (Debye-Ang^3)
      XXXX  -20335.6091   XXXY    -520.9752   XXYY   -3865.3808
      XYYY      65.2587   YYYY   -2133.6524   XXXZ    -244.8392
      XXYZ    -151.1907   XYYZ      -5.9268   YYYZ       6.7854
      XXZZ   -3747.5900   XYZZ     -28.5602   YYZZ    -565.9575
      XZZZ     165.2398   YZZZ      -9.5497   ZZZZ   -1330.1911
 -----------------------------------------------------------------
 Calculating analytic gradient of the SCF energy
 Gradient of SCF Energy
            1           2           3           4           5           6
    1   0.0002122  -0.0002243  -0.0000655   0.0000983   0.0002849  -0.0004571
    2  -0.0001553   0.0001944  -0.0004885   0.0005296   0.0004989  -0.0008691
    3   0.0000132  -0.0001557  -0.0000628   0.0002860  -0.0002868  -0.0005060
            7           8           9          10          11          12
    1   0.0008012  -0.0010053   0.0012941  -0.0008266   0.0006892  -0.0010704
    2  -0.0004551  -0.0005469   0.0033078  -0.0018558   0.0003139  -0.0007962
    3   0.0009452   0.0003556   0.0006602   0.0000766  -0.0060679   0.0042283
           13          14          15          16          17          18
    1   0.0000460  -0.0000323  -0.0000481   0.0000395  -0.0000547   0.0000359
    2  -0.0008345   0.0006957  -0.0000434   0.0000918   0.0000121  -0.0002087
    3   0.0042781  -0.0037509  -0.0000218   0.0000727  -0.0000087  -0.0001578
           19          20          21          22          23          24
    1  -0.0001014  -0.0002239   0.0003775   0.0002468   0.0001084   0.0000250
    2   0.0002097   0.0003311  -0.0004461   0.0005693  -0.0005216  -0.0001092
    3   0.0000558   0.0001636  -0.0001825  -0.0003023   0.0001137   0.0000269
           25          26          27          28          29          30
    1   0.0000986   0.0000447   0.0001194  -0.0000469  -0.0000592   0.0000240
    2  -0.0000084  -0.0000322   0.0001004  -0.0000192   0.0001606   0.0000104
    3  -0.0000270   0.0000942  -0.0000784   0.0000783   0.0000800   0.0000320
           31          32          33          34          35          36
    1  -0.0000533  -0.0001021  -0.0000299   0.0001104  -0.0002013   0.0001023
    2   0.0000168   0.0000005   0.0000454   0.0001265  -0.0000131  -0.0003025
    3   0.0000582   0.0001442   0.0000572  -0.0004375   0.0002276  -0.0001890
           37          38          39          40          41          42
    1  -0.0007849   0.0005838   0.0000299  -0.0000051   0.0000209   0.0001038
    2   0.0000067   0.0001322   0.0002286   0.0000588  -0.0000334   0.0000240
    3   0.0002694   0.0000170  -0.0000539  -0.0000103  -0.0000067  -0.0000359
           43          44          45          46          47          48
    1   0.0000145   0.0000733   0.0000092  -0.0000525  -0.0000750  -0.0000204
    2   0.0000308   0.0000406   0.0000099   0.0000764   0.0000048  -0.0000621
    3   0.0000301   0.0000046  -0.0000451  -0.0000215   0.0000401  -0.0000049
           49          50          51          52          53          54
    1  -0.0000120  -0.0000135  -0.0000649  -0.0000243  -0.0000558   0.0000560
    2  -0.0000062   0.0000072   0.0000993   0.0000430  -0.0001137   0.0000002
    3   0.0000093   0.0000051   0.0000641   0.0000442  -0.0000670  -0.0000247
           55          56
    1   0.0000197   0.0000409
    2  -0.0000094  -0.0000465
    3  -0.0000331   0.0000069
 Max gradient component =       6.068E-03
 RMS gradient           =       8.335E-04
 Gradient time:  CPU 29.81 s  wall 0.65 s
 Geometry Optimization Parameters
   NAtoms,    NIC,     NZ,  NCons,   NDum,   NFix, NCnnct, MaxDiis
       56     458       0       0       0       0       0       0


** GEOMETRY OPTIMIZATION IN DELOCALIZED INTERNAL COORDINATES **
   Searching for a Minimum

   Optimization Cycle:   1

                       Coordinates (Angstroms)
     ATOM                X               Y               Z
      1  O         2.9514598406   -2.2080365334    0.4545550478
      2  C         3.9469249622   -1.4796524028    0.6658550928
      3  C         4.8425940142   -0.7915414623   -0.4261573367
      4  C         4.2297564708    0.5968243133   -0.9120711175
      5  C         2.8949987252    0.9630245765   -0.1828474198
      6  O         1.8271788707    0.8413462323   -1.1324796442
      7  C         0.5259214326    1.1762287888   -0.5033603778
      8  C        -0.5175638867    0.0557397211   -0.8690660677
      9  O        -1.8483933826    0.6599371474   -1.1069211112
     10  C        -2.7328040316    0.3769505355   -0.0074058736
     11  C        -4.1386527825    0.9828066127   -0.3636660192
     12  C        -5.2970132423   -0.0708121560   -0.6160585010
     13  C        -4.9087037757   -1.5719610620   -0.8585933826
     14  O        -5.7154019657   -2.5042731003   -1.0693923221
     15  O         4.4168085207   -1.1250595604    1.9664824045
     16  O        -3.4906774428   -1.7260755438   -0.9323329347
     17  O        -2.3733643173   -0.1491078412    1.0670327165
     18  C        -3.1307119210   -3.1400945501   -1.1797595364
     19  C        -4.7118073823    1.7140929737    0.9277598546
     20  C        -5.9871275928    2.5613989572    0.5341335908
     21  C        -7.0827645646    1.4368481790    0.4229171773
     22  C        -6.2089187653    0.1472683299    0.6724394103
     23  O        -5.2568168662    0.5840647844    1.7166727796
     24  H        -4.0190554824    1.6597712713   -1.2271238228
     25  H        -5.8672019871    0.2300825458   -1.5152395841
     26  H        -3.9482841034    2.2584286299    1.5164303773
     27  H        -6.2281838924    3.2887936501    1.3252031241
     28  H        -5.8412888506    3.1052850581   -0.4129016132
     29  H        -7.8460091260    1.5397493966    1.2110582670
     30  H        -7.5854946411    1.4214661315   -0.5571703231
     31  H        -6.7668293486   -0.7528728991    0.9965520252
     32  O         2.7381120676    1.2886333643    1.0148029378
     33  C         3.5132771067   -1.6831402427    2.9992126778
     34  C         6.2571633014   -0.3177701167    0.1109202444
     35  C         7.1733621749    0.0220968076   -1.1312724980
     36  C         6.5649632828    1.3981275157   -1.5935753567
     37  C         5.4099884817    1.5899918102   -0.5330160211
     38  O         5.9735874155    1.0092384087    0.7053065910
     39  H         4.9334832494   -1.4895287435   -1.2775435125
     40  H         4.0327995572    0.5840878152   -1.9982965577
     41  H         3.4341241144   -2.7868259875    2.9213344438
     42  H         6.7098906053   -0.9903040012    0.8641071473
     43  H         8.2229951638    0.1307527146   -0.8151624931
     44  H         7.1184611375   -0.7519138545   -1.9135186343
     45  H         7.3012851816    2.2135021923   -1.5123976228
     46  H         6.1810197837    1.3702189345   -2.6259301115
     47  H         5.0917597864    2.6362027620   -0.3597007003
     48  H         2.4959342512   -1.2482151371    2.9210001551
     49  H         3.9586098274   -1.4083349875    3.9727947401
     50  H        -2.0282282516   -3.1624848147   -1.2586319724
     51  H        -3.5826362225   -3.5144658630   -2.1208707496
     52  H        -3.4570451816   -3.7931018907   -0.3448381510
     53  H        -0.2042478362   -0.4325632496   -1.8159712444
     54  H        -0.5853182053   -0.6980520792   -0.0570838450
     55  H         0.1730785446    2.1461362901   -0.9176889891
     56  H         0.6691479565    1.2802844802    0.5934466871
   Point Group: c1    Number of degrees of freedom:   162


   Energy is  -1510.276421078


 Attempting to Generate Delocalized Internal Coordinates

162 Hessian modes will be used to form the next step
  Hessian Eigenvalues:
     0.002000    0.002000    0.002000    0.002000    0.002000    0.002680
     0.002725    0.004137    0.004372    0.004420    0.004581    0.004698
     0.004886    0.004959    0.005070    0.006809    0.006844    0.010465
     0.011125    0.011904    0.011989    0.021614    0.021742    0.025578
     0.026089    0.030693    0.030951    0.035142    0.035690    0.038753
     0.041232    0.041538    0.042218    0.044225    0.046823    0.046945
     0.047913    0.049172    0.049677    0.050435    0.051337    0.053349
     0.054234    0.054276    0.055036    0.055042    0.056030    0.056325
     0.057019    0.058590    0.058944    0.060517    0.060621    0.063513
     0.063880    0.064143    0.064278    0.069570    0.069923    0.072899
     0.073126    0.091728    0.092287    0.092819    0.093521    0.095910
     0.096199    0.096854    0.097052    0.102795    0.102932    0.109857
     0.110615    0.111330    0.111359    0.122204    0.122230    0.135724
     0.136521    0.157453    0.158585    0.160000    0.160000    0.160000
     0.160000    0.160000    0.160000    0.163927    0.164097    0.219110
     0.220196    0.220291    0.220938    0.223982    0.227842    0.238341
     0.238636    0.239288    0.239544    0.243680    0.247088    0.248961
     0.249268    0.249947    0.249972    0.250000    0.250000    0.250000
     0.250000    0.250000    0.250000    0.250000    0.250000    0.252814
     0.253377    0.256921    0.258818    0.259359    0.260645    0.264597
     0.292857    0.293209    0.307165    0.307710    0.323730    0.324941
     0.325459    0.325996    0.326787    0.326878    0.326966    0.327001
     0.328656    0.328996    0.329026    0.329631    0.329813    0.330781
     0.331021    0.331704    0.332424    0.332767    0.334672    0.334812
     0.334842    0.334846    0.335022    0.335046    0.335089    0.335317
     0.341554    0.344171    0.344794    0.345756    0.397001    0.403958
     0.412372    0.413302    0.827012    0.828685    0.829562    0.835551

 Minimum Search - Taking Simple RFO Step
 Searching for Lamda that Minimizes Along All modes
 Value Taken    Lamda =  -0.00492889
 Calculated Step too Large.  Step scaled by  0.396989
 Step Taken.  Stepsize is  0.300000

                             Maximum     Tolerance    Cnvgd?
         Gradient           0.005089      0.000300      NO
         Displacement       0.108391      0.001200      NO
         Energy change     *********      0.000001      NO


 New Cartesian Coordinates Obtained by Inverse Iteration

 Displacement from previous Coordinates is:  2.705156
 Adding empirical dispersion correction 
 ----------------------------------------------------------------
 Doing -D3(op) with
 s6 =   1.00000
 s8 =   0.78311
 a1 =   0.30000
 a2 =   4.25000
 n  =  10.00000
 -D3 energy without 3body term =     -0.0650681745 hartrees
 ----------------------------------------------------------------
             Standard Nuclear Orientation (Angstroms)
    I     Atom           X                Y                Z
 ----------------------------------------------------------------
    1      O       2.7505647508    -2.0692834868     0.5039148798
    2      C       3.7897420887    -1.4006320988     0.7019299553
    3      C       4.7423757145    -0.8160605276    -0.4021015414
    4      C       4.2220704211     0.5840940672    -0.9570735292
    5      C       2.9013571029     1.0571629167    -0.2642723907
    6      O       1.8351884546     0.9311397889    -1.2151836689
    7      C       0.5358335205     1.2880757726    -0.5941276194
    8      C      -0.4998611570     0.1428574820    -0.9005382328
    9      O      -1.8484733470     0.7168744716    -1.1113134988
   10      C      -2.6893163250     0.4456011025     0.0247637549
   11      C      -4.1203766443     1.0114298198    -0.2950214556
   12      C      -5.2316857776    -0.0749380101    -0.6106229932
   13      C      -4.7757871912    -1.5415421199    -0.9334499369
   14      O      -5.5370810774    -2.5219963105    -1.0866159227
   15      O       4.2636944696    -1.0228571339     1.9945178748
   16      O      -3.3550218692    -1.6188700908    -1.0578492960
   17      O      -2.2943989922    -0.0928400478     1.0804595664
   18      C      -2.9282014268    -3.0093692955    -1.3307636982
   19      C      -4.7223054782     1.6451310577     1.0335507177
   20      C      -6.0362045505     2.4532491010     0.6872158650
   21      C      -7.0801702525     1.2878397787     0.5149688012
   22      C      -6.1469396057     0.0279428989     0.6906885495
   23      O      -5.2134369115     0.4495521063     1.7579942272
   24      H      -4.0315733224     1.7377390948    -1.1213649567
   25      H      -5.8208305846     0.2488470706    -1.4894235886
   26      H      -3.9828029177     2.1903313586     1.6512959286
   27      H      -6.3082340700     3.1239201711     1.5174175436
   28      H      -5.9180510485     3.0546512485    -0.2284305832
   29      H      -7.8442135631     1.3109903156     1.3086023973
   30      H      -7.5854307359     1.3040321490    -0.4638245546
   31      H      -6.6616476002    -0.9138047083     0.9640333410
   32      O       2.7462744445     1.4258256878     0.9210305875
   33      C       3.3102847213    -1.4755577165     3.0338674353
   34      C       6.1737731272    -0.4052184144     0.1413541572
   35      C       7.1292698434    -0.1749389922    -1.0966130169
   36      C       6.6135057202     1.2140825613    -1.6276580594
   37      C       5.4546954573     1.5202499046    -0.5988224667
   38      O       5.9605080901     0.9607278114     0.6736844153
   39      H       4.8038041112    -1.5549665814    -1.2210608386
   40      H       4.0401447062     0.5363849239    -2.0449407924
   41      H       3.1570811154    -2.5736240911     2.9992308525
   42      H       6.5720060174    -1.0704753520     0.9309030926
   43      H       8.1783014659    -0.1163119884    -0.7656767879
   44      H       7.0397970806    -0.9772194185    -1.8465510531
   45      H       7.3965407508     1.9865334937    -1.5663284909
   46      H       6.2461334334     1.1647740960    -2.6652064222
   47      H       5.1980167596     2.5902012659    -0.4757665764
   48      H       2.3261953403    -0.9763557529     2.9214904213
   49      H       3.7600405790    -1.1914665490     4.0027320494
   50      H      -1.8293922257    -2.9713894718    -1.4464670841
   51      H      -3.3905115666    -3.4004458102    -2.2600118650
   52      H      -3.1904267962    -3.6857824889    -0.4919088490
   53      H      -0.2052196571    -0.3677730829    -1.8415735778
   54      H      -0.5323436817    -0.5880654406    -0.0657729410
   55      H       0.1727485987     2.2383195813    -1.0436786927
   56      H       0.6881312685     1.4364167340     0.4963406131
 ----------------------------------------------------------------
 Molecular Point Group                 C1    NOp =  1
 Largest Abelian Subgroup              C1    NOp =  1
 Nuclear Repulsion Energy =  3024.7764583031 hartrees
 There are      113 alpha and      113 beta electrons
 Applying Cartesian multipole field
    Component          Value
    ---------          -----
     (2,0,0)        1.00000E-12
     (0,2,0)        2.00000E-11
     (0,0,2)       -3.00000E-11
 Nucleus-field energy     =     0.0000000146 hartrees
 Requested basis set is STO-3G
 There are 86 shells and 176 basis functions
 A cutoff of  1.0D-12 yielded   1994 shell pairs
 There are      9278 function pairs
 Smallest overlap matrix eigenvalue = 2.13E-01
 Guess MOs from SCF MO coefficient file
 Reading MOs from coefficient file
 Reading MOs from coefficient file
 A restricted hybrid HF-DFT SCF calculation will be
 performed using Pulay DIIS extrapolation
 Exchange:     0.2000 Hartree-Fock + 0.0800 Slater + 0.7200 B88
 Correlation:  0.1900 VWN1RPA + 0.8100 LYP
 Using SG-1 standard quadrature grid
 Dispersion:   Grimme D3
 SCF converges when DIIS error is below 1.0E-08
 Geometry optimization detected.  Setting ReadMinima to 0
 Setting SaveMinima to 0
 using 48 threads for integral computing
 -------------------------------------------------------
 OpenMP Integral computing Module                
 Release: version 1.0, May 2013, Q-Chem Inc. Pittsburgh 
 -------------------------------------------------------
 -------------------------------------------------------
 OpenMP BLAS3 based DFT computing Module                
 Release: version 1.0, May 2013, Q-Chem Inc. Pittsburgh 
 -------------------------------------------------------
 ---------------------------------------
  Cycle       Energy         DIIS Error
 ---------------------------------------
    1   -1510.2188229893      3.48E-03
    2   -1510.2770800781      2.70E-04
    3   -1510.2771497130      3.44E-04
    4   -1510.2775795118      1.42E-04
    5   -1510.2776541928      5.51E-05
    6   -1510.2776678749      1.45E-05
    7   -1510.2776687927      5.71E-06
    8   -1510.2776689213      2.09E-06
    9   -1510.2776689425      4.66E-07
   10   -1510.2776689436      2.51E-07
   11   -1510.2776689439      1.43E-07
   12   -1510.2776689439      3.04E-08
   13   -1510.2776689439      1.05E-08
   14   -1510.2776689439      3.66E-09 Convergence criterion met
 ---------------------------------------
 SCF time:  CPU 98.38 s  wall 2.06 s
 SCF   energy in the final basis set = -1510.27766894
 Total energy in the final basis set = -1510.27766894
 
 --------------------------------------------------------------
 
                    Orbital Energies (a.u.)
 --------------------------------------------------------------
 
 Alpha MOs
 -- Occupied --
-18.943 -18.934 -18.933 -18.923 -18.888 -18.887 -18.877 -18.875
-18.869 -18.866 -10.103 -10.099 -10.096 -10.095 -10.068 -10.063
-10.062 -10.060 -10.060 -10.059 -10.059 -10.059 -10.040 -10.039
-10.037 -10.036 -10.020 -10.020 -10.019 -10.019  -1.017  -1.013
 -1.007  -1.001  -0.970  -0.969  -0.939  -0.937  -0.932  -0.928
 -0.764  -0.762  -0.726  -0.722  -0.711  -0.705  -0.693  -0.664
 -0.656  -0.617  -0.597  -0.577  -0.546  -0.544  -0.537  -0.536
 -0.512  -0.511  -0.483  -0.480  -0.466  -0.459  -0.449  -0.444
 -0.432  -0.431  -0.421  -0.413  -0.411  -0.409  -0.406  -0.395
 -0.391  -0.383  -0.376  -0.368  -0.359  -0.357  -0.350  -0.348
 -0.345  -0.342  -0.332  -0.331  -0.329  -0.326  -0.324  -0.313
 -0.308  -0.306  -0.305  -0.300  -0.294  -0.291  -0.281  -0.277
 -0.271  -0.252  -0.247  -0.244  -0.242  -0.233  -0.233  -0.183
 -0.177  -0.173  -0.163  -0.158  -0.157  -0.148  -0.148  -0.142
 -0.142
 -- Virtual --
  0.096   0.098   0.102   0.109   0.217   0.235   0.245   0.252
  0.256   0.280   0.284   0.288   0.305   0.315   0.325   0.328
  0.336   0.344   0.345   0.351   0.356   0.361   0.371   0.373
  0.377   0.381   0.383   0.396   0.398   0.407   0.409   0.410
  0.413   0.418   0.420   0.422   0.423   0.427   0.429   0.434
  0.435   0.437   0.439   0.443   0.445   0.451   0.454   0.458
  0.467   0.467   0.490   0.491   0.501   0.502   0.506   0.536
  0.541   0.552   0.552   0.635   0.642   0.651   0.657
 --------------------------------------------------------------
 
          Ground-State Mulliken Net Atomic Charges

     Atom                 Charge (a.u.)
  ----------------------------------------
      1 O                    -0.219051
      2 C                     0.205303
      3 C                    -0.078244
      4 C                    -0.078732
      5 C                     0.206155
      6 O                    -0.172656
      7 C                    -0.058051
      8 C                    -0.054128
      9 O                    -0.175478
     10 C                     0.219203
     11 C                    -0.079302
     12 C                    -0.079235
     13 C                     0.210652
     14 O                    -0.214681
     15 O                    -0.161524
     16 O                    -0.166871
     17 O                    -0.216211
     18 C                    -0.125817
     19 C                     0.026030
     20 C                    -0.145281
     21 C                    -0.142566
     22 C                     0.025537
     23 O                    -0.185639
     24 H                     0.085301
     25 H                     0.085140
     26 H                     0.084372
     27 H                     0.078336
     28 H                     0.073263
     29 H                     0.078575
     30 H                     0.073692
     31 H                     0.087850
     32 O                    -0.210279
     33 C                    -0.126842
     34 C                     0.026290
     35 C                    -0.144320
     36 C                    -0.143831
     37 C                     0.026094
     38 O                    -0.183334
     39 H                     0.084250
     40 H                     0.086484
     41 H                     0.087979
     42 H                     0.088116
     43 H                     0.077943
     44 H                     0.072907
     45 H                     0.077998
     46 H                     0.073273
     47 H                     0.084155
     48 H                     0.092536
     49 H                     0.092413
     50 H                     0.093962
     51 H                     0.091231
     52 H                     0.092935
     53 H                     0.088246
     54 H                     0.100947
     55 H                     0.084282
     56 H                     0.100622
  ----------------------------------------
  Sum of atomic charges =    -0.000000

 -----------------------------------------------------------------
                    Cartesian Multipole Moments
 -----------------------------------------------------------------
    Charge (ESU x 10^10)
                -0.0000
    Dipole Moment (Debye)
         X       0.5984      Y       0.6768      Z      -2.8163
       Tot       2.9576
    Quadrupole Moments (Debye-Ang)
        XX    -149.4340     XY     -14.6296     YY    -155.8245
        XZ      -3.8832     YZ      -3.1093     ZZ    -160.2241
    Octopole Moments (Debye-Ang^2)
       XXX      23.1506    XXY      34.2725    XYY       2.7429
       YYY     -13.2728    XXZ     -59.7429    XYZ     -16.4203
       YYZ       5.7564    XZZ      19.4490    YZZ     -21.2231
       ZZZ      20.1644
    Hexadecapole Moments (Debye-Ang^3)
      XXXX  -19850.0349   XXXY    -504.2931   XXYY   -3779.9350
      XYYY      48.0820   YYYY   -2009.9694   XXXZ    -172.3142
      XXYZ    -143.4716   XYYZ       9.7763   YYYZ     -22.6003
      XXZZ   -3684.1325   XYZZ     -25.4110   YYZZ    -556.6948
      XZZZ     232.6097   YZZZ     -29.5689   ZZZZ   -1402.2829
 -----------------------------------------------------------------
 Calculating analytic gradient of the SCF energy
 Gradient of SCF Energy
            1           2           3           4           5           6
    1   0.0001799   0.0001056   0.0002744  -0.0004014   0.0007064  -0.0004291
    2   0.0000566  -0.0000889  -0.0001484  -0.0013341   0.0037557  -0.0012895
    3   0.0000800  -0.0003556  -0.0001010   0.0005144  -0.0009868  -0.0001841
            7           8           9          10          11          12
    1   0.0007667  -0.0009188   0.0000462   0.0000844   0.0000135  -0.0005819
    2  -0.0005076  -0.0004607   0.0003656   0.0025274  -0.0011542  -0.0007937
    3   0.0006574   0.0004409  -0.0005888   0.0029247  -0.0049586   0.0048871
           13          14          15          16          17          18
    1   0.0002820  -0.0002011   0.0000122   0.0004619   0.0000745   0.0001859
    2   0.0014320  -0.0000508   0.0001873  -0.0003125  -0.0012388  -0.0001483
    3  -0.0036198  -0.0006153   0.0000427   0.0013559  -0.0006544   0.0000114
           19          20          21          22          23          24
    1   0.0001498  -0.0001416   0.0001276  -0.0001900   0.0003257  -0.0001115
    2   0.0001089   0.0002915  -0.0000760   0.0008491   0.0001430  -0.0003681
    3   0.0002052   0.0000315   0.0001468   0.0000906   0.0001620  -0.0001782
           25          26          27          28          29          30
    1  -0.0003391  -0.0000001  -0.0000050   0.0000402   0.0001085  -0.0000224
    2  -0.0006939   0.0000086  -0.0000536  -0.0001713   0.0000085  -0.0000408
    3  -0.0000378   0.0000979  -0.0000149   0.0000048  -0.0000273  -0.0000045
           31          32          33          34          35          36
    1  -0.0000840  -0.0003212   0.0000062   0.0000902  -0.0001304  -0.0003274
    2   0.0001221  -0.0011636   0.0000159  -0.0004272   0.0004054  -0.0002022
    3   0.0001145   0.0002206   0.0000358   0.0001511  -0.0000438   0.0000114
           37          38          39          40          41          42
    1  -0.0003066   0.0003573  -0.0001265  -0.0000128   0.0000040   0.0001107
    2   0.0002158   0.0001440   0.0000804   0.0000024  -0.0000265   0.0000103
    3  -0.0000219   0.0000480   0.0000665   0.0000494  -0.0000029  -0.0000872
           43          44          45          46          47          48
    1  -0.0000231   0.0002194  -0.0000891  -0.0000312  -0.0000122   0.0000030
    2  -0.0000002  -0.0000472  -0.0000067   0.0000467   0.0000179  -0.0000514
    3   0.0000228  -0.0001337   0.0000286  -0.0000282   0.0000346  -0.0000174
           49          50          51          52          53          54
    1  -0.0000086   0.0000044  -0.0001285   0.0000512   0.0002898  -0.0000223
    2   0.0000058  -0.0000492   0.0001010   0.0000329  -0.0002812   0.0002937
    3   0.0000004  -0.0000128   0.0000137  -0.0000480   0.0000559  -0.0000250
           55          56
    1  -0.0002724   0.0001569
    2   0.0002565  -0.0002982
    3   0.0003133  -0.0000718
 Max gradient component =       4.959E-03
 RMS gradient           =       8.227E-04
 Gradient time:  CPU 30.89 s  wall 0.67 s
 Geometry Optimization Parameters
   NAtoms,    NIC,     NZ,  NCons,   NDum,   NFix, NCnnct, MaxDiis
       56     458       0       0       0       0       0       0

 Cartesian Hessian Update
 Hessian Updated using BFGS Update


** GEOMETRY OPTIMIZATION IN DELOCALIZED INTERNAL COORDINATES **
   Searching for a Minimum

   Optimization Cycle:   2

                       Coordinates (Angstroms)
     ATOM                X               Y               Z
      1  O         2.7505647508   -2.0692834868    0.5039148798
      2  C         3.7897420887   -1.4006320988    0.7019299553
      3  C         4.7423757145   -0.8160605276   -0.4021015414
      4  C         4.2220704211    0.5840940672   -0.9570735292
      5  C         2.9013571029    1.0571629167   -0.2642723907
      6  O         1.8351884546    0.9311397889   -1.2151836689
      7  C         0.5358335205    1.2880757726   -0.5941276194
      8  C        -0.4998611570    0.1428574820   -0.9005382328
      9  O        -1.8484733470    0.7168744716   -1.1113134988
     10  C        -2.6893163250    0.4456011025    0.0247637549
     11  C        -4.1203766443    1.0114298198   -0.2950214556
     12  C        -5.2316857776   -0.0749380101   -0.6106229932
     13  C        -4.7757871912   -1.5415421199   -0.9334499369
     14  O        -5.5370810774   -2.5219963105   -1.0866159227
     15  O         4.2636944696   -1.0228571339    1.9945178748
     16  O        -3.3550218692   -1.6188700908   -1.0578492960
     17  O        -2.2943989922   -0.0928400478    1.0804595664
     18  C        -2.9282014268   -3.0093692955   -1.3307636982
     19  C        -4.7223054782    1.6451310577    1.0335507177
     20  C        -6.0362045505    2.4532491010    0.6872158650
     21  C        -7.0801702525    1.2878397787    0.5149688012
     22  C        -6.1469396057    0.0279428989    0.6906885495
     23  O        -5.2134369115    0.4495521063    1.7579942272
     24  H        -4.0315733224    1.7377390948   -1.1213649567
     25  H        -5.8208305846    0.2488470706   -1.4894235886
     26  H        -3.9828029177    2.1903313586    1.6512959286
     27  H        -6.3082340700    3.1239201711    1.5174175436
     28  H        -5.9180510485    3.0546512485   -0.2284305832
     29  H        -7.8442135631    1.3109903156    1.3086023973
     30  H        -7.5854307359    1.3040321490   -0.4638245546
     31  H        -6.6616476002   -0.9138047083    0.9640333410
     32  O         2.7462744445    1.4258256878    0.9210305875
     33  C         3.3102847213   -1.4755577165    3.0338674353
     34  C         6.1737731272   -0.4052184144    0.1413541572
     35  C         7.1292698434   -0.1749389922   -1.0966130169
     36  C         6.6135057202    1.2140825613   -1.6276580594
     37  C         5.4546954573    1.5202499046   -0.5988224667
     38  O         5.9605080901    0.9607278114    0.6736844153
     39  H         4.8038041112   -1.5549665814   -1.2210608386
     40  H         4.0401447062    0.5363849239   -2.0449407924
     41  H         3.1570811154   -2.5736240911    2.9992308525
     42  H         6.5720060174   -1.0704753520    0.9309030926
     43  H         8.1783014659   -0.1163119884   -0.7656767879
     44  H         7.0397970806   -0.9772194185   -1.8465510531
     45  H         7.3965407508    1.9865334937   -1.5663284909
     46  H         6.2461334334    1.1647740960   -2.6652064222
     47  H         5.1980167596    2.5902012659   -0.4757665764
     48  H         2.3261953403   -0.9763557529    2.9214904213
     49  H         3.7600405790   -1.1914665490    4.0027320494
     50  H        -1.8293922257   -2.9713894718   -1.4464670841
     51  H        -3.3905115666   -3.4004458102   -2.2600118650
     52  H        -3.1904267962   -3.6857824889   -0.4919088490
     53  H        -0.2052196571   -0.3677730829   -1.8415735778
     54  H        -0.5323436817   -0.5880654406   -0.0657729410
     55  H         0.1727485987    2.2383195813   -1.0436786927
     56  H         0.6881312685    1.4364167340    0.4963406131
   Point Group: c1    Number of degrees of freedom:   162


   Energy is  -1510.277668944

 Hessian Updated using BFGS Update

149 Hessian modes will be used to form the next step
  Hessian Eigenvalues:
     0.001547    0.002334    0.002681    0.002829    0.004087    0.004220
     0.004420    0.004517    0.004886    0.004957    0.005069    0.006679
     0.006833    0.009490    0.010366    0.011888    0.011986    0.021397
     0.021727    0.022150    0.025664    0.026016    0.030951    0.031323
     0.035650    0.035965    0.037793    0.041213    0.041538    0.042268
     0.042702    0.046686    0.046936    0.047847    0.048214    0.049369
     0.050495    0.051355    0.053334    0.054274    0.054596    0.055012
     0.055074    0.056084    0.056371    0.056961    0.058597    0.059035
     0.060611    0.061775    0.063508    0.063882    0.064145    0.064276
     0.069538    0.069928    0.072898    0.073190    0.091673    0.092447
     0.092829    0.095257    0.095882    0.096432    0.096855    0.097048
     0.102794    0.102936    0.109826    0.110613    0.111357    0.113778
     0.122067    0.126299    0.135753    0.136428    0.157638    0.159614
     0.159983    0.160211    0.163823    0.164202    0.217478    0.220242
     0.220572    0.222927    0.224095    0.227922    0.238223    0.238628
     0.239511    0.239656    0.244236    0.247089    0.247944    0.249276
     0.249516    0.249948    0.249974    0.250917    0.252821    0.253381
     0.256933    0.258890    0.259553    0.260689    0.264674    0.293193
     0.293922    0.307166    0.307811    0.323764    0.324949    0.325460
     0.326035    0.326787    0.326878    0.326969    0.327012    0.328660
     0.328995    0.329025    0.329632    0.329815    0.330781    0.331021
     0.331700    0.332428    0.332766    0.334703    0.334833    0.334842
     0.334846    0.335027    0.335050    0.335090    0.335318    0.341570
     0.344169    0.344881    0.345757    0.397109    0.403971    0.412622
     0.413312    0.827019    0.828723    0.829564    0.835552

 Minimum Search - Taking Simple RFO Step
 Searching for Lamda that Minimizes Along All modes
 Value Taken    Lamda =  -0.00350691
 Calculated Step too Large.  Step scaled by  0.400795
 Step Taken.  Stepsize is  0.300000

                             Maximum     Tolerance    Cnvgd?
         Gradient           0.003786      0.000300      NO
         Displacement       0.082999      0.001200      NO
         Energy change     -0.001248      0.000001      NO


 New Cartesian Coordinates Obtained by Inverse Iteration

 Displacement from previous Coordinates is:  2.756701
 Adding empirical dispersion correction 
 ----------------------------------------------------------------
 Doing -D3(op) with
 s6 =   1.00000
 s8 =   0.78311
 a1 =   0.30000
 a2 =   4.25000
 n  =  10.00000
 -D3 energy without 3body term =     -0.0654752522 hartrees
 ----------------------------------------------------------------
             Standard Nuclear Orientation (Angstroms)
    I     Atom           X                Y                Z
 ----------------------------------------------------------------
    1      O       2.5108917111    -1.9099065642     0.4105921841
    2      C       3.5837648414    -1.3126844465     0.6527433681
    3      C       4.6238782975    -0.8041546527    -0.4096003798
    4      C       4.2203999720     0.6188626689    -1.0016945432
    5      C       2.9036435762     1.1755481538    -0.3656496417
    6      O       1.8605466855     1.0715589677    -1.3442886689
    7      C       0.5502266236     1.4317578028    -0.7486024850
    8      C      -0.4519223950     0.2447274812    -1.0023943761
    9      O      -1.8303769064     0.7580321988    -1.1707757261
   10      C      -2.6135517776     0.4635152670     0.0005081902
   11      C      -4.0714252602     0.9928541441    -0.2523044536
   12      C      -5.1573328767    -0.1227832007    -0.5566990515
   13      C      -4.6651846778    -1.5761474844    -0.8866672011
   14      O      -5.3915596529    -2.5919470001    -0.9546447485
   15      O       4.0239752905    -0.9583258716     1.9636868757
   16      O      -3.2589066130    -1.5939128519    -1.1342943041
   17      O      -2.1528215037    -0.0409344497     1.0462819794
   18      C      -2.7928182842    -2.9707858077    -1.4115228925
   19      C      -4.6490965899     1.5867393463     1.1042613667
   20      C      -5.9927094419     2.3655659165     0.8093691393
   21      C      -7.0098346140     1.1761056141     0.6399244125
   22      C      -6.0397138205    -0.0616868890     0.7699916520
   23      O      -5.0895103991     0.3665835978     1.8197199434
   24      H      -4.0321349913     1.7342329394    -1.0692006843
   25      H      -5.7805690198     0.1883703521    -1.4163403119
   26      H      -3.9063248023     2.1403895793     1.7103426042
   27      H      -6.2603400119     3.0117273258     1.6602402820
   28      H      -5.9150764840     2.9885620353    -0.0962236476
   29      H      -7.7545691123     1.1641348246     1.4519866433
   30      H      -7.5392594090     1.1967066169    -0.3259232519
   31      H      -6.5220437027    -1.0209975980     1.0413776251
   32      O       2.7312818237     1.5842022454     0.8040521366
   33      C       2.9937153498    -1.3316863418     2.9602386721
   34      C       6.0501395690    -0.4780135997     0.1994159833
   35      C       7.0768888076    -0.3295835253    -0.9930182532
   36      C       6.6795100542     1.0820693208    -1.5650681132
   37      C       5.4946553173     1.4784472921    -0.5980431236
   38      O       5.9001500936     0.9065793231     0.7043364730
   39      H       4.6767244265    -1.5560570186    -1.2174229721
   40      H       4.0811016875     0.5682492633    -2.0957415132
   41      H       2.7610496591    -2.4155865509     2.9230298448
   42      H       6.3647327434    -1.1557500759     1.0156729887
   43      H       8.1106601590    -0.3349436107    -0.6126193634
   44      H       6.9693990471    -1.1355604136    -1.7365147944
   45      H       7.5078726524     1.8027343258    -1.4748516087
   46      H       6.3601635949     1.0406718262    -2.6186969009
   47      H       5.3033773529     2.5645358836    -0.5001575900
   48      H       2.0556031469    -0.7616346460     2.8012350930
   49      H       3.4192573243    -1.0745603749     3.9473942704
   50      H      -1.7104308060    -2.8869178628    -1.6203733711
   51      H      -3.3117842418    -3.4065567952    -2.2895883107
   52      H      -2.9523678570    -3.6361280608    -0.5386347651
   53      H      -0.1686077881    -0.2735524018    -1.9425415174
   54      H      -0.4294863876    -0.4701027500    -0.1532685292
   55      H       0.1669437246     2.3546191003    -1.2364721723
   56      H       0.6973466734     1.6260102822     0.3354095835
 ----------------------------------------------------------------
 Molecular Point Group                 C1    NOp =  1
 Largest Abelian Subgroup              C1    NOp =  1
 Nuclear Repulsion Energy =  3042.3228838336 hartrees
 There are      113 alpha and      113 beta electrons
 Applying Cartesian multipole field
    Component          Value
    ---------          -----
     (2,0,0)        1.00000E-12
     (0,2,0)        2.00000E-11
     (0,0,2)       -3.00000E-11
 Nucleus-field energy     =     0.0000000131 hartrees
 Requested basis set is STO-3G
 There are 86 shells and 176 basis functions
 A cutoff of  1.0D-12 yielded   2019 shell pairs
 There are      9405 function pairs
 Smallest overlap matrix eigenvalue = 2.13E-01
 Guess MOs from SCF MO coefficient file
 Reading MOs from coefficient file
 Reading MOs from coefficient file
 A restricted hybrid HF-DFT SCF calculation will be
 performed using Pulay DIIS extrapolation
 Exchange:     0.2000 Hartree-Fock + 0.0800 Slater + 0.7200 B88
 Correlation:  0.1900 VWN1RPA + 0.8100 LYP
 Using SG-1 standard quadrature grid
 Dispersion:   Grimme D3
 SCF converges when DIIS error is below 1.0E-08
 Geometry optimization detected.  Setting ReadMinima to 0
 Setting SaveMinima to 0
 using 48 threads for integral computing
 -------------------------------------------------------
 OpenMP Integral computing Module                
 Release: version 1.0, May 2013, Q-Chem Inc. Pittsburgh 
 -------------------------------------------------------
 -------------------------------------------------------
 OpenMP BLAS3 based DFT computing Module                
 Release: version 1.0, May 2013, Q-Chem Inc. Pittsburgh 
 -------------------------------------------------------
 ---------------------------------------
  Cycle       Energy         DIIS Error
 ---------------------------------------
    1   -1510.2153514326      3.76E-03
    2   -1510.2780767534      2.83E-04
    3   -1510.2781725125      3.60E-04
    4   -1510.2786426331      1.52E-04
    5   -1510.2787325029      5.64E-05
    6   -1510.2787464451      1.72E-05
    7   -1510.2787475767      8.49E-06
    8   -1510.2787478843      2.02E-06
    9   -1510.2787479047      4.89E-07
   10   -1510.2787479057      3.63E-07
   11   -1510.2787479062      1.53E-07
   12   -1510.2787479063      2.97E-08
   13   -1510.2787479063      1.07E-08
   14   -1510.2787479063      2.95E-09 Convergence criterion met
 ---------------------------------------
 SCF time:  CPU 95.29 s  wall 1.99 s
 SCF   energy in the final basis set = -1510.27874791
 Total energy in the final basis set = -1510.27874791
 
 --------------------------------------------------------------
 
                    Orbital Energies (a.u.)
 --------------------------------------------------------------
 
 Alpha MOs
 -- Occupied --
-18.943 -18.934 -18.933 -18.922 -18.887 -18.887 -18.877 -18.875
-18.869 -18.866 -10.103 -10.100 -10.096 -10.095 -10.068 -10.062
-10.060 -10.060 -10.059 -10.059 -10.059 -10.059 -10.039 -10.039
-10.037 -10.036 -10.020 -10.020 -10.019 -10.019  -1.017  -1.014
 -1.007  -1.001  -0.970  -0.969  -0.939  -0.937  -0.932  -0.928
 -0.764  -0.762  -0.726  -0.722  -0.710  -0.705  -0.692  -0.664
 -0.656  -0.616  -0.597  -0.577  -0.546  -0.543  -0.537  -0.536
 -0.511  -0.511  -0.482  -0.480  -0.466  -0.458  -0.449  -0.444
 -0.432  -0.431  -0.421  -0.413  -0.411  -0.409  -0.406  -0.394
 -0.391  -0.383  -0.375  -0.368  -0.359  -0.357  -0.350  -0.348
 -0.345  -0.342  -0.332  -0.331  -0.329  -0.326  -0.324  -0.313
 -0.308  -0.305  -0.305  -0.300  -0.293  -0.291  -0.281  -0.277
 -0.271  -0.252  -0.247  -0.245  -0.242  -0.233  -0.233  -0.183
 -0.178  -0.174  -0.163  -0.159  -0.157  -0.148  -0.148  -0.142
 -0.142
 -- Virtual --
  0.096   0.098   0.101   0.110   0.217   0.235   0.245   0.253
  0.256   0.280   0.284   0.288   0.305   0.315   0.325   0.329
  0.336   0.344   0.345   0.352   0.356   0.361   0.371   0.374
  0.377   0.381   0.384   0.397   0.399   0.407   0.409   0.410
  0.413   0.419   0.420   0.422   0.423   0.427   0.429   0.434
  0.435   0.437   0.439   0.443   0.445   0.451   0.454   0.459
  0.467   0.468   0.490   0.491   0.501   0.502   0.506   0.536
  0.542   0.552   0.552   0.635   0.641   0.651   0.656
 --------------------------------------------------------------
 
          Ground-State Mulliken Net Atomic Charges

     Atom                 Charge (a.u.)
  ----------------------------------------
      1 O                    -0.219371
      2 C                     0.205010
      3 C                    -0.078223
      4 C                    -0.078535
      5 C                     0.206342
      6 O                    -0.172717
      7 C                    -0.058258
      8 C                    -0.054653
      9 O                    -0.175010
     10 C                     0.218832
     11 C                    -0.079210
     12 C                    -0.079173
     13 C                     0.210915
     14 O                    -0.214414
     15 O                    -0.161610
     16 O                    -0.166844
     17 O                    -0.216680
     18 C                    -0.125910
     19 C                     0.026001
     20 C                    -0.145138
     21 C                    -0.142732
     22 C                     0.025292
     23 O                    -0.186096
     24 H                     0.085333
     25 H                     0.085199
     26 H                     0.084773
     27 H                     0.078301
     28 H                     0.073187
     29 H                     0.078460
     30 H                     0.073455
     31 H                     0.088126
     32 O                    -0.210003
     33 C                    -0.126950
     34 C                     0.026246
     35 C                    -0.144320
     36 C                    -0.143868
     37 C                     0.026084
     38 O                    -0.183389
     39 H                     0.084176
     40 H                     0.086488
     41 H                     0.088231
     42 H                     0.088255
     43 H                     0.077939
     44 H                     0.072886
     45 H                     0.078074
     46 H                     0.073292
     47 H                     0.084329
     48 H                     0.092910
     49 H                     0.092478
     50 H                     0.094198
     51 H                     0.091175
     52 H                     0.093005
     53 H                     0.087631
     54 H                     0.101676
     55 H                     0.084402
     56 H                     0.100404
  ----------------------------------------
  Sum of atomic charges =    -0.000000

 -----------------------------------------------------------------
                    Cartesian Multipole Moments
 -----------------------------------------------------------------
    Charge (ESU x 10^10)
                -0.0000
    Dipole Moment (Debye)
         X       0.5552      Y       0.5739      Z      -2.8008
       Tot       2.9124
    Quadrupole Moments (Debye-Ang)
        XX    -148.4782     XY     -14.8204     YY    -156.1699
        XZ      -4.0229     YZ      -2.5411     ZZ    -160.1705
    Octopole Moments (Debye-Ang^2)
       XXX      15.9569    XXY      32.1689    XYY       5.4699
       YYY     -16.4734    XXZ     -60.1773    XYZ     -17.6693
       YYZ       4.9012    XZZ      15.3755    YZZ     -22.1911
       ZZZ      21.7143
    Hexadecapole Moments (Debye-Ang^3)
      XXXX  -19157.8847   XXXY    -518.3934   XXYY   -3675.4506
      XYYY     -21.1303   YYYY   -1970.8765   XXXZ     -67.6470
      XXYZ    -124.7380   XYYZ      42.3602   YYYZ     -38.7751
      XXZZ   -3576.9921   XYZZ     -34.1099   YYZZ    -550.2574
      XZZZ     313.6462   YZZZ     -38.5598   ZZZZ   -1420.7531
 -----------------------------------------------------------------
 Calculating analytic gradient of the SCF energy
 Gradient of SCF Energy
            1           2           3           4           5           6
    1   0.0003182  -0.0000648   0.0004480  -0.0005906   0.0003808  -0.0002656
    2  -0.0000531   0.0001658   0.0004807  -0.0020951   0.0031580  -0.0010006
    3   0.0000304  -0.0001926  -0.0002903   0.0006968  -0.0008569   0.0001055
            7           8           9          10          11          12
    1   0.0007696  -0.0004009  -0.0000733  -0.0001240  -0.0000865   0.0001702
    2  -0.0001892   0.0002622  -0.0000969  -0.0006510  -0.0000185  -0.0008338
    3  -0.0002102   0.0002734  -0.0007097   0.0020178  -0.0021694   0.0020378
           13          14          15          16          17          18
    1   0.0004098  -0.0000391   0.0001031  -0.0000046   0.0003351   0.0000109
    2   0.0014337  -0.0001181   0.0001517  -0.0010913   0.0006841   0.0001469
    3  -0.0028324  -0.0006447   0.0002185   0.0006873  -0.0001557  -0.0001198
           19          20          21          22          23          24
    1   0.0002289  -0.0000350  -0.0000429   0.0003473   0.0002066  -0.0001147
    2   0.0005497   0.0000286   0.0001214   0.0005846   0.0004209  -0.0006542
    3   0.0003187   0.0003186  -0.0000816   0.0002108   0.0000948  -0.0002562
           25          26          27          28          29          30
    1  -0.0008371  -0.0000935  -0.0000710   0.0000624   0.0000922  -0.0000995
    2  -0.0004753   0.0000730  -0.0000411  -0.0000604  -0.0000971  -0.0000461
    3   0.0003454   0.0000868  -0.0000104  -0.0000928   0.0000106   0.0000325
           31          32          33          34          35          36
    1  -0.0000565  -0.0002841  -0.0000134  -0.0003612   0.0002298  -0.0001349
    2   0.0001552  -0.0009568   0.0000747  -0.0001957  -0.0000218   0.0000710
    3   0.0001947   0.0000413  -0.0001270   0.0000970   0.0000975   0.0000819
           37          38          39          40          41          42
    1   0.0004559  -0.0002088  -0.0001893   0.0000320   0.0000266  -0.0000913
    2   0.0000683   0.0003475  -0.0000869  -0.0001187  -0.0000369  -0.0000459
    3  -0.0000174  -0.0000926   0.0000518   0.0000470   0.0000131  -0.0000216
           43          44          45          46          47          48
    1  -0.0000690   0.0001545   0.0000545   0.0000958   0.0000463   0.0000786
    2  -0.0000247  -0.0000623   0.0000509   0.0000896  -0.0000309  -0.0000251
    3   0.0000182  -0.0001445  -0.0000501  -0.0000463   0.0000471  -0.0000128
           49          50          51          52          53          54
    1   0.0000201  -0.0000062  -0.0000364   0.0000147   0.0004952  -0.0008572
    2   0.0000005  -0.0000366  -0.0000282   0.0000009  -0.0004014   0.0004570
    3  -0.0000134  -0.0000497   0.0000016  -0.0000555   0.0002453   0.0000419
           55          56
    1  -0.0007822   0.0004462
    2   0.0006968  -0.0006802
    3   0.0009012  -0.0001115
 Max gradient component =       3.158E-03
 RMS gradient           =       5.741E-04
 Gradient time:  CPU 29.73 s  wall 0.63 s
 Geometry Optimization Parameters
   NAtoms,    NIC,     NZ,  NCons,   NDum,   NFix, NCnnct, MaxDiis
       56     458       0       0       0       0       0       0

 Cartesian Hessian Update
 Hessian Updated using BFGS Update


** GEOMETRY OPTIMIZATION IN DELOCALIZED INTERNAL COORDINATES **
   Searching for a Minimum

   Optimization Cycle:   3

                       Coordinates (Angstroms)
     ATOM                X               Y               Z
      1  O         2.5108917111   -1.9099065642    0.4105921841
      2  C         3.5837648414   -1.3126844465    0.6527433681
      3  C         4.6238782975   -0.8041546527   -0.4096003798
      4  C         4.2203999720    0.6188626689   -1.0016945432
      5  C         2.9036435762    1.1755481538   -0.3656496417
      6  O         1.8605466855    1.0715589677   -1.3442886689
      7  C         0.5502266236    1.4317578028   -0.7486024850
      8  C        -0.4519223950    0.2447274812   -1.0023943761
      9  O        -1.8303769064    0.7580321988   -1.1707757261
     10  C        -2.6135517776    0.4635152670    0.0005081902
     11  C        -4.0714252602    0.9928541441   -0.2523044536
     12  C        -5.1573328767   -0.1227832007   -0.5566990515
     13  C        -4.6651846778   -1.5761474844   -0.8866672011
     14  O        -5.3915596529   -2.5919470001   -0.9546447485
     15  O         4.0239752905   -0.9583258716    1.9636868757
     16  O        -3.2589066130   -1.5939128519   -1.1342943041
     17  O        -2.1528215037   -0.0409344497    1.0462819794
     18  C        -2.7928182842   -2.9707858077   -1.4115228925
     19  C        -4.6490965899    1.5867393463    1.1042613667
     20  C        -5.9927094419    2.3655659165    0.8093691393
     21  C        -7.0098346140    1.1761056141    0.6399244125
     22  C        -6.0397138205   -0.0616868890    0.7699916520
     23  O        -5.0895103991    0.3665835978    1.8197199434
     24  H        -4.0321349913    1.7342329394   -1.0692006843
     25  H        -5.7805690198    0.1883703521   -1.4163403119
     26  H        -3.9063248023    2.1403895793    1.7103426042
     27  H        -6.2603400119    3.0117273258    1.6602402820
     28  H        -5.9150764840    2.9885620353   -0.0962236476
     29  H        -7.7545691123    1.1641348246    1.4519866433
     30  H        -7.5392594090    1.1967066169   -0.3259232519
     31  H        -6.5220437027   -1.0209975980    1.0413776251
     32  O         2.7312818237    1.5842022454    0.8040521366
     33  C         2.9937153498   -1.3316863418    2.9602386721
     34  C         6.0501395690   -0.4780135997    0.1994159833
     35  C         7.0768888076   -0.3295835253   -0.9930182532
     36  C         6.6795100542    1.0820693208   -1.5650681132
     37  C         5.4946553173    1.4784472921   -0.5980431236
     38  O         5.9001500936    0.9065793231    0.7043364730
     39  H         4.6767244265   -1.5560570186   -1.2174229721
     40  H         4.0811016875    0.5682492633   -2.0957415132
     41  H         2.7610496591   -2.4155865509    2.9230298448
     42  H         6.3647327434   -1.1557500759    1.0156729887
     43  H         8.1106601590   -0.3349436107   -0.6126193634
     44  H         6.9693990471   -1.1355604136   -1.7365147944
     45  H         7.5078726524    1.8027343258   -1.4748516087
     46  H         6.3601635949    1.0406718262   -2.6186969009
     47  H         5.3033773529    2.5645358836   -0.5001575900
     48  H         2.0556031469   -0.7616346460    2.8012350930
     49  H         3.4192573243   -1.0745603749    3.9473942704
     50  H        -1.7104308060   -2.8869178628   -1.6203733711
     51  H        -3.3117842418   -3.4065567952   -2.2895883107
     52  H        -2.9523678570   -3.6361280608   -0.5386347651
     53  H        -0.1686077881   -0.2735524018   -1.9425415174
     54  H        -0.4294863876   -0.4701027500   -0.1532685292
     55  H         0.1669437246    2.3546191003   -1.2364721723
     56  H         0.6973466734    1.6260102822    0.3354095835
   Point Group: c1    Number of degrees of freedom:   162


   Energy is  -1510.278747906

 Hessian Updated using BFGS Update

152 Hessian modes will be used to form the next step
  Hessian Eigenvalues:
     0.001022    0.002013    0.002420    0.002685    0.003540    0.003679
     0.004419    0.004439    0.004883    0.004924    0.005068    0.005536
     0.006588    0.007084    0.010125    0.011808    0.011985    0.018593
     0.021363    0.021866    0.022132    0.025288    0.026766    0.030949
     0.031093    0.035370    0.035681    0.037146    0.041240    0.041664
     0.042245    0.042876    0.046908    0.047248    0.047899    0.049343
     0.050298    0.051166    0.052258    0.053590    0.054284    0.054582
     0.055067    0.055416    0.056084    0.056925    0.057188    0.058876
     0.059558    0.060624    0.062179    0.063508    0.063891    0.064143
     0.064276    0.069737    0.070168    0.072913    0.073226    0.091879
     0.092437    0.092839    0.094536    0.095856    0.096186    0.096862
     0.097052    0.102794    0.102935    0.109783    0.110621    0.111596
     0.113850    0.121926    0.125382    0.135508    0.138101    0.157517
     0.159775    0.159998    0.160025    0.160515    0.163827    0.166931
     0.218120    0.220280    0.221009    0.222778    0.224393    0.228928
     0.238487    0.238668    0.239493    0.239590    0.243879    0.247091
     0.248434    0.249277    0.249661    0.249948    0.249975    0.250737
     0.252816    0.253378    0.256888    0.258838    0.259333    0.260378
     0.264291    0.286281    0.293258    0.294184    0.307610    0.308815
     0.324068    0.324986    0.325450    0.326047    0.326787    0.326894
     0.326971    0.327008    0.328661    0.329004    0.329027    0.329632
     0.329826    0.330781    0.331021    0.331731    0.332426    0.332850
     0.334701    0.334825    0.334846    0.334874    0.335048    0.335076
     0.335124    0.335320    0.341759    0.344272    0.345331    0.345870
     0.397054    0.403961    0.413108    0.413350    0.827004    0.828754
     0.829538    0.835696

 Minimum Search - Taking Simple RFO Step
 Searching for Lamda that Minimizes Along All modes
 Value Taken    Lamda =  -0.00326537
 Calculated Step too Large.  Step scaled by  0.370313
 Step Taken.  Stepsize is  0.300000

                             Maximum     Tolerance    Cnvgd?
         Gradient           0.002820      0.000300      NO
         Displacement       0.077960      0.001200      NO
         Energy change     -0.001079      0.000001      NO


 New Cartesian Coordinates Obtained by Inverse Iteration

 Displacement from previous Coordinates is:  2.854950
 Adding empirical dispersion correction 
 ----------------------------------------------------------------
 Doing -D3(op) with
 s6 =   1.00000
 s8 =   0.78311
 a1 =   0.30000
 a2 =   4.25000
 n  =  10.00000
 -D3 energy without 3body term =     -0.0661911654 hartrees
 ----------------------------------------------------------------
             Standard Nuclear Orientation (Angstroms)
    I     Atom           X                Y                Z
 ----------------------------------------------------------------
    1      O       2.2959993818    -1.8050641405     0.1925258531
    2      C       3.3922650175    -1.2904666770     0.5088532369
    3      C       4.5075338082    -0.7975765962    -0.4831422286
    4      C       4.2089653508     0.6692324510    -1.0291383920
    5      C       2.8955545262     1.2621204718    -0.4203816362
    6      O       1.8814141482     1.2246427395    -1.4334909760
    7      C       0.5623864646     1.5931173388    -0.8629735296
    8      C      -0.4157039230     0.3788905093    -1.0769485633
    9      O      -1.8131112384     0.8492129898    -1.2100205688
   10      C      -2.5506605207     0.5493153180    -0.0104521563
   11      C      -4.0378527065     1.0039055540    -0.2335661070
   12      C      -5.0655842968    -0.1732961991    -0.5085077446
   13      C      -4.4944752378    -1.6128305935    -0.7612979217
   14      O      -5.1520678262    -2.6756101059    -0.7179421336
   15      O       3.7925005143    -1.0239125579     1.8528321162
   16      O      -3.0977410563    -1.5583244739    -1.0528927889
   17      O      -2.0466018915     0.0639647362     1.0244133675
   18      C      -2.5447768629    -2.9196740091    -1.2280696357
   19      C      -4.6284851179     1.5918091528     1.1187707252
   20      C      -6.0039636116     2.3099078995     0.8178761419
   21      C      -6.9707780001     1.0769318970     0.6652243237
   22      C      -5.9505826303    -0.1179256429     0.8166418981
   23      O      -5.0166555730     0.3670473896     1.8559548230
   24      H      -4.0480746549     1.7327064978    -1.0629185636
   25      H      -5.7016177414     0.0735636813    -1.3795161286
   26      H      -3.9056355924     2.1855107579     1.7107427071
   27      H      -6.2966675082     2.9553409943     1.6610668450
   28      H      -5.9542490240     2.9241203627    -0.0956976277
   29      H      -7.7159064429     1.0469720774     1.4765089242
   30      H      -7.4988731400     1.0608222139    -0.3014250377
   31      H      -6.3919744271    -1.0911825873     1.1075314762
   32      O       2.7066647905     1.6632499515     0.7494286616
   33      C       2.6952894309    -1.3721830246     2.7849918461
   34      C       5.9199507785    -0.5772463685     0.2004316293
   35      C       7.0049908732    -0.4391211179    -0.9403236980
   36      C       6.7126882559     1.0154384628    -1.4666608617
   37      C       5.5086492768     1.4387151682    -0.5351950803
   38      O       5.8223682524     0.7917753884     0.7574915600
   39      H       4.5565492733    -1.5169119835    -1.3204547948
   40      H       4.1135795023     0.6705972989    -2.1291018744
   41      H       2.3943525733    -2.4350908139     2.6853761575
   42      H       6.1598369029    -1.3043040888     0.9994629865
   43      H       8.0192758799    -0.5198968068    -0.5182043551
   44      H       6.8843562064    -1.2064071249    -1.7216100441
   45      H       7.5747754205     1.6832005587    -1.3100226401
   46      H       6.4391325208     1.0349601573    -2.5336838443
   47      H       5.3726250752     2.5289336940    -0.3985648347
   48      H       1.8046436164    -0.7335546515     2.6137059692
   49      H       3.0907549083    -1.1893894388     3.8007996887
   50      H      -1.4759564356    -2.7814187332    -1.4744980196
   51      H      -3.0522814964    -3.4626770117    -2.0513698626
   52      H      -2.6373441334    -3.5174231116    -0.2983785193
   53      H      -0.1432792078    -0.1457135556    -2.0165785033
   54      H      -0.3511184162    -0.3226097789    -0.2185200432
   55      H       0.1716303119     2.4948098284    -1.3825612438
   56      H       0.7014264300     1.8221885038     0.2154510672
 ----------------------------------------------------------------
 Molecular Point Group                 C1    NOp =  1
 Largest Abelian Subgroup              C1    NOp =  1
 Nuclear Repulsion Energy =  3064.4607175065 hartrees
 There are      113 alpha and      113 beta electrons
 Applying Cartesian multipole field
    Component          Value
    ---------          -----
     (2,0,0)        1.00000E-12
     (0,2,0)        2.00000E-11
     (0,0,2)       -3.00000E-11
 Nucleus-field energy     =     0.0000000153 hartrees
 Requested basis set is STO-3G
 There are 86 shells and 176 basis functions
 A cutoff of  1.0D-12 yielded   2055 shell pairs
 There are      9558 function pairs
 Smallest overlap matrix eigenvalue = 2.13E-01
 Guess MOs from SCF MO coefficient file
 Reading MOs from coefficient file
 Reading MOs from coefficient file
 A restricted hybrid HF-DFT SCF calculation will be
 performed using Pulay DIIS extrapolation
[...]
      6  O         1.8822381685    1.5820977416   -2.3810775754
      7  C         0.4786433612    2.0483590587   -2.4896924825
      8  C        -0.4561072773    0.7880815850   -2.6739309854
      9  O        -1.8249608610    1.0196071871   -2.1470901671
     10  C        -1.8526173579    0.7667913912   -0.7409256527
     11  C        -3.3220194697    0.8906327489   -0.2164059853
     12  C        -3.9342467828   -0.5031374760    0.2408846867
     13  C        -2.9443538110   -1.7098646946    0.0600568574
     14  O        -2.6035867886   -2.5473205542    0.9233340893
     15  O         1.8187681138   -1.3402510748    1.1931657998
     16  O        -2.4909578873   -1.7005761133   -1.2934581563
     17  O        -0.8280037517    0.5192528710   -0.0642947068
     18  C        -1.4443287796   -2.7311687691   -1.5114356741
     19  C        -3.3723151680    1.6913300877    1.1562714378
     20  C        -4.8725141819    2.0926149597    1.4448606376
     21  C        -5.4772500657    0.7099252299    1.8937131874
     22  C        -4.2132973820   -0.2279695541    1.7737608599
     23  O        -3.0865315696    0.6504736191    2.1687735277
     24  H        -3.9363077264    1.3625876626   -1.0026945976
     25  H        -4.8637799500   -0.7222388147   -0.3162919533
     26  H        -2.6370709268    2.5157608331    1.2316109746
     27  H        -4.9215482629    2.8375095823    2.2550243463
     28  H        -5.3701764067    2.5066884955    0.5533110360
     29  H        -5.8357100340    0.7448799376    2.9348424500
     30  H        -6.3037658268    0.3768015711    1.2457285530
     31  H        -4.2247869667   -1.1440881712    2.3957120154
     32  O         1.5991843664    1.9800179318   -0.0541780390
     33  C         0.3866542657   -1.5862797799    1.5127507260
     34  C         4.4259231428   -0.7751854756    0.8031024329
     35  C         5.9355784864   -0.6808206901    0.3441500963
     36  C         6.0478314437    0.8415210093   -0.0362844589
     37  C         4.5722694523    1.3303737191    0.2390256788
     38  O         4.1627522354    0.5437966714    1.4239834837
     39  H         3.8878230334   -1.4185361772   -1.2830703507
     40  H         4.1330786535    0.8498070945   -1.9130772260
     41  H         0.0629609872   -2.5880405524    1.1658424715
     42  H         4.1948962053   -1.5909496672    1.5138110181
     43  H         6.6076601050   -0.9403734063    1.1774044324
     44  H         6.1531627819   -1.3486594100   -0.5047529442
     45  H         6.7561716997    1.3705201771    0.6209180724
     46  H         6.3515793106    0.9992726132   -1.0835458743
     47  H         4.4561461952    2.4136496092    0.4359543170
     48  H        -0.2513354149   -0.7980449333    1.0470953197
     49  H         0.3180654294   -1.5406562201    2.6142352601
     50  H        -0.4403936425   -2.2914376580   -1.2938475612
     51  H        -1.5071536856   -3.0229258332   -2.5757477125
     52  H        -1.6213720961   -3.6115717303   -0.8634184953
     53  H        -0.5865379191    0.5498336912   -3.7474499821
     54  H         0.0326865803   -0.0690159904   -2.1503905944
     55  H         0.4190195733    2.7334928763   -3.3582032204
     56  H         0.2045625988    2.5863811107   -1.5562825429
   Point Group: c1    Number of degrees of freedom:   162


   Energy is  -1510.299955884

 Hessian Updated using BFGS Update

162 Hessian modes will be used to form the next step
  Hessian Eigenvalues:
     0.001670    0.002520    0.002825    0.003565    0.004808    0.005133
     0.005895    0.007001    0.008447    0.009598    0.013501    0.016564
     0.019084    0.021884    0.022052    0.025969    0.026707    0.027950
     0.029540    0.031092    0.032179    0.032649    0.036056    0.036856
     0.037402    0.040296    0.041469    0.042084    0.042310    0.044083
     0.045547    0.047128    0.048844    0.050573    0.051432    0.051855
     0.052671    0.053979    0.054320    0.055244    0.055396    0.056018
     0.056480    0.056698    0.058974    0.059918    0.061664    0.063444
     0.063877    0.063969    0.064248    0.064464    0.065376    0.069343
     0.069705    0.070851    0.072920    0.073870    0.079471    0.092397
     0.092765    0.093268    0.095351    0.097390    0.098636    0.100016
     0.101431    0.103714    0.106921    0.109639    0.111634    0.113177
     0.114926    0.124349    0.128849    0.140326    0.143890    0.144797
     0.147260    0.159088    0.160020    0.161291    0.164910    0.165895
     0.166780    0.178972    0.192672    0.197824    0.212426    0.220928
     0.225141    0.232064    0.235205    0.237975    0.238769    0.240114
     0.240231    0.243192    0.247029    0.248952    0.249727    0.252487
     0.253238    0.253477    0.254348    0.255699    0.257537    0.260218
     0.262055    0.267681    0.268931    0.275790    0.291681    0.292922
     0.295978    0.305070    0.307460    0.313525    0.323868    0.324812
     0.325296    0.325771    0.326937    0.327292    0.327975    0.328503
     0.328661    0.329014    0.329130    0.329638    0.329933    0.330308
     0.331170    0.331725    0.332531    0.333019    0.334701    0.334796
     0.334849    0.334957    0.335042    0.335080    0.335266    0.335338
     0.339534    0.344101    0.348159    0.356718    0.361750    0.394601
     0.412516    0.424806    0.468024    0.573304    0.702138    0.825859
     0.829315    0.832272    0.854151    1.117410    2.171937    3.872754

 Minimum Search - Taking Simple RFO Step
 Searching for Lamda that Minimizes Along All modes
 Value Taken    Lamda =   0.00000000
 Step Taken.  Stepsize is  0.003551

                             Maximum     Tolerance    Cnvgd?
         Gradient           0.000115      0.000300     YES
         Displacement       0.001195      0.001200     YES
         Energy change     -0.000001      0.000001      NO

 Final energy is   -1510.29995588374     


 ******************************
 **  OPTIMIZATION CONVERGED  **
 ******************************

                       Coordinates (Angstroms)
     ATOM                X               Y               Z
      1  O         1.1252435383   -1.3089185375   -1.0744493032
      2  C         2.0134377004   -1.1639347123   -0.1949052402
      3  C         3.5059453997   -0.7541941333   -0.4864165165
      4  C         3.6469083690    0.7727239411   -0.9247775929
      5  C         2.2719795738    1.5145679732   -0.9992561314
      6  O         1.8822381685    1.5820977416   -2.3810775754
      7  C         0.4786433612    2.0483590587   -2.4896924825
      8  C        -0.4561072773    0.7880815850   -2.6739309854
      9  O        -1.8249608610    1.0196071871   -2.1470901671
     10  C        -1.8526173579    0.7667913912   -0.7409256527
     11  C        -3.3220194697    0.8906327489   -0.2164059853
     12  C        -3.9342467828   -0.5031374760    0.2408846867
     13  C        -2.9443538110   -1.7098646946    0.0600568574
     14  O        -2.6035867886   -2.5473205542    0.9233340893
     15  O         1.8187681138   -1.3402510748    1.1931657998
     16  O        -2.4909578873   -1.7005761133   -1.2934581563
     17  O        -0.8280037517    0.5192528710   -0.0642947068
     18  C        -1.4443287796   -2.7311687691   -1.5114356741
     19  C        -3.3723151680    1.6913300877    1.1562714378
     20  C        -4.8725141819    2.0926149597    1.4448606376
     21  C        -5.4772500657    0.7099252299    1.8937131874
     22  C        -4.2132973820   -0.2279695541    1.7737608599
     23  O        -3.0865315696    0.6504736191    2.1687735277
     24  H        -3.9363077264    1.3625876626   -1.0026945976
     25  H        -4.8637799500   -0.7222388147   -0.3162919533
     26  H        -2.6370709268    2.5157608331    1.2316109746
     27  H        -4.9215482629    2.8375095823    2.2550243463
     28  H        -5.3701764067    2.5066884955    0.5533110360
     29  H        -5.8357100340    0.7448799376    2.9348424500
     30  H        -6.3037658268    0.3768015711    1.2457285530
     31  H        -4.2247869667   -1.1440881712    2.3957120154
     32  O         1.5991843664    1.9800179318   -0.0541780390
     33  C         0.3866542657   -1.5862797799    1.5127507260
     34  C         4.4259231428   -0.7751854756    0.8031024329
     35  C         5.9355784864   -0.6808206901    0.3441500963
     36  C         6.0478314437    0.8415210093   -0.0362844589
     37  C         4.5722694523    1.3303737191    0.2390256788
     38  O         4.1627522354    0.5437966714    1.4239834837
     39  H         3.8878230334   -1.4185361772   -1.2830703507
     40  H         4.1330786535    0.8498070945   -1.9130772260
     41  H         0.0629609872   -2.5880405524    1.1658424715
     42  H         4.1948962053   -1.5909496672    1.5138110181
     43  H         6.6076601050   -0.9403734063    1.1774044324
     44  H         6.1531627819   -1.3486594100   -0.5047529442
     45  H         6.7561716997    1.3705201771    0.6209180724
     46  H         6.3515793106    0.9992726132   -1.0835458743
     47  H         4.4561461952    2.4136496092    0.4359543170
     48  H        -0.2513354149   -0.7980449333    1.0470953197
     49  H         0.3180654294   -1.5406562201    2.6142352601
     50  H        -0.4403936425   -2.2914376580   -1.2938475612
     51  H        -1.5071536856   -3.0229258332   -2.5757477125
     52  H        -1.6213720961   -3.6115717303   -0.8634184953
     53  H        -0.5865379191    0.5498336912   -3.7474499821
     54  H         0.0326865803   -0.0690159904   -2.1503905944
     55  H         0.4190195733    2.7334928763   -3.3582032204
     56  H         0.2045625988    2.5863811107   -1.5562825429

Z-matrix Print:
$molecule
0 1
O 
C  1 1.252572
O  2 1.428978 1 123.415105
C  3 1.484899 2 109.839753 1 6.484630 0
H  4 1.107347 3 105.600333 2 155.187718 0
H  4 1.116974 3 110.900797 2 36.146978 0
C  2 1.565120 1 127.055089 3 -178.154500 0
H  7 1.103785 2 108.517441 1 165.665349 0
C  4 1.579874 3 112.313183 2 -83.995608 0
H  9 1.107824 4 111.720194 3 -89.440392 0
H  9 1.111684 4 109.761773 3 33.140945 0
O  9 1.482995 4 108.525169 3 152.054460 0
C  12 1.437320 9 109.988062 4 -98.159153 0
O  13 1.249988 12 124.293513 9 -10.369445 0
C  13 1.564068 12 107.844331 9 169.604780 0
H  15 1.104101 13 108.140317 12 21.808429 0
C  15 1.587988 13 112.370622 12 145.965347 0
H  17 1.107137 15 114.383246 13 -33.179213 0
O  17 1.480045 15 103.821300 13 87.194005 0
C  19 1.481373 17 95.076115 15 56.243865 0
H  20 1.106323 19 110.498743 17 179.743722 0
C  17 1.578625 15 107.946109 13 -163.377185 0
H  22 1.101590 17 110.382312 15 168.300570 0
H  22 1.101773 17 112.279354 15 46.810775 0
C  22 1.573167 17 100.999162 15 -73.645403 0
H  25 1.101533 22 111.555992 17 -118.901362 0
H  25 1.101811 22 112.714276 17 118.565899 0
C  20 1.584190 19 103.073412 17 -57.726973 0
H  28 1.105368 20 112.213921 19 154.370383 0
C  28 1.574943 20 113.341858 19 -83.327895 0
O  30 1.258375 28 124.714357 20 -174.838779 0
O  30 1.412701 28 110.177116 20 5.322284 0
C  32 1.487822 30 111.366593 28 173.973828 0
H  33 1.104561 32 105.494333 30 -170.808875 0
H  33 1.108444 32 111.303689 30 70.694612 0
H  33 1.115876 32 110.113834 30 -51.473244 0
C  7 1.589507 2 112.870231 1 -70.304471 0
H  37 1.105660 7 110.646170 2 -122.849431 0
C  37 1.571234 7 113.432450 2 -0.479576 0
O  39 1.250081 37 127.356308 7 127.087969 0
O  39 1.427465 37 107.711998 7 -53.343276 0
C  41 1.484947 39 111.010545 37 174.309970 0
H  42 1.105364 41 106.526930 39 152.140225 0
H  42 1.107420 41 110.681730 39 32.396869 0
H  42 1.117405 41 109.362811 39 -88.986246 0
C  37 1.582181 7 101.195680 2 118.304852 0
H  46 1.107352 37 113.709601 7 -154.837196 0
O  46 1.482329 37 103.130908 7 -35.280947 0
C  48 1.479937 46 95.030745 37 57.139184 0
H  49 1.107225 48 110.419911 46 -179.962497 0
C  46 1.578484 37 108.553372 7 74.245633 0
H  51 1.101665 46 110.561549 37 167.548147 0
H  51 1.101809 46 112.106748 37 46.030366 0
C  51 1.574486 46 101.103386 37 -74.252191 0
H  54 1.101652 51 111.533803 46 -117.579141 0
H  54 1.101810 51 112.782069 46 119.747847 0
$end

 
 --------------------------------------------------------------
 
                    Orbital Energies (a.u.)
 --------------------------------------------------------------
 
 Alpha MOs
 -- Occupied --
-18.939 -18.932 -18.928 -18.927 -18.885 -18.885 -18.876 -18.876
-18.874 -18.872 -10.105 -10.100 -10.096 -10.096 -10.062 -10.058
-10.057 -10.056 -10.056 -10.055 -10.039 -10.038 -10.037 -10.036
-10.036 -10.035 -10.019 -10.019 -10.018 -10.018  -1.015  -1.010
 -1.006  -1.003  -0.968  -0.966  -0.936  -0.936  -0.932  -0.931
 -0.762  -0.761  -0.724  -0.721  -0.709  -0.703  -0.690  -0.652
 -0.648  -0.615  -0.594  -0.577  -0.544  -0.543  -0.535  -0.534
 -0.510  -0.505  -0.477  -0.473  -0.461  -0.458  -0.450  -0.443
 -0.434  -0.430  -0.426  -0.422  -0.410  -0.404  -0.398  -0.392
 -0.382  -0.374  -0.370  -0.362  -0.358  -0.355  -0.352  -0.348
 -0.343  -0.337  -0.330  -0.328  -0.327  -0.322  -0.316  -0.309
 -0.307  -0.304  -0.302  -0.297  -0.286  -0.284  -0.283  -0.275
 -0.269  -0.259  -0.246  -0.241  -0.238  -0.232  -0.230  -0.186
 -0.175  -0.171  -0.160  -0.159  -0.154  -0.149  -0.148  -0.142
 -0.140
 -- Virtual --
  0.092   0.097   0.101   0.110   0.218   0.237   0.245   0.254
  0.265   0.286   0.287   0.289   0.307   0.314   0.329   0.332
  0.340   0.342   0.348   0.350   0.360   0.361   0.372   0.376
  0.378   0.383   0.386   0.404   0.406   0.410   0.411   0.412
  0.414   0.420   0.424   0.426   0.434   0.436   0.437   0.440
  0.442   0.448   0.449   0.452   0.457   0.468   0.469   0.473
  0.484   0.489   0.491   0.493   0.505   0.510   0.517   0.539
  0.543   0.554   0.554   0.642   0.647   0.653   0.657
 --------------------------------------------------------------
 
          Ground-State Mulliken Net Atomic Charges

     Atom                 Charge (a.u.)
  ----------------------------------------
      1 O                    -0.226282
      2 C                     0.221155
      3 C                    -0.076877
      4 C                    -0.078865
      5 C                     0.206943
      6 O                    -0.173965
      7 C                    -0.057413
      8 C                    -0.061328
      9 O                    -0.168139
     10 C                     0.218686
     11 C                    -0.079031
     12 C                    -0.078227
     13 C                     0.210006
     14 O                    -0.214575
     15 O                    -0.158857
     16 O                    -0.174122
     17 O                    -0.216755
     18 C                    -0.150131
     19 C                     0.025440
     20 C                    -0.143907
     21 C                    -0.143993
     22 C                     0.023472
     23 O                    -0.187229
     24 H                     0.086484
     25 H                     0.084943
     26 H                     0.085456
     27 H                     0.078289
     28 H                     0.073198
     29 H                     0.078151
     30 H                     0.072814
     31 H                     0.090127
     32 O                    -0.202591
     33 C                    -0.143706
     34 C                     0.025364
     35 C                    -0.144705
     36 C                    -0.143813
     37 C                     0.025773
     38 O                    -0.184004
     39 H                     0.083993
     40 H                     0.085922
     41 H                     0.083352
     42 H                     0.090968
     43 H                     0.077883
     44 H                     0.072284
     45 H                     0.077930
     46 H                     0.072861
     47 H                     0.085191
     48 H                     0.121091
     49 H                     0.090422
     50 H                     0.111075
     51 H                     0.081713
     52 H                     0.086911
     53 H                     0.084793
     54 H                     0.112847
     55 H                     0.083932
     56 H                     0.099045
  ----------------------------------------
  Sum of atomic charges =    -0.000000

 -----------------------------------------------------------------
                    Cartesian Multipole Moments
 -----------------------------------------------------------------
    Charge (ESU x 10^10)
                 0.0000
    Dipole Moment (Debye)
         X      -0.1004      Y       0.1232      Z      -2.5046
       Tot       2.5096
    Quadrupole Moments (Debye-Ang)
        XX    -136.3234     XY      -5.6870     YY    -155.6399
        XZ      -5.0784     YZ      -1.2004     ZZ    -164.0576
    Octopole Moments (Debye-Ang^2)
       XXX     -13.8166    XXY      -4.9633    XYY      -0.7457
       YYY     -31.5605    XXZ       6.0716    XYZ      -9.8564
       YYZ       1.0267    XZZ      -9.7110    YZZ     -14.6683
       ZZZ      23.7475
    Hexadecapole Moments (Debye-Ang^3)
      XXXX  -10473.8203   XXXY     -32.9716   XXYY   -2178.2576
      XYYY     -18.3478   YYYY   -2077.6287   XXXZ     351.9888
      XXYZ      43.8853   XYYZ     166.4536   YYYZ     126.8522
      XXZZ   -2235.7364   XYZZ     -16.0469   YYZZ    -662.9758
      XZZZ     451.6277   YZZZ      83.2741   ZZZZ   -1956.7374
 -----------------------------------------------------------------
Archival summary:
1\1\vega02.cac.cornell.edu\OPT\ProcedureUnspecified\STO-3G\102026\jj585\MonJan1501:55:332018MonJan1501:55:332018\0\\#,OPT,ProcedureUnspecified,STO-3G,\\0,1\O\C,1,1.25257\O,2,1.42898,1,123.415\C,3,1.4849,2,109.84,1,6.48463,0\H,4,1.10735,3,105.6,2,155.188,0\H,4,1.11697,3,110.901,2,36.147,0\C,2,1.56512,1,127.055,3,-178.154,0\H,7,1.10378,2,108.517,1,165.665,0\C,4,1.57987,3,112.313,2,-83.9956,0\H,9,1.10782,4,111.72,3,-89.4404,0\H,9,1.11168,4,109.762,3,33.1409,0\O,9,1.483,4,108.525,3,152.054,0\C,12,1.43732,9,109.988,4,-98.1592,0\O,13,1.24999,12,124.294,9,-10.3694,0\C,13,1.56407,12,107.844,9,169.605,0\H,15,1.1041,13,108.14,12,21.8084,0\C,15,1.58799,13,112.371,12,145.965,0\H,17,1.10714,15,114.383,13,-33.1792,0\O,17,1.48004,15,103.821,13,87.194,0\C,19,1.48137,17,95.0761,15,56.2439,0\H,20,1.10632,19,110.499,17,179.744,0\C,17,1.57862,15,107.946,13,-163.377,0\H,22,1.10159,17,110.382,15,168.301,0\H,22,1.10177,17,112.279,15,46.8108,0\C,22,1.57317,17,100.999,15,-73.6454,0\H,25,1.10153,22,111.556,17,-118.901,0\H,25,1.10181,22,112.714,17,118.566,0\C,20,1.58419,19,103.073,17,-57.727,0\H,28,1.10537,20,112.214,19,154.37,0\C,28,1.57494,20,113.342,19,-83.3279,0\O,30,1.25837,28,124.714,20,-174.839,0\O,30,1.4127,28,110.177,20,5.32228,0\C,32,1.48782,30,111.367,28,173.974,0\H,33,1.10456,32,105.494,30,-170.809,0\H,33,1.10844,32,111.304,30,70.6946,0\H,33,1.11588,32,110.114,30,-51.4732,0\C,7,1.58951,2,112.87,1,-70.3045,0\H,37,1.10566,7,110.646,2,-122.849,0\C,37,1.57123,7,113.432,2,-0.479576,0\O,39,1.25008,37,127.356,7,127.088,0\O,39,1.42747,37,107.712,7,-53.3433,0\C,41,1.48495,39,111.011,37,174.31,0\H,42,1.10536,41,106.527,39,152.14,0\H,42,1.10742,41,110.682,39,32.3969,0\H,42,1.1174,41,109.363,39,-88.9862,0\C,37,1.58218,7,101.196,2,118.305,0\H,46,1.10735,37,113.71,7,-154.837,0\O,46,1.48233,37,103.131,7,-35.2809,0\C,48,1.47994,46,95.0307,37,57.1392,0\H,49,1.10722,48,110.42,46,-179.962,0\C,46,1.57848,37,108.553,7,74.2456,0\H,51,1.10166,46,110.562,37,167.548,0\H,51,1.10181,46,112.107,37,46.0304,0\C,51,1.57449,46,101.103,37,-74.2522,0\H,54,1.10165,51,111.534,46,-117.579,0\H,54,1.10181,51,112.782,46,119.748,0\\\@

 Total job time:  139.78s(wall), 6662.05s(cpu) 
 Mon Jan 15 01:55:33 2018

        *************************************************************
        *                                                           *
        *  Thank you very much for using Q-Chem.  Have a nice day.  *
        *                                                           *
        *************************************************************


0 sent ACK to 0 
now end server 0 ... 
