mFile = /opt/software/qchem/qchem-5.0.1//bin/mpi/machines
Process 0 of 1 is on vega02.cac.cornell.edu - thread support 0
initial socket setup ...start
initial socket setup ...done 
now start server 0 ... 
vega02.cac.cornell.edu 10.84.3
Q-Chem Developer Version! Running on 10.84.3.*
                  Welcome to Q-Chem
     A Quantum Leap Into The Future Of Chemistry


 Q-Chem 5.0, Q-Chem, Inc., Pleasanton, CA (2017)

 Yihan Shao,  Zhengting Gan,  E. Epifanovsky,  A. T. B. Gilbert,  M. Wormit,  
 J. Kussmann,  A. W. Lange,  A. Behn,  Jia Deng,  Xintian Feng,  D. Ghosh,  
 M. Goldey,  P. R. Horn,  L. D. Jacobson,  I. Kaliman,  T. Kus,  A. Landau,  
 Jie Liu,  E. I. Proynov,  R. M. Richard,  R. P. Steele,  E. J. Sundstrom,  
 H. L. Woodcock III,  P. M. Zimmerman,  D. Zuev,  B. Albrecht,  E. Alguire,  
 S. A. Baeppler,  Z. Benda,  Y. A. Bernard,  E. J. Berquist,  K. B. Bravaya,  
 D. Casanova,  Chun-Min Chang,  Yunqing Chen,  A. Chien,  K. D. Closser,  
 M. P. Coons,  S. Dasgupta,  M. Diedenhofen,  Hainam Do,  R. G. Edgar,  
 Po-Tung Fang,  S. Fatehi,  Qingguo Feng,  Qinghui Ge,  A. Ghysels,  
 J. Gomes,  J. Gonthier,  A. Gunina,  M. W. D. Hanson-Heine,  
 P. H. P. Harbach,  A. W. Hauser,  J. E. Herr,  E. G. Hohenstein,  
 Z. C. Holden,  Kerwin Hui,  T.-C. Jagau,  Hyunjun Ji,  B. Kaduk,  
 K. Khistyaev,  Jaehoon Kim,  P. Klunzinger,  K. Koh,  D. Kosenkov,  
 T. Kowalczyk,  C. M. Krauter,  A. Kunitsa,  Ka Un Lao,  A. Laurent,  
 K. V. Lawler,  Joonho Lee,  D. Lefrancois,  S. Lehtola,  D. S. Levine,  
 Yi-Pei Li,  You-Sheng Lin,  Fenglai Liu,  E. Livshits,  A. Luenser,  
 P. Manohar,  E. Mansoor,  S. F. Manzer,  Shan-Ping Mao,  Yuezhi Mao,  
 N. Mardirossian,  A. V. Marenich,  L. A. Martinez-Martinez,  S. A. Maurer,  
 N. J. Mayhall,  S. C. McKenzie,  J.-M. Mewes,  A. F. Morrison,  K. Nanda,  
 T. S. Nguyen-Beck,  R. Olivares-Amaya,  J. A. Parkhill,  T. M. Perrine,  
 F. Plasser,  S. Prager,  A. Prociuk,  D. R. Rehn,  F. Rob,  M. Schneider,  
 N. Sergueev,  S. M. Sharada,  S. Sharma,  D. W. Small,  T. Stauch,  
 T. Stein,  Yu-Chuan Su,  A. J. W. Thom,  T. Tsuchimochi,  L. Vogt,  
 O. Vydrov,  M. A. Watson,  J. Wenzel,  M. de Wergifosse,  T. A. Wesolowski,  
 A. White,  J. Witte,  A. Yamada,  Jun Yang,  K. Yao,  S. Yeganeh,  
 S. R. Yost,  Zhi-Qiang You,  A. Zech,  Igor Ying Zhang,  Xing Zhang,  
 Yan Zhao,  Ying Zhu,  B. R. Brooks,  G. K. L. Chan,  C. J. Cramer,  
 M. S. Gordon,  W. J. Hehre,  A. Klamt,  M. W. Schmidt,  C. D. Sherrill,  
 D. G. Truhlar,  A. Aspuru-Guzik,  R. Baer,  A. T. Bell,  N. A. Besley,  
 Jeng-Da Chai,  A. Dreuw,  B. D. Dunietz,  T. R. Furlani,  Chao-Ping Hsu,  
 Yousung Jung,  Jing Kong,  D. S. Lambrecht,  WanZhen Liang,  C. Ochsenfeld,  
 V. A. Rassolov,  L. V. Slipchenko,  J. E. Subotnik,  T. Van Voorhis,  
 J. M. Herbert,  A. I. Krylov,  P. M. W. Gill,  M. Head-Gordon

 Contributors to earlier versions of Q-Chem not listed above: 
 R. D. Adamson,  B. Austin,  J. Baker,  G. J. O. Beran,  K. Brandhorst,  
 S. T. Brown,  E. F. C. Byrd,  A. K. Chakraborty,  C.-L. Cheng,  
 Siu Hung Chien,  D. M. Chipman,  D. L. Crittenden,  H. Dachsel,  
 R. A. DiStasio Jr.,  R. J. Doerksen,  A. D. Dutoi,  L. Fusti-Molnar,  
 W. A. Goddard III,  A. Golubeva-Zadorozhnaya,  S. R. Gwaltney,  G. Hawkins,  
 A. Heyden,  S. Hirata,  G. Kedziora,  F. J. Keil,  C. Kelley,  Jihan Kim,  
 R. A. King,  R. Z. Khaliullin,  P. P. Korambath,  W. Kurlancheek,  
 A. M. Lee,  M. S. Lee,  S. V. Levchenko,  Ching Yeh Lin,  D. Liotard,  
 R. C. Lochan,  I. Lotan,  P. E. Maslen,  N. Nair,  D. P. O'Neill,  
 D. Neuhauser,  E. Neuscamman,  C. M. Oana,  R. Olson,  B. Peters,  
 R. Peverati,  P. A. Pieniazek,  Y. M. Rhee,  J. Ritchie,  M. A. Rohrdanz,  
 E. Rosta,  N. J. Russ,  H. F. Schaefer III,  N. E. Schultz,  N. Shenvi,  
 A. C. Simmonett,  A. Sodt,  D. Stuck,  K. S. Thanthiriwatte,  V. Vanovschi,  
 Tao Wang,  A. Warshel,  C. F. Williams,  Q. Wu,  X. Xu,  W. Zhang

 Please cite Q-Chem as follows:
 Y. Shao et al., Mol. Phys. 113, 184-215 (2015)
 DOI: 10.1080/00268976.2014.952696

 Q-Chem 5.0.1 for Intel X86 EM64T Linux

 Parts of Q-Chem use Armadillo 5.200.1 (Boston Tea Smuggler).
 http://arma.sourceforge.net/

 Q-Chem begins on Mon Jan 15 03:33:15 2018  

Host: vega02.cac.cornell.edu
0

     Scratch files written to /scratch/jj585/SOT1001/0648r.save//
 Parallel job on  1  processors

Checking the input file for inconsistencies... 	...done.

--------------------------------------------------------------
User input:
--------------------------------------------------------------
$molecule
0  1
O -2.1268958032 0.4809277348 0.9699613891
C -3.0608664703 1.177416064 0.5119552251
C -4.3877103134 0.6659926201 -0.1372491144
C -4.2397248644 -0.7703886508 -0.7914690669
C -2.8256826382 -1.4245170341 -0.5672888688
O -1.9767497124 -0.9693203539 -1.6360749643
C -0.6180311995 -1.5443786482 -1.4965630889
C 0.2580246609 -0.5917386402 -0.6111024289
O 1.6386987313 -1.1258049142 -0.5810691096
C 2.3258794621 -0.65893194 0.5921122807
C 3.8537701961 -0.9607554307 0.3954939353
C 4.5715656313 -0.2496574345 -0.8239243231
C 3.8827910057 1.0278762145 -1.4334281331
O 4.3668800258 1.75277071 -2.3303610391
O -3.0769620429 2.6058482414 0.5429854367
O 2.690780742 1.3617584536 -0.7195979903
O 1.7750221513 -0.1644022892 1.5976514832
C 2.120411475 2.6300439602 -1.2244558002
C 4.7580748302 -0.4999510396 1.6148161869
C 6.0191308448 -1.4460434695 1.649373172
C 6.7778060674 -0.9622997532 0.3578571072
C 5.8882105243 0.2656528949 -0.088628427
O 5.3342112951 0.7950883264 1.1800917152
H 3.9388613645 -2.0549536939 0.2565742154
H 4.7957181932 -0.9565839853 -1.6427872178
H 4.2042494971 -0.3811982816 2.5665826633
H 6.6152073563 -1.2610246678 2.557589192
H 5.7477710829 -2.5131956384 1.6135264851
H 7.8027564723 -0.6309202911 0.5877626402
H 6.8271484341 -1.7389239254 -0.4226551931
H 6.4268415225 1.059341914 -0.6426966427
O -2.5103296154 -2.30400693 0.2610021467
C -1.8428371811 3.1069501941 1.1941743683
C -5.5257570616 0.3899265407 0.9428763151
C -6.9042441576 0.2919117453 0.1767200044
C -6.7717263915 -1.1212812397 -0.503443603
C -5.3483638805 -1.5749195487 0.0072651487
O -5.2653469498 -1.0006359075 1.3712425426
H -4.7214325172 1.4175891616 -0.8747239324
H -4.4388931394 -0.7345339797 -1.8770481757
H -0.9345511927 2.7867764413 0.6437872962
H -5.5145665613 1.0774969002 1.8109119371
H -7.7421923749 0.3202329925 0.8914644086
H -7.0334637796 1.1070885472 -0.5529260221
H -7.5490864937 -1.8155254105 -0.1466990353
H -6.8211028008 -1.0707915123 -1.6030427566
H -5.1774202287 -2.6681127251 0.0424575149
H -1.7602902877 2.7500123533 2.2409305223
H -1.916903458 4.2097697764 1.1809847356
H 1.2704969342 2.8657473905 -0.5576905752
H 1.7569004869 2.5259129684 -2.2676304907
H 2.8636690844 3.4521144114 -1.1895179105
H 0.2665526455 0.4262725923 -1.0575190565
H -0.1710116426 -0.5132864988 0.4118060965
H -0.1984021148 -1.6206625655 -2.51994753
H -0.6702530996 -2.5511972715 -1.0305139802
$end

$rem
JOBTYPE                   OPT
METHOD                    B3LYP
DFT_D                     d3_op
BASIS                     STO-3G
GEOM_OPT_MAX_CYCLES       100
GEOM_OPT_TOL_GRADIENT     300
GEOM_OPT_TOL_DISPLACEMENT 1200
GEOM_OPT_TOL_ENERGY       100
SYMMETRY                  False
THRESH                    12
SCF_CONVERGENCE           8
MAX_SUB_FILE_NUM          128
MEM_STATIC                400
MEM_TOTAL                 4000
$end
--------------------------------------------------------------
 Adding empirical dispersion correction 
 ----------------------------------------------------------------
 Doing -D3(op) with
 s6 =   1.00000
 s8 =   0.78311
 a1 =   0.30000
 a2 =   4.25000
 n  =  10.00000
 -D3 energy without 3body term =     -0.0677700735 hartrees
 ----------------------------------------------------------------
             Standard Nuclear Orientation (Angstroms)
    I     Atom           X                Y                Z
 ----------------------------------------------------------------
    1      O      -2.1112555142     0.4665189552     0.9810188231
    2      C      -3.0272530052     1.2100315772     0.5623251125
    3      C      -4.3630530865     0.7682978088    -0.1188827985
    4      C      -4.2456565422    -0.6304212819    -0.8556986178
    5      C      -2.8478674617    -1.3291045766    -0.6667979550
    6      O      -1.9846979521    -0.8319840923    -1.7050678959
    7      C      -0.6400833646    -1.4455228874    -1.5961947568
    8      C       0.2543022774    -0.5668190627    -0.6543925760
    9      O       1.6222188611    -1.1335551162    -0.6523579452
   10      C       2.3155406178    -0.7521039336     0.5477846473
   11      C       3.8368199362    -1.0772154191     0.3375037741
   12      C       4.5753319585    -0.3128572761    -0.8364758501
   13      C       3.9183822547     1.0137298010    -1.3718088464
   14      O       4.4223588255     1.7784159754    -2.2236101834
   15      O      -3.0106410127     2.6341956604     0.6768726254
   16      O       2.7316893463     1.3328221489    -0.6425219990
   17      O       1.7724239783    -0.3045822587     1.5792210761
   18      C       2.1925079905     2.6413198657    -1.0736459090
   19      C       4.7468942867    -0.7095459764     1.5838737708
   20      C       5.9857415809    -1.6849874074     1.5660204956
   21      C       6.7601690097    -1.1442653206     0.3068574384
   22      C       5.9007023041     0.1279588404    -0.0691211974
   23      O       5.3542596282     0.5950041117     1.2270797661
   24      H       3.8972687783    -2.1630973225     0.1349810246
   25      H       4.7862523126    -0.9757036800    -1.6947725405
   26      H       4.1923782571    -0.6338452216     2.5396276677
   27      H       6.5825015993    -1.5672328421     2.4849366214
   28      H       5.6900709685    -2.7416485354     1.4671215247
   29      H       7.7915932159    -0.8507159085     0.5582238719
   30      H       6.7945813568    -1.8748655387    -0.5176535298
   31      H       6.4595009031     0.9399961593    -0.5744891006
   32      O      -2.5559132091    -2.2625792033     0.1093488404
   33      C      -1.7677793729     3.0676593406     1.3592351011
   34      C      -5.5111848944     0.4559852461     0.9404981715
   35      C      -6.8886771956     0.4348750253     0.1666129183
   36      C      -6.7861140775    -0.9388268014    -0.5947818558
   37      C      -5.3754753097    -1.4543833861    -0.1080872320
   38      O      -5.2844012643    -0.9628982413     1.2873609803
   39      H      -4.6766505841     1.5692483069    -0.8118993112
   40      H      -4.4398759823    -0.5265614122    -1.9377926513
   41      H      -0.8650318135     2.7592631944     0.7932322222
   42      H      -5.4874550986     1.0911894679     1.8473148899
   43      H      -7.7284279931     0.4407589555     0.8797768888
   44      H      -6.9963960775     1.2940868253    -0.5143760524
   45      H      -7.5805522532    -1.6345522878    -0.2811508362
   46      H      -6.8301934167    -0.8230097870    -1.6896558083
   47      H      -5.2298271017    -2.5514289850    -0.1365320748
   48      H      -1.6973813043     2.6483218143     2.3834993291
   49      H      -1.8164377987     4.1707826994     1.4104408032
   50      H       1.3457388411     2.8572575985    -0.3962689076
   51      H       1.8306150526     2.6067975974    -2.1219963520
   52      H       2.9543209844     3.4425101414    -0.9888670127
   53      H       0.2878918348     0.4750781759    -1.0404356919
   54      H      -0.1766512788    -0.5383878327     0.3703217438
   55      H      -0.2184828760    -1.4715445280    -2.6212798368
   56      H      -0.7171714594    -2.4763856279    -1.1900025923
 ----------------------------------------------------------------
 Molecular Point Group                 C1    NOp =  1
 Largest Abelian Subgroup              C1    NOp =  1
 Nuclear Repulsion Energy =  3114.1451387603 hartrees
 There are      113 alpha and      113 beta electrons
 Requested basis set is STO-3G
 There are 86 shells and 176 basis functions

 Total QAlloc Memory Limit   4000 MB
 Mega-Array Size       392 MB
 MEM_STATIC part       400 MB
 A cutoff of  1.0D-12 yielded   2134 shell pairs
 There are     10021 function pairs
 
 -------------------------------------------------------
 OpenMP Integral Computing Module                       
 Release: version 1.0, May 2013, Q-Chem Inc. Pittsburgh 
 -------------------------------------------------------
 Integral Job Info:
 Integral job number is                      11
 Integral operator is                         1
 short-range coefficients                     0
 long-range coefficients              100000000
 Omega coefficients                           0
 if combine SR and LR in K                    0
 Integral screening is                        0
 Integral computing path is                   2
 max size of driver memory is            800000
 size of driver memory is                 45569
 size of scratch memory is              1046100
 max col of scratch BK array                289
 max len of scratch array in speh3           22
 max len of scratch index in speh4            8
 max int batch size is                      520
 min int batch size is                       52
 fixed nKL is                                52
 max L of basis functions is                  1
 order of int derivative is                   0
 number of shells is                         86
 number of basis is                         176
 number of cartesian basis is               176
 number of contracted shell pairs          2134
 number of primitive shell pairs          10952
 maxK2 (contraction) of shell pair            9
 max number of K2 of shell pair               1
 max number of CS2 of shell pair            323
 max number of PS2 of shell pair           1232
 mem total for path MDJ                   49782
 -------------------------------------------------------
 Smallest overlap matrix eigenvalue = 2.13E-01

 Scale SEOQF with 1.000000e-02/1.000000e-01/1.000000e-01

 Standard Electronic Orientation quadrupole field applied
 Nucleus-field energy     =     0.0000000179 hartrees
 Guess from superposition of atomic densities
 Warning:  Energy on first SCF cycle will be non-variational
 A restricted hybrid HF-DFT SCF calculation will be
 performed using Pulay DIIS extrapolation
 Exchange:     0.2000 Hartree-Fock + 0.0800 Slater + 0.7200 B88
 Correlation:  0.1900 VWN1RPA + 0.8100 LYP
 Using SG-1 standard quadrature grid
 Dispersion:   Grimme D3
 SCF converges when DIIS error is below 1.0E-08
 using 48 threads for integral computing
 -------------------------------------------------------
 OpenMP Integral computing Module                
 Release: version 1.0, May 2013, Q-Chem Inc. Pittsburgh 
 -------------------------------------------------------
 -------------------------------------------------------
 OpenMP BLAS3 based DFT computing Module                
 Release: version 1.0, May 2013, Q-Chem Inc. Pittsburgh 
 -------------------------------------------------------
 ---------------------------------------
  Cycle       Energy         DIIS Error
 ---------------------------------------
    1   -1507.6374383484      7.47E-02
    2   -1509.7360296717      1.05E-02
    3   -1507.2699364047      2.78E-02
    4   -1510.1905620049      4.47E-03
    5   -1510.2726139772      1.47E-03
    6   -1510.2818527325      3.04E-04
    7   -1510.2822221717      1.14E-04
    8   -1510.2822700453      4.46E-05
    9   -1510.2822786816      1.02E-05
   10   -1510.2822791189      3.21E-06
   11   -1510.2822791544      1.64E-06
   12   -1510.2822791664      2.87E-07
   13   -1510.2822791668      1.03E-07
   14   -1510.2822791668      5.82E-08
   15   -1510.2822791668      1.65E-08
   16   -1510.2822791668      5.22E-09 Convergence criterion met
 ---------------------------------------
 SCF time:  CPU 117.57 s  wall 2.51 s
 SCF   energy in the final basis set = -1510.28227917
 Total energy in the final basis set = -1510.28227917
 
 --------------------------------------------------------------
 
                    Orbital Energies (a.u.)
 --------------------------------------------------------------
 
 Alpha MOs
 -- Occupied --
-18.943 -18.943 -18.922 -18.916 -18.889 -18.884 -18.884 -18.874
-18.868 -18.865 -10.106 -10.102 -10.094 -10.094 -10.070 -10.070
-10.063 -10.063 -10.059 -10.058 -10.055 -10.054 -10.041 -10.039
-10.036 -10.032 -10.022 -10.021 -10.019 -10.017  -1.020  -1.016
 -1.003  -0.997  -0.971  -0.968  -0.943  -0.938  -0.931  -0.925
 -0.765  -0.761  -0.726  -0.722  -0.710  -0.703  -0.691  -0.668
 -0.666  -0.613  -0.597  -0.578  -0.546  -0.542  -0.537  -0.535
 -0.513  -0.508  -0.484  -0.476  -0.464  -0.457  -0.453  -0.444
 -0.435  -0.432  -0.422  -0.418  -0.417  -0.413  -0.409  -0.395
 -0.389  -0.379  -0.376  -0.366  -0.362  -0.357  -0.352  -0.345
 -0.342  -0.341  -0.335  -0.330  -0.329  -0.326  -0.319  -0.312
 -0.307  -0.306  -0.305  -0.301  -0.297  -0.292  -0.278  -0.274
 -0.268  -0.260  -0.245  -0.244  -0.238  -0.235  -0.232  -0.185
 -0.182  -0.171  -0.162  -0.159  -0.155  -0.147  -0.146  -0.143
 -0.142
 -- Virtual --
  0.089   0.098   0.112   0.113   0.217   0.239   0.246   0.251
  0.254   0.279   0.284   0.294   0.305   0.315   0.327   0.331
  0.332   0.343   0.344   0.352   0.357   0.362   0.368   0.371
  0.378   0.381   0.386   0.392   0.399   0.402   0.408   0.410
  0.411   0.418   0.419   0.419   0.420   0.423   0.429   0.430
  0.431   0.437   0.437   0.444   0.446   0.451   0.465   0.468
  0.468   0.472   0.485   0.493   0.494   0.506   0.507   0.540
  0.543   0.550   0.556   0.634   0.642   0.656   0.656
 --------------------------------------------------------------
 
          Ground-State Mulliken Net Atomic Charges

     Atom                 Charge (a.u.)
  ----------------------------------------
      1 O                    -0.207725
      2 C                     0.212007
      3 C                    -0.079194
      4 C                    -0.080207
      5 C                     0.214121
      6 O                    -0.180160
      7 C                    -0.051139
      8 C                    -0.055063
      9 O                    -0.181921
     10 C                     0.221983
     11 C                    -0.080705
     12 C                    -0.075935
     13 C                     0.213083
     14 O                    -0.216288
     15 O                    -0.168099
     16 O                    -0.165970
     17 O                    -0.213952
     18 C                    -0.125448
     19 C                     0.023348
     20 C                    -0.142423
     21 C                    -0.145096
     22 C                     0.024132
     23 O                    -0.192189
     24 H                     0.083025
     25 H                     0.086755
     26 H                     0.091052
     27 H                     0.077754
     28 H                     0.073430
     29 H                     0.078131
     30 H                     0.073478
     31 H                     0.085338
     32 O                    -0.210038
     33 C                    -0.128021
     34 C                     0.026040
     35 C                    -0.143121
     36 C                    -0.144483
     37 C                     0.025963
     38 O                    -0.185556
     39 H                     0.086435
     40 H                     0.085256
     41 H                     0.087749
     42 H                     0.083986
     43 H                     0.078650
     44 H                     0.073961
     45 H                     0.078574
     46 H                     0.073471
     47 H                     0.088646
     48 H                     0.094154
     49 H                     0.091838
     50 H                     0.089675
     51 H                     0.088556
     52 H                     0.094660
     53 H                     0.075955
     54 H                     0.109404
     55 H                     0.085832
     56 H                     0.096293
  ----------------------------------------
  Sum of atomic charges =    -0.000000

 -----------------------------------------------------------------
                    Cartesian Multipole Moments
 -----------------------------------------------------------------
    Charge (ESU x 10^10)
                -0.0000
    Dipole Moment (Debye)
         X      -1.1434      Y       1.0091      Z      -2.0815
       Tot       2.5803
    Quadrupole Moments (Debye-Ang)
        XX    -144.3438     XY     -14.6080     YY    -155.3421
        XZ       6.8731     YZ       5.6288     ZZ    -164.6243
    Octopole Moments (Debye-Ang^2)
       XXX     -55.2755    XXY     -42.4941    XYY       9.6059
       YYY      26.5758    XXZ     -17.2598    XYZ     -14.8874
       YYZ       3.7393    XZZ     -15.8373    YZZ      -0.0685
       ZZZ      10.3698
    Hexadecapole Moments (Debye-Ang^3)
      XXXX  -16641.5372   XXXY    -223.8794   XXYY   -3302.7172
      XYYY      80.5024   YYYY   -2014.2429   XXXZ     130.5111
      XXYZ      76.3291   XYYZ       7.1323   YYYZ      27.5301
      XXZZ   -3243.8053   XYZZ     -64.4576   YYZZ    -558.3640
      XZZZ      -2.2484   YZZZ      26.4360   ZZZZ   -1256.1609
 -----------------------------------------------------------------
 Calculating analytic gradient of the SCF energy
 Gradient of SCF Energy
            1           2           3           4           5           6
    1  -0.0006785   0.0010691  -0.0013379   0.0005894   0.0013022  -0.0003181
    2   0.0001358   0.0002269  -0.0017975   0.0003098   0.0036795  -0.0007661
    3   0.0015666  -0.0025920   0.0039515  -0.0051002   0.0040371  -0.0005859
            7           8           9          10          11          12
    1  -0.0002474   0.0006459  -0.0008739  -0.0006585   0.0028465  -0.0019006
    2  -0.0010222   0.0017366  -0.0003982  -0.0053147   0.0068564  -0.0027455
    3  -0.0018248  -0.0005391   0.0005904   0.0010139   0.0027556  -0.0029320
           13          14          15          16          17          18
    1  -0.0018743   0.0018209   0.0000777  -0.0000221  -0.0000241  -0.0000035
    2  -0.0023767   0.0020151  -0.0000268   0.0001032  -0.0000572  -0.0000512
    3  -0.0032225   0.0028866  -0.0000875  -0.0000999   0.0000999   0.0000006
           19          20          21          22          23          24
    1  -0.0000648  -0.0000196  -0.0001001  -0.0001438   0.0000433  -0.0001093
    2   0.0000609   0.0001492  -0.0000566  -0.0003333   0.0000309  -0.0000153
    3  -0.0000374   0.0000465   0.0000306  -0.0000082   0.0000825  -0.0000863
           25          26          27          28          29          30
    1   0.0000156  -0.0000407   0.0001238   0.0000041  -0.0000365   0.0000872
    2   0.0000702   0.0000248  -0.0000718   0.0000043  -0.0000020  -0.0000512
    3   0.0000952  -0.0000012   0.0000275  -0.0000760   0.0000040  -0.0000803
           31          32          33          34          35          36
    1   0.0000578   0.0001308  -0.0000458   0.0001352  -0.0001653  -0.0000093
    2  -0.0000256  -0.0001138   0.0000045  -0.0002973   0.0002026  -0.0002991
    3  -0.0000016   0.0000320   0.0000553  -0.0002931  -0.0001854   0.0000461
           37          38          39          40          41          42
    1  -0.0002628   0.0000704  -0.0000551   0.0000200  -0.0000076  -0.0000046
    2   0.0003705  -0.0000569   0.0000086  -0.0000687  -0.0000054  -0.0000142
    3   0.0001062   0.0000912   0.0000580   0.0000387   0.0000004   0.0001084
           43          44          45          46          47          48
    1  -0.0000093   0.0000934   0.0000207   0.0000007  -0.0000437  -0.0000098
    2  -0.0000334  -0.0000178   0.0000257   0.0000072   0.0000081  -0.0000342
    3   0.0000141   0.0000523   0.0000118  -0.0000392   0.0000093  -0.0000291
           49          50          51          52          53          54
    1   0.0000052  -0.0000082   0.0000049   0.0000109  -0.0000439  -0.0000036
    2  -0.0000013  -0.0000206   0.0000281  -0.0000116  -0.0000357   0.0000135
    3   0.0000048  -0.0000001   0.0000122   0.0000098   0.0000028  -0.0000333
           55          56
    1  -0.0000081  -0.0000452
    2   0.0000224   0.0000272
    3   0.0000162  -0.0000026
 Max gradient component =       6.856E-03
 RMS gradient           =       1.216E-03
 Gradient time:  CPU 31.33 s  wall 0.67 s
 Geometry Optimization Parameters
   NAtoms,    NIC,     NZ,  NCons,   NDum,   NFix, NCnnct, MaxDiis
       56     458       0       0       0       0       0       0


** GEOMETRY OPTIMIZATION IN DELOCALIZED INTERNAL COORDINATES **
   Searching for a Minimum

   Optimization Cycle:   1

                       Coordinates (Angstroms)
     ATOM                X               Y               Z
      1  O        -2.1112555142    0.4665189552    0.9810188231
      2  C        -3.0272530052    1.2100315772    0.5623251125
      3  C        -4.3630530865    0.7682978088   -0.1188827985
      4  C        -4.2456565422   -0.6304212819   -0.8556986178
      5  C        -2.8478674617   -1.3291045766   -0.6667979550
      6  O        -1.9846979521   -0.8319840923   -1.7050678959
      7  C        -0.6400833646   -1.4455228874   -1.5961947568
      8  C         0.2543022774   -0.5668190627   -0.6543925760
      9  O         1.6222188611   -1.1335551162   -0.6523579452
     10  C         2.3155406178   -0.7521039336    0.5477846473
     11  C         3.8368199362   -1.0772154191    0.3375037741
     12  C         4.5753319585   -0.3128572761   -0.8364758501
     13  C         3.9183822547    1.0137298010   -1.3718088464
     14  O         4.4223588255    1.7784159754   -2.2236101834
     15  O        -3.0106410127    2.6341956604    0.6768726254
     16  O         2.7316893463    1.3328221489   -0.6425219990
     17  O         1.7724239783   -0.3045822587    1.5792210761
     18  C         2.1925079905    2.6413198657   -1.0736459090
     19  C         4.7468942867   -0.7095459764    1.5838737708
     20  C         5.9857415809   -1.6849874074    1.5660204956
     21  C         6.7601690097   -1.1442653206    0.3068574384
     22  C         5.9007023041    0.1279588404   -0.0691211974
     23  O         5.3542596282    0.5950041117    1.2270797661
     24  H         3.8972687783   -2.1630973225    0.1349810246
     25  H         4.7862523126   -0.9757036800   -1.6947725405
     26  H         4.1923782571   -0.6338452216    2.5396276677
     27  H         6.5825015993   -1.5672328421    2.4849366214
     28  H         5.6900709685   -2.7416485354    1.4671215247
     29  H         7.7915932159   -0.8507159085    0.5582238719
     30  H         6.7945813568   -1.8748655387   -0.5176535298
     31  H         6.4595009031    0.9399961593   -0.5744891006
     32  O        -2.5559132091   -2.2625792033    0.1093488404
     33  C        -1.7677793729    3.0676593406    1.3592351011
     34  C        -5.5111848944    0.4559852461    0.9404981715
     35  C        -6.8886771956    0.4348750253    0.1666129183
     36  C        -6.7861140775   -0.9388268014   -0.5947818558
     37  C        -5.3754753097   -1.4543833861   -0.1080872320
     38  O        -5.2844012643   -0.9628982413    1.2873609803
     39  H        -4.6766505841    1.5692483069   -0.8118993112
     40  H        -4.4398759823   -0.5265614122   -1.9377926513
     41  H        -0.8650318135    2.7592631944    0.7932322222
     42  H        -5.4874550986    1.0911894679    1.8473148899
     43  H        -7.7284279931    0.4407589555    0.8797768888
     44  H        -6.9963960775    1.2940868253   -0.5143760524
     45  H        -7.5805522532   -1.6345522878   -0.2811508362
     46  H        -6.8301934167   -0.8230097870   -1.6896558083
     47  H        -5.2298271017   -2.5514289850   -0.1365320748
     48  H        -1.6973813043    2.6483218143    2.3834993291
     49  H        -1.8164377987    4.1707826994    1.4104408032
     50  H         1.3457388411    2.8572575985   -0.3962689076
     51  H         1.8306150526    2.6067975974   -2.1219963520
     52  H         2.9543209844    3.4425101414   -0.9888670127
     53  H         0.2878918348    0.4750781759   -1.0404356919
     54  H        -0.1766512788   -0.5383878327    0.3703217438
     55  H        -0.2184828760   -1.4715445280   -2.6212798368
     56  H        -0.7171714594   -2.4763856279   -1.1900025923
   Point Group: c1    Number of degrees of freedom:   162


   Energy is  -1510.282279167


 Attempting to Generate Delocalized Internal Coordinates

162 Hessian modes will be used to form the next step
  Hessian Eigenvalues:
     0.002000    0.002000    0.002000    0.002000    0.002000    0.002681
     0.002772    0.004185    0.004335    0.004714    0.004768    0.004801
     0.004877    0.004974    0.005137    0.006800    0.006817    0.010511
     0.010679    0.011815    0.011828    0.021611    0.021747    0.025931
     0.026299    0.030531    0.030936    0.034926    0.035445    0.038970
     0.041264    0.041918    0.042016    0.043148    0.046771    0.047433
     0.047437    0.050217    0.050445    0.050993    0.051188    0.053452
     0.054314    0.054340    0.055204    0.055582    0.056272    0.056727
     0.057687    0.058883    0.058975    0.060415    0.060611    0.063114
     0.063898    0.064081    0.064599    0.069769    0.070126    0.072963
     0.073181    0.091878    0.092159    0.092804    0.092951    0.095804
     0.096709    0.096796    0.096930    0.102495    0.102921    0.108588
     0.110024    0.110818    0.111408    0.120728    0.121095    0.135352
     0.135856    0.157457    0.157620    0.160000    0.160000    0.160000
     0.160000    0.160000    0.160000    0.163138    0.164056    0.218628
     0.219385    0.219759    0.220698    0.227784    0.228844    0.238513
     0.238724    0.239587    0.239804    0.245115    0.245961    0.247985
     0.248773    0.249720    0.249938    0.250000    0.250000    0.250000
     0.250000    0.250000    0.250000    0.250000    0.250000    0.253264
     0.253633    0.256946    0.257029    0.260357    0.261654    0.265603
     0.291435    0.293119    0.306326    0.307980    0.323880    0.324287
     0.325280    0.326431    0.326803    0.327044    0.327267    0.327377
     0.328420    0.328600    0.328754    0.329157    0.329993    0.330637
     0.330938    0.331596    0.331787    0.332131    0.334433    0.334623
     0.334768    0.334910    0.334952    0.335022    0.335054    0.335223
     0.342693    0.343436    0.344928    0.346335    0.397481    0.399238
     0.411395    0.411536    0.825514    0.829710    0.837398    0.837542

 Minimum Search - Taking Simple RFO Step
 Searching for Lamda that Minimizes Along All modes
 Value Taken    Lamda =  -0.00813658
 Calculated Step too Large.  Step scaled by  0.381119
 Step Taken.  Stepsize is  0.300000

                             Maximum     Tolerance    Cnvgd?
         Gradient           0.003947      0.000300      NO
         Displacement       0.109768      0.001200      NO
         Energy change     *********      0.000001      NO


 New Cartesian Coordinates Obtained by Inverse Iteration

 Displacement from previous Coordinates is:  2.782542
 Adding empirical dispersion correction 
 ----------------------------------------------------------------
 Doing -D3(op) with
 s6 =   1.00000
 s8 =   0.78311
 a1 =   0.30000
 a2 =   4.25000
 n  =  10.00000
 -D3 energy without 3body term =     -0.0683599850 hartrees
 ----------------------------------------------------------------
             Standard Nuclear Orientation (Angstroms)
    I     Atom           X                Y                Z
 ----------------------------------------------------------------
    1      O      -1.9879890102     0.3151317013     0.7803299201
    2      C      -2.9189137247     1.0870298959     0.4566769314
    3      C      -4.3123399401     0.6891873718    -0.1296158099
    4      C      -4.2905091023    -0.7129837982    -0.8685877128
    5      C      -2.9038942163    -1.4523391926    -0.7791799171
    6      O      -2.0589655893    -0.8964669126    -1.8025121589
    7      C      -0.6849853800    -1.4404427714    -1.6902797391
    8      C       0.1609911683    -0.5158440523    -0.7476400910
    9      O       1.5568075314    -1.0098507566    -0.7427645705
   10      C       2.2243799719    -0.5968016812     0.4615130193
   11      C       3.7376985072    -0.9876252967     0.3153894688
   12      C       4.5676027190    -0.2214150002    -0.7944354718
   13      C       3.9908575357     1.1439068500    -1.3249544079
   14      O       4.5287641893     1.8723215754    -2.1877236222
   15      O      -2.8523541334     2.5091664851     0.5784861335
   16      O       2.7972817617     1.5075990332    -0.6285116076
   17      O       1.6526961930    -0.1621314780     1.4829376233
   18      C       2.3144699314     2.8309739688    -1.0806239933
   19      C       4.5989714749    -0.6930813267     1.6153380331
   20      C       5.7959117671    -1.7195638737     1.6299295545
   21      C       6.6557900517    -1.1770028345     0.4281550065
   22      C       5.8701169121     0.1410123995     0.0484247875
   23      O       5.2774981003     0.5939246100     1.3290796764
   24      H       3.7617331154    -2.0696253593     0.0863082192
   25      H       4.7904773636    -0.8701463117    -1.6605485902
   26      H       4.0005621248    -0.6202912710     2.5444574797
   27      H       6.3488201120    -1.6529216274     2.5807909162
   28      H       5.4624536889    -2.7595029608     1.4847697052
   29      H       7.6843292383    -0.9352674737     0.7394492024
   30      H       6.7018246059    -1.8848560897    -0.4153398822
   31      H       6.4864337738     0.9424338713    -0.4042517558
   32      O      -2.5800953517    -2.3917679723    -0.0231626465
   33      C      -1.5441207957     2.9024232648     1.1548398463
   34      C      -5.3922261914     0.4107764591     1.0085859787
   35      C      -6.8207220819     0.4328000596     0.3337443691
   36      C      -6.8145435758    -0.9425354632    -0.4316172866
   37      C      -5.3901748889    -1.5028903748    -0.0442467920
   38      O      -5.1862077778    -1.0150586809     1.3405433507
   39      H      -4.6491498454     1.5005901507    -0.7991998065
   40      H      -4.5552174523    -0.5992975627    -1.9346566710
   41      H      -0.7018941491     2.5738562253     0.5120905372
   42      H      -5.2852036421     1.0441296046     1.9106231753
   43      H      -7.6075888813     0.4638923380     1.1042459414
   44      H      -6.9497980182     1.2956102433    -0.3389871764
   45      H      -7.6065069610    -1.6134665399    -0.0625524027
   46      H      -6.9314977078    -0.8240416492    -1.5208072059
   47      H      -5.2808349624    -2.6038870167    -0.0816113624
   48      H      -1.3986041099     2.4730463912     2.1669652130
   49      H      -1.5570734785     4.0060173900     1.2163697390
   50      H       1.4586422453     3.0801507937    -0.4264436798
   51      H       1.9784201043     2.8019399580    -2.1377154265
   52      H       3.1009017074     3.6062332602    -0.9808697071
   53      H       0.1406927510     0.5264187372    -1.1336865865
   54      H      -0.2725955423    -0.5099740872     0.2763598995
   55      H      -0.2602948697    -1.4437584599    -2.7144256509
   56      H      -0.7093586063    -2.4742612203    -1.2849797850
 ----------------------------------------------------------------
 Molecular Point Group                 C1    NOp =  1
 Largest Abelian Subgroup              C1    NOp =  1
 Nuclear Repulsion Energy =  3126.5172143072 hartrees
 There are      113 alpha and      113 beta electrons
 Applying Cartesian multipole field
    Component          Value
    ---------          -----
     (2,0,0)        1.00000E-12
     (0,2,0)        2.00000E-11
     (0,0,2)       -3.00000E-11
 Nucleus-field energy     =     0.0000000180 hartrees
 Requested basis set is STO-3G
 There are 86 shells and 176 basis functions
 A cutoff of  1.0D-12 yielded   2151 shell pairs
 There are     10116 function pairs
 Smallest overlap matrix eigenvalue = 2.13E-01
 Guess MOs from SCF MO coefficient file
 Reading MOs from coefficient file
 Reading MOs from coefficient file
 A restricted hybrid HF-DFT SCF calculation will be
 performed using Pulay DIIS extrapolation
 Exchange:     0.2000 Hartree-Fock + 0.0800 Slater + 0.7200 B88
 Correlation:  0.1900 VWN1RPA + 0.8100 LYP
 Using SG-1 standard quadrature grid
 Dispersion:   Grimme D3
 SCF converges when DIIS error is below 1.0E-08
 Geometry optimization detected.  Setting ReadMinima to 0
 Setting SaveMinima to 0
 using 48 threads for integral computing
 -------------------------------------------------------
 OpenMP Integral computing Module                
 Release: version 1.0, May 2013, Q-Chem Inc. Pittsburgh 
 -------------------------------------------------------
 -------------------------------------------------------
 OpenMP BLAS3 based DFT computing Module                
 Release: version 1.0, May 2013, Q-Chem Inc. Pittsburgh 
 -------------------------------------------------------
 ---------------------------------------
  Cycle       Energy         DIIS Error
 ---------------------------------------
    1   -1510.2302066984      3.55E-03
    2   -1510.2819433074      2.71E-04
    3   -1510.2819182932      3.67E-04
    4   -1510.2824192004      1.46E-04
    5   -1510.2825058994      4.35E-05
    6   -1510.2825139910      1.48E-05
    7   -1510.2825149209      6.00E-06
    8   -1510.2825150724      1.77E-06
    9   -1510.2825150866      3.91E-07
   10   -1510.2825150872      2.47E-07
   11   -1510.2825150874      1.08E-07
   12   -1510.2825150875      2.12E-08
   13   -1510.2825150876      7.46E-09 Convergence criterion met
 ---------------------------------------
 SCF time:  CPU 92.60 s  wall 1.93 s
 SCF   energy in the final basis set = -1510.28251509
 Total energy in the final basis set = -1510.28251509
 
 --------------------------------------------------------------
 
                    Orbital Energies (a.u.)
 --------------------------------------------------------------
 
 Alpha MOs
 -- Occupied --
-18.945 -18.943 -18.921 -18.915 -18.890 -18.888 -18.883 -18.873
-18.869 -18.862 -10.108 -10.101 -10.094 -10.092 -10.070 -10.070
-10.064 -10.062 -10.059 -10.058 -10.053 -10.050 -10.042 -10.038
-10.037 -10.031 -10.022 -10.021 -10.019 -10.017  -1.022  -1.016
 -1.003  -0.996  -0.972  -0.967  -0.945  -0.938  -0.931  -0.924
 -0.765  -0.760  -0.726  -0.721  -0.710  -0.703  -0.690  -0.669
 -0.666  -0.612  -0.597  -0.577  -0.547  -0.541  -0.538  -0.534
 -0.514  -0.508  -0.483  -0.477  -0.463  -0.457  -0.453  -0.443
 -0.435  -0.431  -0.422  -0.419  -0.416  -0.413  -0.409  -0.396
 -0.389  -0.379  -0.376  -0.365  -0.362  -0.359  -0.352  -0.345
 -0.342  -0.340  -0.335  -0.330  -0.329  -0.325  -0.319  -0.313
 -0.307  -0.306  -0.305  -0.302  -0.296  -0.291  -0.279  -0.275
 -0.267  -0.262  -0.244  -0.243  -0.237  -0.235  -0.231  -0.186
 -0.181  -0.170  -0.162  -0.160  -0.155  -0.148  -0.146  -0.142
 -0.141
 -- Virtual --
  0.087   0.099   0.111   0.115   0.218   0.238   0.246   0.251
  0.255   0.281   0.284   0.293   0.305   0.315   0.326   0.331
  0.332   0.343   0.344   0.353   0.356   0.364   0.370   0.370
  0.378   0.382   0.383   0.394   0.398   0.404   0.409   0.410
  0.413   0.418   0.418   0.419   0.420   0.423   0.428   0.430
  0.431   0.437   0.437   0.444   0.447   0.452   0.464   0.467
  0.469   0.481   0.485   0.493   0.499   0.506   0.508   0.539
  0.544   0.549   0.556   0.635   0.643   0.655   0.657
 --------------------------------------------------------------
 
          Ground-State Mulliken Net Atomic Charges

     Atom                 Charge (a.u.)
  ----------------------------------------
      1 O                    -0.207238
      2 C                     0.214430
      3 C                    -0.078926
      4 C                    -0.080119
      5 C                     0.214573
      6 O                    -0.180870
      7 C                    -0.051405
      8 C                    -0.059480
      9 O                    -0.182625
     10 C                     0.221173
     11 C                    -0.080747
     12 C                    -0.076208
     13 C                     0.212987
     14 O                    -0.216340
     15 O                    -0.167298
     16 O                    -0.165570
     17 O                    -0.216337
     18 C                    -0.125137
     19 C                     0.023360
     20 C                    -0.142492
     21 C                    -0.145034
     22 C                     0.024122
     23 O                    -0.192265
     24 H                     0.083403
     25 H                     0.086754
     26 H                     0.090844
     27 H                     0.077670
     28 H                     0.073433
     29 H                     0.077972
     30 H                     0.073490
     31 H                     0.084678
     32 O                    -0.209852
     33 C                    -0.128352
     34 C                     0.026033
     35 C                    -0.143115
     36 C                    -0.144449
     37 C                     0.025770
     38 O                    -0.185751
     39 H                     0.087217
     40 H                     0.085020
     41 H                     0.088424
     42 H                     0.084166
     43 H                     0.078766
     44 H                     0.073951
     45 H                     0.078589
     46 H                     0.073525
     47 H                     0.088983
     48 H                     0.095356
     49 H                     0.091819
     50 H                     0.089366
     51 H                     0.088743
     52 H                     0.094491
     53 H                     0.071867
     54 H                     0.117352
     55 H                     0.085016
     56 H                     0.096271
  ----------------------------------------
  Sum of atomic charges =    -0.000000

 -----------------------------------------------------------------
                    Cartesian Multipole Moments
 -----------------------------------------------------------------
    Charge (ESU x 10^10)
                 0.0000
    Dipole Moment (Debye)
         X      -1.3338      Y       1.1058      Z      -1.9039
       Tot       2.5742
    Quadrupole Moments (Debye-Ang)
        XX    -144.4832     XY     -14.1026     YY    -155.8087
        XZ       6.5779     YZ       4.8209     ZZ    -164.6786
    Octopole Moments (Debye-Ang^2)
       XXX     -67.5860    XXY     -42.7112    XYY      11.9238
       YYY      29.0745    XXZ     -11.7563    XYZ     -13.6396
       YYZ       2.9306    XZZ     -16.3589    YZZ      -1.8114
       ZZZ      14.4737
    Hexadecapole Moments (Debye-Ang^3)
      XXXX  -16321.4460   XXXY    -361.6631   XXYY   -3251.8521
      XYYY     -69.8448   YYYY   -2039.9222   XXXZ     114.2227
      XXYZ      84.9643   XYYZ       6.0172   YYYZ      48.1186
      XXZZ   -3195.9287   XYZZ    -116.3208   YYZZ    -566.0616
      XZZZ     -20.0747   YZZZ      49.9298   ZZZZ   -1256.2585
 -----------------------------------------------------------------
 Calculating analytic gradient of the SCF energy
 Gradient of SCF Energy
            1           2           3           4           5           6
    1   0.0051787   0.0004560  -0.0016852   0.0006976  -0.0023731   0.0006533
    2  -0.0020883  -0.0013666  -0.0012090   0.0030277  -0.0023798   0.0005034
    3  -0.0043258  -0.0002068   0.0020626  -0.0016632  -0.0013526   0.0002877
            7           8           9          10          11          12
    1  -0.0005265  -0.0033346  -0.0025004   0.0005007   0.0012621  -0.0020618
    2  -0.0004910   0.0023105  -0.0025683   0.0034861   0.0024840  -0.0024706
    3  -0.0003935   0.0004276   0.0014068  -0.0012562   0.0031820  -0.0032987
           13          14          15          16          17          18
    1   0.0005701   0.0007328   0.0001927  -0.0000568   0.0001074   0.0002593
    2   0.0007792   0.0010750   0.0007966   0.0010619  -0.0031434   0.0003377
    3   0.0012525   0.0009567  -0.0004180  -0.0013854   0.0004849   0.0001177
           19          20          21          22          23          24
    1   0.0004167  -0.0000587  -0.0002727  -0.0002060   0.0001729   0.0004819
    2  -0.0003291   0.0000774  -0.0001117   0.0000842   0.0001246  -0.0004009
    3  -0.0003331   0.0002572   0.0001112  -0.0003127  -0.0000276   0.0001973
           25          26          27          28          29          30
    1  -0.0004009  -0.0000639   0.0000942  -0.0000877  -0.0000562   0.0001419
    2  -0.0005199  -0.0000327  -0.0000282  -0.0000258   0.0000372  -0.0000665
    3   0.0003994  -0.0000768   0.0000344  -0.0001141  -0.0000125  -0.0001095
           31          32          33          34          35          36
    1   0.0001169   0.0017422  -0.0003380   0.0004120  -0.0003684   0.0002792
    2   0.0000919   0.0016018  -0.0000329   0.0001919   0.0000561  -0.0000664
    3  -0.0000343   0.0019497  -0.0002767   0.0001234  -0.0000617  -0.0002721
           37          38          39          40          41          42
    1   0.0003678  -0.0002089  -0.0002047   0.0005825   0.0000466   0.0000492
    2  -0.0001655  -0.0003293   0.0001872   0.0000526   0.0001013   0.0000078
    3   0.0005978  -0.0003274   0.0001103   0.0000347  -0.0000124  -0.0000312
           43          44          45          46          47          48
    1   0.0000468  -0.0000337  -0.0000458  -0.0000056  -0.0000952  -0.0000602
    2  -0.0000069   0.0000046  -0.0000165   0.0000275  -0.0000055   0.0000169
    3  -0.0000480   0.0000367   0.0000465  -0.0000151   0.0000340   0.0001036
           49          50          51          52          53          54
    1   0.0000558   0.0000089   0.0000171   0.0000750   0.0002741  -0.0008218
    2  -0.0000123   0.0000202   0.0001034   0.0000005  -0.0004380  -0.0007158
    3   0.0000054  -0.0000076  -0.0000008  -0.0000266   0.0002438   0.0017289
           55          56
    1  -0.0000698  -0.0000557
    2   0.0003884  -0.0000167
    3   0.0001358   0.0000722
 Max gradient component =       5.179E-03
 RMS gradient           =       1.117E-03
 Gradient time:  CPU 31.72 s  wall 0.67 s
 Geometry Optimization Parameters
   NAtoms,    NIC,     NZ,  NCons,   NDum,   NFix, NCnnct, MaxDiis
       56     458       0       0       0       0       0       0

 Cartesian Hessian Update
 Hessian Updated using BFGS Update


** GEOMETRY OPTIMIZATION IN DELOCALIZED INTERNAL COORDINATES **
   Searching for a Minimum

   Optimization Cycle:   2

                       Coordinates (Angstroms)
     ATOM                X               Y               Z
      1  O        -1.9879890102    0.3151317013    0.7803299201
      2  C        -2.9189137247    1.0870298959    0.4566769314
      3  C        -4.3123399401    0.6891873718   -0.1296158099
      4  C        -4.2905091023   -0.7129837982   -0.8685877128
      5  C        -2.9038942163   -1.4523391926   -0.7791799171
      6  O        -2.0589655893   -0.8964669126   -1.8025121589
      7  C        -0.6849853800   -1.4404427714   -1.6902797391
      8  C         0.1609911683   -0.5158440523   -0.7476400910
      9  O         1.5568075314   -1.0098507566   -0.7427645705
     10  C         2.2243799719   -0.5968016812    0.4615130193
     11  C         3.7376985072   -0.9876252967    0.3153894688
     12  C         4.5676027190   -0.2214150002   -0.7944354718
     13  C         3.9908575357    1.1439068500   -1.3249544079
     14  O         4.5287641893    1.8723215754   -2.1877236222
     15  O        -2.8523541334    2.5091664851    0.5784861335
     16  O         2.7972817617    1.5075990332   -0.6285116076
     17  O         1.6526961930   -0.1621314780    1.4829376233
     18  C         2.3144699314    2.8309739688   -1.0806239933
     19  C         4.5989714749   -0.6930813267    1.6153380331
     20  C         5.7959117671   -1.7195638737    1.6299295545
     21  C         6.6557900517   -1.1770028345    0.4281550065
     22  C         5.8701169121    0.1410123995    0.0484247875
     23  O         5.2774981003    0.5939246100    1.3290796764
     24  H         3.7617331154   -2.0696253593    0.0863082192
     25  H         4.7904773636   -0.8701463117   -1.6605485902
     26  H         4.0005621248   -0.6202912710    2.5444574797
     27  H         6.3488201120   -1.6529216274    2.5807909162
     28  H         5.4624536889   -2.7595029608    1.4847697052
     29  H         7.6843292383   -0.9352674737    0.7394492024
     30  H         6.7018246059   -1.8848560897   -0.4153398822
     31  H         6.4864337738    0.9424338713   -0.4042517558
     32  O        -2.5800953517   -2.3917679723   -0.0231626465
     33  C        -1.5441207957    2.9024232648    1.1548398463
     34  C        -5.3922261914    0.4107764591    1.0085859787
     35  C        -6.8207220819    0.4328000596    0.3337443691
     36  C        -6.8145435758   -0.9425354632   -0.4316172866
     37  C        -5.3901748889   -1.5028903748   -0.0442467920
     38  O        -5.1862077778   -1.0150586809    1.3405433507
     39  H        -4.6491498454    1.5005901507   -0.7991998065
     40  H        -4.5552174523   -0.5992975627   -1.9346566710
     41  H        -0.7018941491    2.5738562253    0.5120905372
     42  H        -5.2852036421    1.0441296046    1.9106231753
     43  H        -7.6075888813    0.4638923380    1.1042459414
     44  H        -6.9497980182    1.2956102433   -0.3389871764
     45  H        -7.6065069610   -1.6134665399   -0.0625524027
     46  H        -6.9314977078   -0.8240416492   -1.5208072059
     47  H        -5.2808349624   -2.6038870167   -0.0816113624
     48  H        -1.3986041099    2.4730463912    2.1669652130
     49  H        -1.5570734785    4.0060173900    1.2163697390
     50  H         1.4586422453    3.0801507937   -0.4264436798
     51  H         1.9784201043    2.8019399580   -2.1377154265
     52  H         3.1009017074    3.6062332602   -0.9808697071
     53  H         0.1406927510    0.5264187372   -1.1336865865
     54  H        -0.2725955423   -0.5099740872    0.2763598995
     55  H        -0.2602948697   -1.4437584599   -2.7144256509
     56  H        -0.7093586063   -2.4742612203   -1.2849797850
   Point Group: c1    Number of degrees of freedom:   162


   Energy is  -1510.282515088

 Hessian Updated using BFGS Update

149 Hessian modes will be used to form the next step
  Hessian Eigenvalues:
     0.001707    0.002381    0.002649    0.002759    0.003625    0.004364
     0.004464    0.004714    0.004836    0.004974    0.005137    0.006676
     0.006801    0.007973    0.009726    0.011808    0.011827    0.021526
     0.021668    0.025211    0.025998    0.030095    0.030644    0.034344
     0.034810    0.037226    0.039979    0.041264    0.041911    0.042535
     0.043816    0.046187    0.047297    0.049703    0.050434    0.050799
     0.051183    0.053300    0.054093    0.054316    0.054657    0.055551
     0.055974    0.056708    0.057536    0.057698    0.058957    0.060227
     0.060577    0.063110    0.063897    0.064072    0.064597    0.069613
     0.070123    0.072952    0.073103    0.076801    0.092003    0.092395
     0.092844    0.093131    0.096488    0.096795    0.096930    0.099638
     0.102495    0.102921    0.108586    0.110701    0.110952    0.112971
     0.120683    0.133426    0.135386    0.141878    0.157579    0.159998
     0.159999    0.162300    0.163897    0.177666    0.218624    0.219203
     0.219740    0.225957    0.228781    0.235544    0.238687    0.239547
     0.239721    0.239929    0.245110    0.245979    0.248006    0.248773
     0.249718    0.249880    0.249981    0.253263    0.253632    0.256272
     0.256960    0.260352    0.261642    0.265349    0.291262    0.292912
     0.306158    0.307176    0.322640    0.324269    0.325279    0.326431
     0.326803    0.327042    0.327266    0.327371    0.328413    0.328599
     0.328750    0.329157    0.329945    0.330637    0.330938    0.331592
     0.331774    0.332121    0.334428    0.334621    0.334766    0.334894
     0.334946    0.335017    0.335043    0.335222    0.335939    0.342695
     0.344895    0.346325    0.382050    0.399086    0.411077    0.411440
     0.450292    0.829423    0.829995    0.837506    0.837723

 Minimum Search - Taking Simple RFO Step
 Searching for Lamda that Minimizes Along All modes
 Value Taken    Lamda =  -0.00819714
 Calculated Step too Large.  Step scaled by  0.488706
 Step Taken.  Stepsize is  0.300000

                             Maximum     Tolerance    Cnvgd?
         Gradient           0.022393      0.000300      NO
         Displacement       0.104862      0.001200      NO
         Energy change     -0.000236      0.000001      NO


 New Cartesian Coordinates Obtained by Inverse Iteration

 Displacement from previous Coordinates is:  3.201104
 Adding empirical dispersion correction 
 ----------------------------------------------------------------
 Doing -D3(op) with
 s6 =   1.00000
 s8 =   0.78311
 a1 =   0.30000
 a2 =   4.25000
 n  =  10.00000
 -D3 energy without 3body term =     -0.0669978196 hartrees
 ----------------------------------------------------------------
             Standard Nuclear Orientation (Angstroms)
    I     Atom           X                Y                Z
 ----------------------------------------------------------------
    1      O      -2.1281194900     0.3106835242     0.9903718848
    2      C      -3.0500457908     1.0747875267     0.6265355590
    3      C      -4.3965119789     0.6670089967    -0.0533409956
    4      C      -4.3134417654    -0.7124687977    -0.8334850804
    5      C      -2.9125873238    -1.4275848220    -0.7432978388
    6      O      -2.0674120482    -0.8313132964    -1.7449106003
    7      C      -0.6805254070    -1.3477561459    -1.6447365161
    8      C       0.1840203571    -0.3743363279    -0.7708119265
    9      O       1.5856105123    -0.8519252939    -0.7903176754
   10      C       2.2825472275    -0.3793305203     0.3743707424
   11      C       3.7559525689    -0.9126306332     0.2820534113
   12      C       4.6713021707    -0.2656224270    -0.8353618397
   13      C       4.2001777230     1.1036864897    -1.4513004580
   14      O       4.7508130944     1.7013095495    -2.4020236571
   15      O      -3.0247336826     2.4925041124     0.8021290255
   16      O       3.0338659298     1.5934792780    -0.7864101029
   17      O       1.7364491858     0.1518717651     1.3637126354
   18      C       2.6159599523     2.8924058047    -1.3581668363
   19      C       4.6115402788    -0.6237927834     1.5881310256
   20      C       5.7259800310    -1.7357664308     1.6795156166
   21      C       6.6534096776    -1.3148289121     0.4788334404
   22      C       5.9794776885     0.0393846098     0.0199305627
   23      O       5.3935280974     0.5938168358     1.2628249672
   24      H       3.6930768955    -2.0029102577     0.1063677118
   25      H       4.8576091264    -0.9729215605    -1.6635986429
   26      H       4.0010167946    -0.4618372048     2.4978883363
   27      H       6.2596054161    -1.6666279344     2.6410438584
   28      H       5.3176733224    -2.7533451986     1.5721296413
   29      H       7.6899685515    -1.1372178652     0.8064309856
   30      H       6.6644303696    -2.0622877586    -0.3308515265
   31      H       6.6639822494     0.7704875322    -0.4532165807
   32      O      -2.5899615709    -2.3981938014    -0.0273878417
   33      C      -1.7651814611     2.8920148458     1.4748982974
   34      C      -5.5217328823     0.3287854848     1.0238499279
   35      C      -6.9187425909     0.3339535195     0.2865863103
   36      C      -6.8440419678    -1.0198945458    -0.5120317353
   37      C      -5.4230631655    -1.5548724799    -0.0783601749
   38      O      -5.2921113531    -1.1003407437     1.3264243193
   39      H      -4.7191289205     1.4929318535    -0.7120384982
   40      H      -4.5480541068    -0.5656597414    -1.9026410533
   41      H      -0.8764156318     2.6045068547     0.8766799413
   42      H      -5.4722841125     0.9382998985     1.9469762807
   43      H      -7.7391423544     0.3251316960     1.0218920144
   44      H      -7.0407093054     1.2109530809    -0.3689951671
   45      H      -7.6333205639    -1.7200783472    -0.1952337603
   46      H      -6.9173892428    -0.8751435440    -1.6018174539
   47      H      -5.2829259667    -2.6511523083    -0.1423886083
   48      H      -1.6742358691     2.4296844223     2.4788446433
   49      H      -1.8077011901     3.9921656498     1.5736073761
   50      H       1.7808943320     3.2463898045    -0.7258350393
   51      H       2.2681181698     2.7821297513    -2.4060625337
   52      H       3.4424634674     3.6312013932    -1.3358335362
   53      H       0.1380630159     0.6501417203    -1.2002996168
   54      H      -0.2159201171    -0.3284511407     0.2652753309
   55      H      -0.2840838462    -1.3833495453    -2.6796010153
   56      H      -0.6765438400    -2.3666020896    -1.2024753226
 ----------------------------------------------------------------
 Molecular Point Group                 C1    NOp =  1
 Largest Abelian Subgroup              C1    NOp =  1
 Nuclear Repulsion Energy =  3098.0621856453 hartrees
 There are      113 alpha and      113 beta electrons
 Applying Cartesian multipole field
    Component          Value
    ---------          -----
     (2,0,0)        1.00000E-12
     (0,2,0)        2.00000E-11
     (0,0,2)       -3.00000E-11
 Nucleus-field energy     =     0.0000000153 hartrees
 Requested basis set is STO-3G
 There are 86 shells and 176 basis functions
 A cutoff of  1.0D-12 yielded   2112 shell pairs
 There are      9954 function pairs
 Smallest overlap matrix eigenvalue = 2.13E-01
 Guess MOs from SCF MO coefficient file
 Reading MOs from coefficient file
 Reading MOs from coefficient file
 A restricted hybrid HF-DFT SCF calculation will be
 performed using Pulay DIIS extrapolation
 Exchange:     0.2000 Hartree-Fock + 0.0800 Slater + 0.7200 B88
 Correlation:  0.1900 VWN1RPA + 0.8100 LYP
 Using SG-1 standard quadrature grid
 Dispersion:   Grimme D3
 SCF converges when DIIS error is below 1.0E-08
 Geometry optimization detected.  Setting ReadMinima to 0
 Setting SaveMinima to 0
 using 48 threads for integral computing
 -------------------------------------------------------
 OpenMP Integral computing Module                
 Release: version 1.0, May 2013, Q-Chem Inc. Pittsburgh 
 -------------------------------------------------------
 -------------------------------------------------------
 OpenMP BLAS3 based DFT computing Module                
 Release: version 1.0, May 2013, Q-Chem Inc. Pittsburgh 
 -------------------------------------------------------
 ---------------------------------------
  Cycle       Energy         DIIS Error
 ---------------------------------------
    1   -1510.1939094502      4.50E-03
    2   -1510.2834037346      3.48E-04
    3   -1510.2836388137      4.06E-04
    4   -1510.2842153166      1.94E-04
    5   -1510.2843676580      6.29E-05
    6   -1510.2843857826      1.67E-05
    7   -1510.2843869787      7.53E-06
    8   -1510.2843872032      2.79E-06
    9   -1510.2843872381      4.76E-07
   10   -1510.2843872390      3.41E-07
   11   -1510.2843872395      1.33E-07
   12   -1510.2843872395      2.81E-08
   13   -1510.2843872394      1.02E-08
   14   -1510.2843872395      2.75E-09 Convergence criterion met
 ---------------------------------------
 SCF time:  CPU 96.98 s  wall 2.03 s
 SCF   energy in the final basis set = -1510.28438724
 Total energy in the final basis set = -1510.28438724
 
 --------------------------------------------------------------
 
                    Orbital Energies (a.u.)
 --------------------------------------------------------------
 
 Alpha MOs
 -- Occupied --
-18.944 -18.942 -18.923 -18.918 -18.889 -18.884 -18.883 -18.874
-18.870 -18.862 -10.106 -10.102 -10.095 -10.094 -10.070 -10.068
-10.063 -10.063 -10.059 -10.058 -10.055 -10.054 -10.041 -10.038
-10.036 -10.031 -10.022 -10.021 -10.019 -10.017  -1.019  -1.016
 -1.003  -0.998  -0.971  -0.967  -0.942  -0.938  -0.932  -0.925
 -0.764  -0.760  -0.726  -0.722  -0.711  -0.703  -0.691  -0.666
 -0.665  -0.613  -0.597  -0.577  -0.546  -0.542  -0.538  -0.534
 -0.513  -0.509  -0.484  -0.476  -0.463  -0.457  -0.453  -0.444
 -0.434  -0.431  -0.423  -0.416  -0.415  -0.413  -0.409  -0.394
 -0.390  -0.380  -0.376  -0.367  -0.361  -0.357  -0.352  -0.345
 -0.342  -0.339  -0.336  -0.331  -0.329  -0.327  -0.320  -0.312
 -0.307  -0.306  -0.305  -0.301  -0.297  -0.292  -0.280  -0.274
 -0.267  -0.260  -0.244  -0.243  -0.240  -0.235  -0.232  -0.184
 -0.182  -0.171  -0.163  -0.159  -0.155  -0.149  -0.146  -0.143
 -0.142
 -- Virtual --
  0.089   0.098   0.110   0.114   0.216   0.238   0.246   0.251
  0.255   0.280   0.284   0.292   0.305   0.315   0.327   0.331
  0.332   0.343   0.344   0.352   0.356   0.362   0.371   0.372
  0.378   0.382   0.393   0.396   0.399   0.406   0.410   0.413
  0.414   0.418   0.419   0.420   0.421   0.425   0.430   0.430
  0.432   0.436   0.437   0.443   0.444   0.448   0.452   0.465
  0.468   0.469   0.485   0.493   0.495   0.504   0.506   0.540
  0.543   0.550   0.556   0.636   0.643   0.655   0.656
 --------------------------------------------------------------
 
          Ground-State Mulliken Net Atomic Charges

     Atom                 Charge (a.u.)
  ----------------------------------------
      1 O                    -0.209199
      2 C                     0.212740
      3 C                    -0.078932
      4 C                    -0.079651
      5 C                     0.214728
      6 O                    -0.179991
      7 C                    -0.051740
      8 C                    -0.057744
      9 O                    -0.181264
     10 C                     0.221649
     11 C                    -0.080758
     12 C                    -0.076538
     13 C                     0.212960
     14 O                    -0.215541
     15 O                    -0.168452
     16 O                    -0.164842
     17 O                    -0.217905
     18 C                    -0.125237
     19 C                     0.023575
     20 C                    -0.142620
     21 C                    -0.144926
     22 C                     0.024201
     23 O                    -0.191984
     24 H                     0.083932
     25 H                     0.086822
     26 H                     0.090805
     27 H                     0.077856
     28 H                     0.073510
     29 H                     0.077995
     30 H                     0.073589
     31 H                     0.084358
     32 O                    -0.208815
     33 C                    -0.128743
     34 C                     0.025966
     35 C                    -0.143259
     36 C                    -0.144329
     37 C                     0.025586
     38 O                    -0.185983
     39 H                     0.086980
     40 H                     0.084863
     41 H                     0.091287
     42 H                     0.083950
     43 H                     0.078633
     44 H                     0.073956
     45 H                     0.078470
     46 H                     0.073433
     47 H                     0.089024
     48 H                     0.093934
     49 H                     0.091310
     50 H                     0.091741
     51 H                     0.088996
     52 H                     0.094213
     53 H                     0.074189
     54 H                     0.110265
     55 H                     0.085301
     56 H                     0.097641
  ----------------------------------------
  Sum of atomic charges =    -0.000000

 -----------------------------------------------------------------
                    Cartesian Multipole Moments
 -----------------------------------------------------------------
    Charge (ESU x 10^10)
                 0.0000
    Dipole Moment (Debye)
         X      -1.2956      Y       1.0402      Z      -1.8165
       Tot       2.4618
    Quadrupole Moments (Debye-Ang)
        XX    -145.8231     XY     -14.1201     YY    -155.5120
        XZ       7.1681     YZ       4.2764     ZZ    -164.2721
    Octopole Moments (Debye-Ang^2)
       XXX     -77.5714    XXY     -42.4937    XYY      15.3676
       YYY      28.9552    XXZ      -8.2543    XYZ     -17.2992
       YYZ       0.5551    XZZ     -21.2076    YZZ      -1.2060
       ZZZ      20.9793
    Hexadecapole Moments (Debye-Ang^3)
      XXXX  -16950.2061   XXXY    -414.9068   XXYY   -3335.8781
      XYYY     -99.1592   YYYY   -2014.2121   XXXZ     258.7622
      XXYZ      85.3499   XYYZ      31.1297   YYYZ      38.9941
      XXZZ   -3336.4379   XYZZ    -133.3384   YYZZ    -573.9269
      XZZZ     108.5928   YZZZ      52.1018   ZZZZ   -1372.7631
 -----------------------------------------------------------------
 Calculating analytic gradient of the SCF energy
 Gradient of SCF Energy
            1           2           3           4           5           6
    1  -0.0005317  -0.0002899  -0.0004541  -0.0005400  -0.0013991  -0.0004284
    2   0.0008750  -0.0000026   0.0001191   0.0014920  -0.0014697  -0.0012714
    3   0.0000759  -0.0004701   0.0015221  -0.0002724  -0.0005297  -0.0020432
            7           8           9          10          11          12
    1   0.0001391   0.0002962  -0.0007252   0.0010228  -0.0012120  -0.0025963
    2   0.0001796  -0.0014358  -0.0022881   0.0083565  -0.0013122  -0.0022679
    3   0.0012912   0.0007580   0.0013254  -0.0047823   0.0021244  -0.0022119
           13          14          15          16          17          18
    1   0.0041227  -0.0007413   0.0004677  -0.0015212   0.0002774   0.0007169
    2   0.0047533  -0.0004903   0.0002767  -0.0000071  -0.0042683   0.0001358
    3   0.0060524  -0.0011666  -0.0001289  -0.0021833   0.0008196  -0.0000762
           19          20          21          22          23          24
    1   0.0000240   0.0005200  -0.0006660   0.0010281   0.0003739   0.0008428
    2  -0.0005311  -0.0001971  -0.0000578   0.0009404   0.0000585  -0.0007466
    3  -0.0000911  -0.0001395   0.0001789  -0.0006462  -0.0003348   0.0006083
           25          26          27          28          29          30
    1  -0.0010853  -0.0000596   0.0000459  -0.0001002   0.0000248   0.0000557
    2  -0.0009821  -0.0000249   0.0000004   0.0000306   0.0001094   0.0000603
    3   0.0005195  -0.0001615  -0.0000172  -0.0000127  -0.0000579   0.0000746
           31          32          33          34          35          36
    1   0.0000415   0.0005954  -0.0003888   0.0004644  -0.0000268   0.0001027
    2   0.0000688   0.0004714   0.0000474   0.0000130   0.0002862  -0.0000650
    3  -0.0001297   0.0009537   0.0000851  -0.0001750  -0.0002082   0.0001347
           37          38          39          40          41          42
    1  -0.0001098   0.0000121  -0.0003737   0.0007474  -0.0000459   0.0000251
    2  -0.0006734  -0.0002882   0.0002318   0.0000780   0.0000561  -0.0000593
    3   0.0001647  -0.0004280   0.0002247   0.0001515  -0.0000971   0.0000222
           43          44          45          46          47          48
    1   0.0000185  -0.0000335   0.0000288   0.0000288  -0.0001789   0.0000481
    2  -0.0000484   0.0000219  -0.0000009   0.0000832  -0.0000194  -0.0000728
    3  -0.0000036   0.0000350  -0.0000236   0.0000260  -0.0001373   0.0000195
           49          50          51          52          53          54
    1   0.0000847   0.0000155  -0.0000833   0.0000829   0.0007251   0.0006299
    2   0.0000166   0.0000808   0.0001749   0.0000162  -0.0006222  -0.0005083
    3  -0.0000073   0.0000308  -0.0000042  -0.0001107   0.0001878  -0.0005967
           55          56
    1  -0.0004320   0.0004141
    2   0.0008340  -0.0001570
    3   0.0002404  -0.0003792
 Max gradient component =       8.357E-03
 RMS gradient           =       1.261E-03
 Gradient time:  CPU 30.04 s  wall 0.64 s
 Geometry Optimization Parameters
   NAtoms,    NIC,     NZ,  NCons,   NDum,   NFix, NCnnct, MaxDiis
       56     458       0       0       0       0       0       0

 Cartesian Hessian Update
 Hessian Updated using BFGS Update


** GEOMETRY OPTIMIZATION IN DELOCALIZED INTERNAL COORDINATES **
   Searching for a Minimum

   Optimization Cycle:   3

                       Coordinates (Angstroms)
     ATOM                X               Y               Z
      1  O        -2.1281194900    0.3106835242    0.9903718848
      2  C        -3.0500457908    1.0747875267    0.6265355590
      3  C        -4.3965119789    0.6670089967   -0.0533409956
      4  C        -4.3134417654   -0.7124687977   -0.8334850804
      5  C        -2.9125873238   -1.4275848220   -0.7432978388
      6  O        -2.0674120482   -0.8313132964   -1.7449106003
      7  C        -0.6805254070   -1.3477561459   -1.6447365161
      8  C         0.1840203571   -0.3743363279   -0.7708119265
      9  O         1.5856105123   -0.8519252939   -0.7903176754
     10  C         2.2825472275   -0.3793305203    0.3743707424
     11  C         3.7559525689   -0.9126306332    0.2820534113
     12  C         4.6713021707   -0.2656224270   -0.8353618397
     13  C         4.2001777230    1.1036864897   -1.4513004580
     14  O         4.7508130944    1.7013095495   -2.4020236571
     15  O        -3.0247336826    2.4925041124    0.8021290255
     16  O         3.0338659298    1.5934792780   -0.7864101029
     17  O         1.7364491858    0.1518717651    1.3637126354
     18  C         2.6159599523    2.8924058047   -1.3581668363
     19  C         4.6115402788   -0.6237927834    1.5881310256
     20  C         5.7259800310   -1.7357664308    1.6795156166
     21  C         6.6534096776   -1.3148289121    0.4788334404
     22  C         5.9794776885    0.0393846098    0.0199305627
     23  O         5.3935280974    0.5938168358    1.2628249672
     24  H         3.6930768955   -2.0029102577    0.1063677118
     25  H         4.8576091264   -0.9729215605   -1.6635986429
     26  H         4.0010167946   -0.4618372048    2.4978883363
     27  H         6.2596054161   -1.6666279344    2.6410438584
     28  H         5.3176733224   -2.7533451986    1.5721296413
     29  H         7.6899685515   -1.1372178652    0.8064309856
     30  H         6.6644303696   -2.0622877586   -0.3308515265
     31  H         6.6639822494    0.7704875322   -0.4532165807
     32  O        -2.5899615709   -2.3981938014   -0.0273878417
     33  C        -1.7651814611    2.8920148458    1.4748982974
     34  C        -5.5217328823    0.3287854848    1.0238499279
     35  C        -6.9187425909    0.3339535195    0.2865863103
     36  C        -6.8440419678   -1.0198945458   -0.5120317353
     37  C        -5.4230631655   -1.5548724799   -0.0783601749
     38  O        -5.2921113531   -1.1003407437    1.3264243193
     39  H        -4.7191289205    1.4929318535   -0.7120384982
     40  H        -4.5480541068   -0.5656597414   -1.9026410533
     41  H        -0.8764156318    2.6045068547    0.8766799413
     42  H        -5.4722841125    0.9382998985    1.9469762807
     43  H        -7.7391423544    0.3251316960    1.0218920144
     44  H        -7.0407093054    1.2109530809   -0.3689951671
     45  H        -7.6333205639   -1.7200783472   -0.1952337603
     46  H        -6.9173892428   -0.8751435440   -1.6018174539
     47  H        -5.2829259667   -2.6511523083   -0.1423886083
     48  H        -1.6742358691    2.4296844223    2.4788446433
     49  H        -1.8077011901    3.9921656498    1.5736073761
     50  H         1.7808943320    3.2463898045   -0.7258350393
     51  H         2.2681181698    2.7821297513   -2.4060625337
     52  H         3.4424634674    3.6312013932   -1.3358335362
     53  H         0.1380630159    0.6501417203   -1.2002996168
     54  H        -0.2159201171   -0.3284511407    0.2652753309
     55  H        -0.2840838462   -1.3833495453   -2.6796010153
     56  H        -0.6765438400   -2.3666020896   -1.2024753226
   Point Group: c1    Number of degrees of freedom:   162


   Energy is  -1510.284387239

 Hessian Updated using BFGS Update

152 Hessian modes will be used to form the next step
  Hessian Eigenvalues:
     0.001814    0.002180    0.002335    0.002680    0.002745    0.003753
     0.004364    0.004714    0.004751    0.004969    0.005136    0.006472
     0.006681    0.007386    0.007595    0.011754    0.011826    0.013726
     0.021524    0.021758    0.025350    0.026130    0.029979    0.030659
     0.034349    0.035101    0.037004    0.039643    0.041228    0.041887
     0.042235    0.043404    0.046281    0.047599    0.049697    0.050416
     0.050873    0.051182    0.053271    0.054056    0.054316    0.054600
     0.055535    0.055981    0.056758    0.057479    0.057691    0.058921
     0.060296    0.060567    0.063107    0.063899    0.064073    0.064597
     0.069587    0.070119    0.072964    0.073203    0.078296    0.091874
     0.092167    0.092834    0.092996    0.096436    0.096795    0.096930
     0.099275    0.102499    0.102921    0.108606    0.110674    0.111296
     0.111466    0.120474    0.134517    0.135386    0.140082    0.157254
     0.159990    0.159999    0.160001    0.162554    0.164195    0.175197
     0.218761    0.219557    0.219909    0.226251    0.228745    0.236335
     0.238573    0.239520    0.239754    0.240177    0.245120    0.246005
     0.247861    0.248020    0.248773    0.249729    0.249962    0.250062
     0.253263    0.253631    0.256256    0.256870    0.260350    0.261650
     0.265379    0.291440    0.293099    0.306306    0.307111    0.322865
     0.324263    0.325280    0.326431    0.326803    0.327044    0.327267
     0.327360    0.328418    0.328599    0.328753    0.329157    0.329968
     0.330637    0.330938    0.331593    0.331787    0.332119    0.334421
     0.334621    0.334767    0.334909    0.334951    0.335022    0.335050
     0.335221    0.337227    0.342685    0.344915    0.346335    0.391318
     0.399176    0.411384    0.411505    0.624940    0.829704    0.836800
     0.837519    0.842863

 Minimum Search - Taking Simple RFO Step
 Searching for Lamda that Minimizes Along All modes
 Value Taken    Lamda =  -0.00721864
 Calculated Step too Large.  Step scaled by  0.420215
 Step Taken.  Stepsize is  0.300000

                             Maximum     Tolerance    Cnvgd?
         Gradient           0.009035      0.000300      NO
         Displacement       0.116517      0.001200      NO
         Energy change     -0.001872      0.000001      NO


 New Cartesian Coordinates Obtained by Inverse Iteration

 Displacement from previous Coordinates is:  3.578755
 Adding empirical dispersion correction 
 ----------------------------------------------------------------
 Doing -D3(op) with
 s6 =   1.00000
 s8 =   0.78311
 a1 =   0.30000
 a2 =   4.25000
 n  =  10.00000
 -D3 energy without 3body term =     -0.0677513379 hartrees
 ----------------------------------------------------------------
             Standard Nuclear Orientation (Angstroms)
    I     Atom           X                Y                Z
 ----------------------------------------------------------------
    1      O      -2.1293172922     0.1073782648     1.0905904262
    2      C      -3.0009824588     0.9483025768     0.7762408076
    3      C      -4.3378555292     0.6739201628     0.0158687560
    4      C      -4.2959942542    -0.6322017008    -0.8853213517
    5      C      -2.9243404893    -1.4062329330    -0.8513014027
    6      O      -2.0418456730    -0.7418952059    -1.7756029117
    7      C      -0.6598702550    -1.2698935468    -1.6680124861
    8      C       0.2056372806    -0.3092327782    -0.7819215016
    9      O       1.5970972908    -0.8165016456    -0.7699820783
   10      C       2.2797352350    -0.3341960972     0.3985174934
   11      C       3.7496344758    -0.8829210236     0.3503858319
   12      C       4.6548021149    -0.3431186764    -0.8286663641
   13      C       4.1270440083     0.9239954918    -1.5939503699
   14      O       4.6330791807     1.4191210532    -2.6248534255
   15      O      -2.9219830487     2.3368295223     1.1024085415
   16      O       2.9701362455     1.4581827579    -0.9464689198
   17      O       1.7502400224     0.3337514465     1.3114773755
   18      C       2.4782313112     2.6583102963    -1.6578724816
   19      C       4.6077481562    -0.4508860045     1.6155116738
   20      C       5.7453802209    -1.5251535545     1.8113386653
   21      C       6.6628874129    -1.2048999362     0.5718912119
   22      C       5.9573105116     0.0809556698    -0.0180508592
   23      O       5.3626977492     0.7441467220     1.1657803503
   24      H       3.6899705297    -1.9851382492     0.2859001653
   25      H       4.8532799057    -1.1316255667    -1.5769857992
   26      H       3.9984809947    -0.2090448550     2.5082740321
   27      H       6.2787169980    -1.3495178096     2.7592709157
   28      H       5.3589956345    -2.5568421884     1.8072203342
   29      H       7.6957713425    -0.9730316991     0.8764316206
   30      H       6.6888888978    -2.0290639940    -0.1591414893
   31      H       6.6230425784     0.7752006904    -0.5671451133
   32      O      -2.6505474834    -2.4575198970    -0.2363683792
   33      C      -1.6739185463     2.6034912649     1.8578493020
   34      C      -5.5061761172     0.2902821168     1.0314124602
   35      C      -6.8825706129     0.4193724852     0.2681495374
   36      C      -6.8423858294    -0.8607677250    -0.6455442105
   37      C      -5.4549414695    -1.4916060737    -0.2314614653
   38      O      -5.3413274991    -1.1684348202     1.2108071140
   39      H      -4.6034585154     1.5710794554    -0.5710249933
   40      H      -4.5047845331    -0.3766198952    -1.9394992301
   41      H      -0.7751102556     2.3366141394     1.2651099640
   42      H      -5.4559134272     0.8128085852     2.0063279057
   43      H      -7.7206717631     0.3804730623     0.9822356633
   44      H      -6.9531353476     1.3549980219    -0.3093468555
   45      H      -7.6668405708    -1.5522185982    -0.4093490628
   46      H      -6.8826997938    -0.6176692209    -1.7194127884
   47      H      -5.3572379460    -2.5826819863    -0.3914247323
   48      H      -1.6443067887     2.0363410496     2.8103987298
   49      H      -1.6719887660     3.6883150669     2.0700242297
   50      H       1.6535031838     3.0589648163    -1.0400022503
   51      H       2.0963005693     2.4030472721    -2.6679181577
   52      H       3.2736855270     3.4234924771    -1.7630953526
   53      H       0.1851652463     0.7143643027    -1.2168011508
   54      H      -0.2133845599    -0.2501158578     0.2459403900
   55      H      -0.2512714919    -1.3002621750    -2.6986034017
   56      H      -0.6711336467    -2.2929715140    -1.2357627014
 ----------------------------------------------------------------
 Molecular Point Group                 C1    NOp =  1
 Largest Abelian Subgroup              C1    NOp =  1
 Nuclear Repulsion Energy =  3109.4317668709 hartrees
 There are      113 alpha and      113 beta electrons
 Applying Cartesian multipole field
    Component          Value
    ---------          -----
     (2,0,0)        1.00000E-12
     (0,2,0)        2.00000E-11
     (0,0,2)       -3.00000E-11
 Nucleus-field energy     =     0.0000000058 hartrees
 Requested basis set is STO-3G
 There are 86 shells and 176 basis functions
 A cutoff of  1.0D-12 yielded   2124 shell pairs
 There are      9975 function pairs
 Smallest overlap matrix eigenvalue = 2.13E-01
 Guess MOs from SCF MO coefficient file
 Reading MOs from coefficient file
 Reading MOs from coefficient file
 A restricted hybrid HF-DFT SCF calculation will be
 performed using Pulay DIIS extrapolation
[...]
      7  C        -0.6131509733   -0.8950823228   -1.9144750727
      8  C         0.1175010706   -0.2910251759   -0.6703555849
      9  O         1.4945555847   -0.8291804034   -0.5760107064
     10  C         2.1274039084   -0.2713880777    0.5791449895
     11  C         3.5940834570   -0.8214966087    0.6503485358
     12  C         4.4443516494   -0.5353784998   -0.6576569551
     13  C         3.6648383320    0.2528718300   -1.7634726493
     14  O         3.5626487588   -0.0396325630   -2.9739668117
     15  O        -2.3668763720    1.7707620151    1.4610169721
     16  O         3.0923146365    1.4269402152   -1.1695846588
     17  O         1.5628011981    0.4909380263    1.3961560248
     18  C         2.3490161069    2.1995066400   -2.1901801085
     19  C         4.4407978101   -0.0556482539    1.7465555749
     20  C         5.7337552697   -0.9036917251    2.0586416822
     21  C         6.5877766466   -0.6391723174    0.7620467598
     22  C         5.6322691547    0.3287779926   -0.0427477146
     23  O         4.9666566217    1.1208463660    1.0142970529
     24  H         3.5448788999   -1.9073554940    0.8530275331
     25  H         4.8128683475   -1.4704638292   -1.1142011282
     26  H         3.8468498852    0.2690903634    2.6229494216
     27  H         6.2385310540   -0.5191411744    2.9590354241
     28  H         5.5060591948   -1.9711485098    2.2088308338
     29  H         7.5356857908   -0.1305580674    0.9995057584
     30  H         6.8131555382   -1.5616084735    0.2028764040
     31  H         6.1383722777    0.9953378083   -0.7677886432
     32  O        -2.7256820039   -2.4247018553   -1.1372456408
     33  C        -1.1582582194    1.6355487851    2.3186803183
     34  C        -5.3273394180    0.2064103329    1.0493576064
     35  C        -6.6734913429    0.6105708737    0.3264575727
     36  C        -6.7724612512   -0.5009978639   -0.7844613607
     37  C        -5.4261973878   -1.2869530522   -0.5408617649
     38  O        -5.2860486111   -1.2675310108    0.9347183419
     39  H        -4.1969237391    1.7060310773   -0.1970510014
     40  H        -4.4946414709    0.1493320377   -1.9852757638
     41  H        -0.2710217618    1.2332303586    1.7753206127
     42  H        -5.2515883071    0.5179346034    2.1094260418
     43  H        -7.5188507733    0.5578578643    1.0305740231
     44  H        -6.6265930848    1.6283870437   -0.0930403460
     45  H        -7.6386532750   -1.1606543203   -0.6159841221
     46  H        -6.8368634505   -0.0842441241   -1.8021925821
     47  H        -5.3959339291   -2.3283679195   -0.9159697697
     48  H        -1.3658785371    0.9801186054    3.1884099036
     49  H        -0.9387811577    2.6577897968    2.6767759177
     50  H         1.8644781783    3.0331523908   -1.6493511208
     51  H         1.5776587325    1.5806798325   -2.6919804424
     52  H         3.0289942580    2.6077154225   -2.9658321051
     53  H         0.1439675774    0.8161589335   -0.7619204435
     54  H        -0.4835480488   -0.5415846941    0.2369916340
     55  H        -0.1183713953   -0.6069008370   -2.8641812718
     56  H        -0.6808369417   -2.0011800383   -1.8381243345
   Point Group: c1    Number of degrees of freedom:   162


   Energy is  -1510.293695513

 Hessian Updated using BFGS Update

162 Hessian modes will be used to form the next step
  Hessian Eigenvalues:
     0.001921    0.002266    0.002678    0.003140    0.003494    0.004335
     0.004963    0.005555    0.005886    0.006386    0.008419    0.011008
     0.013896    0.016389    0.021780    0.022062    0.025180    0.027132
     0.027869    0.029923    0.030330    0.031227    0.033408    0.033942
     0.035806    0.037959    0.039469    0.041564    0.042207    0.042729
     0.043503    0.044805    0.046121    0.048867    0.050445    0.051286
     0.051681    0.051872    0.053424    0.054499    0.054712    0.055362
     0.055806    0.056273    0.056699    0.057123    0.059188    0.059558
     0.060359    0.062493    0.063185    0.063918    0.064078    0.064597
     0.067568    0.069674    0.070260    0.072923    0.073599    0.076694
     0.085821    0.092663    0.092960    0.093676    0.097015    0.098050
     0.100533    0.101675    0.102907    0.103263    0.105439    0.108921
     0.111822    0.117075    0.124072    0.136678    0.139312    0.142673
     0.157501    0.159313    0.160003    0.160189    0.160465    0.160704
     0.164828    0.167808    0.181056    0.192327    0.197603    0.219339
     0.220874    0.221838    0.232176    0.235073    0.237731    0.239411
     0.239528    0.241246    0.244046    0.246196    0.246983    0.247494
     0.248860    0.250010    0.250889    0.253152    0.253689    0.253813
     0.256097    0.258487    0.258915    0.261074    0.262502    0.264513
     0.271618    0.289057    0.293028    0.295060    0.302278    0.307081
     0.319919    0.324233    0.325379    0.326559    0.326846    0.327036
     0.327274    0.328422    0.328430    0.328673    0.328775    0.329183
     0.330076    0.330655    0.330888    0.331503    0.331758    0.332171
     0.333960    0.334457    0.334629    0.334780    0.334930    0.334988
     0.335046    0.335124    0.335266    0.339875    0.346232    0.349499
     0.367735    0.386732    0.389399    0.411345    0.424452    0.463010
     0.598455    0.823879    0.830335    0.837376    0.838740    1.518805

 Minimum Search - Taking Simple RFO Step
 Searching for Lamda that Minimizes Along All modes
 Value Taken    Lamda =   0.00000000
 Step Taken.  Stepsize is  0.005152

                             Maximum     Tolerance    Cnvgd?
         Gradient           0.000046      0.000300     YES
         Displacement       0.001568      0.001200      NO
         Energy change      0.000001      0.000001     YES

 Final energy is   -1510.29369551331     


 ******************************
 **  OPTIMIZATION CONVERGED  **
 ******************************

                       Coordinates (Angstroms)
     ATOM                X               Y               Z
      1  O        -2.1261122662   -0.5611924662    1.1283555090
      2  C        -2.7611111227    0.5060548686    0.9437471211
      3  C        -4.0989002521    0.6602153610    0.1430209330
      4  C        -4.2309621833   -0.3795497481   -1.0515001246
      5  C        -2.9226760951   -1.2053412527   -1.3183796540
      6  O        -1.9730479083   -0.2996152238   -1.9080044091
      7  C        -0.6131509733   -0.8950823228   -1.9144750727
      8  C         0.1175010706   -0.2910251759   -0.6703555849
      9  O         1.4945555847   -0.8291804034   -0.5760107064
     10  C         2.1274039084   -0.2713880777    0.5791449895
     11  C         3.5940834570   -0.8214966087    0.6503485358
     12  C         4.4443516494   -0.5353784998   -0.6576569551
     13  C         3.6648383320    0.2528718300   -1.7634726493
     14  O         3.5626487588   -0.0396325630   -2.9739668117
     15  O        -2.3668763720    1.7707620151    1.4610169721
     16  O         3.0923146365    1.4269402152   -1.1695846588
     17  O         1.5628011981    0.4909380263    1.3961560248
     18  C         2.3490161069    2.1995066400   -2.1901801085
     19  C         4.4407978101   -0.0556482539    1.7465555749
     20  C         5.7337552697   -0.9036917251    2.0586416822
     21  C         6.5877766466   -0.6391723174    0.7620467598
     22  C         5.6322691547    0.3287779926   -0.0427477146
     23  O         4.9666566217    1.1208463660    1.0142970529
     24  H         3.5448788999   -1.9073554940    0.8530275331
     25  H         4.8128683475   -1.4704638292   -1.1142011282
     26  H         3.8468498852    0.2690903634    2.6229494216
     27  H         6.2385310540   -0.5191411744    2.9590354241
     28  H         5.5060591948   -1.9711485098    2.2088308338
     29  H         7.5356857908   -0.1305580674    0.9995057584
     30  H         6.8131555382   -1.5616084735    0.2028764040
     31  H         6.1383722777    0.9953378083   -0.7677886432
     32  O        -2.7256820039   -2.4247018553   -1.1372456408
     33  C        -1.1582582194    1.6355487851    2.3186803183
     34  C        -5.3273394180    0.2064103329    1.0493576064
     35  C        -6.6734913429    0.6105708737    0.3264575727
     36  C        -6.7724612512   -0.5009978639   -0.7844613607
     37  C        -5.4261973878   -1.2869530522   -0.5408617649
     38  O        -5.2860486111   -1.2675310108    0.9347183419
     39  H        -4.1969237391    1.7060310773   -0.1970510014
     40  H        -4.4946414709    0.1493320377   -1.9852757638
     41  H        -0.2710217618    1.2332303586    1.7753206127
     42  H        -5.2515883071    0.5179346034    2.1094260418
     43  H        -7.5188507733    0.5578578643    1.0305740231
     44  H        -6.6265930848    1.6283870437   -0.0930403460
     45  H        -7.6386532750   -1.1606543203   -0.6159841221
     46  H        -6.8368634505   -0.0842441241   -1.8021925821
     47  H        -5.3959339291   -2.3283679195   -0.9159697697
     48  H        -1.3658785371    0.9801186054    3.1884099036
     49  H        -0.9387811577    2.6577897968    2.6767759177
     50  H         1.8644781783    3.0331523908   -1.6493511208
     51  H         1.5776587325    1.5806798325   -2.6919804424
     52  H         3.0289942580    2.6077154225   -2.9658321051
     53  H         0.1439675774    0.8161589335   -0.7619204435
     54  H        -0.4835480488   -0.5415846941    0.2369916340
     55  H        -0.1183713953   -0.6069008370   -2.8641812718
     56  H        -0.6808369417   -2.0011800383   -1.8381243345

Z-matrix Print:
$molecule
0 1
O 
C  1 1.430389
O  2 1.251968 1 124.397776
C  1 1.481483 2 108.724570 3 3.300908 0
H  4 1.111279 1 110.183360 2 60.087872 0
H  4 1.116834 1 111.530956 2 -59.409949 0
C  4 1.564152 1 110.155230 2 -179.258320 0
H  7 1.108962 4 111.863660 1 -63.106159 0
H  7 1.110794 4 110.998772 1 60.397655 0
O  7 1.484568 4 105.636100 1 179.690506 0
C  10 1.438677 7 110.726537 4 -98.304693 0
O  11 1.248382 10 124.766016 7 -16.282794 0
C  2 1.568068 1 108.281751 3 177.998983 0
H  13 1.105708 2 108.132885 1 -67.023570 0
C  11 1.569958 10 106.772922 7 167.113047 0
H  15 1.105070 11 107.874710 10 50.575755 0
C  13 1.582757 2 111.227422 1 169.802923 0
H  17 1.107382 13 113.771593 2 33.108383 0
O  17 1.482184 13 103.397384 2 -86.652696 0
C  19 1.479106 17 95.029169 13 -56.584968 0
H  20 1.107306 19 110.564643 17 -179.809200 0
C  17 1.577439 13 108.383608 2 163.939916 0
H  22 1.101538 17 110.465317 13 -168.086076 0
H  22 1.101756 17 112.237421 13 -46.530157 0
C  22 1.574954 17 101.028081 13 73.845054 0
H  25 1.101638 22 111.510443 17 118.061558 0
H  25 1.101978 22 112.833488 17 -119.323929 0
C  15 1.585156 11 112.457783 10 173.923427 0
H  28 1.107324 15 114.119021 11 -29.908686 0
O  28 1.482348 15 103.997406 11 90.314505 0
C  30 1.478969 28 95.024237 15 55.630970 0
H  31 1.107488 30 110.647472 28 179.208625 0
C  28 1.577813 15 107.967639 11 -160.557470 0
H  33 1.101639 28 112.392949 15 48.079476 0
H  33 1.101735 28 110.424193 15 169.737085 0
C  33 1.574649 28 100.899442 15 -72.392965 0
H  36 1.101450 33 111.652697 28 -120.452255 0
H  36 1.101875 33 112.714798 28 116.883148 0
C  13 1.586095 2 113.620868 1 56.184516 0
H  39 1.103912 13 111.543793 2 -121.359563 0
C  39 1.565825 13 113.974763 2 0.590934 0
O  41 1.249519 39 127.375196 13 -129.943099 0
O  41 1.434895 39 108.556500 13 51.694722 0
C  43 1.480191 41 110.001706 39 179.859861 0
H  44 1.105549 43 106.042835 41 175.115565 0
H  44 1.108938 43 111.718112 41 55.622587 0
H  44 1.109342 43 111.490968 41 -65.816541 0
C  15 1.589161 11 113.745694 10 -71.719197 0
H  48 1.104078 15 112.386740 11 115.660331 0
C  48 1.566719 15 113.000867 11 -8.283743 0
O  50 1.255516 48 126.203515 15 -31.337625 0
O  50 1.422137 48 109.578459 15 149.511065 0
C  52 1.488162 50 110.729923 48 175.410871 0
H  53 1.105160 52 105.306792 50 -179.467919 0
H  53 1.108659 52 110.716292 50 -61.491055 0
H  53 1.115477 52 113.454149 50 60.820474 0
$end

 
 --------------------------------------------------------------
 
                    Orbital Energies (a.u.)
 --------------------------------------------------------------
 
 Alpha MOs
 -- Occupied --
-18.941 -18.934 -18.934 -18.925 -18.889 -18.888 -18.879 -18.879
-18.877 -18.874 -10.104 -10.104 -10.099 -10.098 -10.066 -10.064
-10.063 -10.061 -10.058 -10.058 -10.057 -10.051 -10.041 -10.039
-10.037 -10.037 -10.022 -10.021 -10.020 -10.020  -1.018  -1.016
 -1.007  -1.005  -0.971  -0.970  -0.940  -0.939  -0.935  -0.934
 -0.765  -0.763  -0.728  -0.724  -0.711  -0.706  -0.695  -0.661
 -0.659  -0.614  -0.598  -0.580  -0.547  -0.545  -0.538  -0.538
 -0.514  -0.510  -0.483  -0.477  -0.465  -0.460  -0.454  -0.443
 -0.437  -0.431  -0.428  -0.416  -0.413  -0.410  -0.407  -0.399
 -0.391  -0.380  -0.371  -0.369  -0.360  -0.358  -0.357  -0.351
 -0.345  -0.337  -0.335  -0.333  -0.331  -0.329  -0.325  -0.311
 -0.309  -0.306  -0.305  -0.299  -0.293  -0.292  -0.283  -0.278
 -0.270  -0.260  -0.251  -0.247  -0.245  -0.235  -0.234  -0.186
 -0.177  -0.173  -0.173  -0.159  -0.158  -0.152  -0.149  -0.145
 -0.144
 -- Virtual --
  0.087   0.091   0.106   0.111   0.212   0.239   0.246   0.252
  0.255   0.281   0.283   0.291   0.305   0.312   0.325   0.331
  0.333   0.343   0.347   0.350   0.356   0.360   0.361   0.373
  0.376   0.382   0.387   0.393   0.399   0.400   0.409   0.411
  0.415   0.417   0.419   0.421   0.425   0.427   0.430   0.434
  0.436   0.437   0.438   0.443   0.444   0.450   0.463   0.465
  0.469   0.484   0.485   0.490   0.504   0.506   0.506   0.537
  0.540   0.550   0.552   0.641   0.642   0.648   0.650
 --------------------------------------------------------------
 
          Ground-State Mulliken Net Atomic Charges

     Atom                 Charge (a.u.)
  ----------------------------------------
      1 O                    -0.215921
      2 C                     0.214146
      3 C                    -0.077575
      4 C                    -0.079343
      5 C                     0.214908
      6 O                    -0.181240
      7 C                    -0.053347
      8 C                    -0.063358
      9 O                    -0.174948
     10 C                     0.222035
     11 C                    -0.077978
     12 C                    -0.078932
     13 C                     0.211772
     14 O                    -0.213592
     15 O                    -0.167224
     16 O                    -0.168800
     17 O                    -0.215559
     18 C                    -0.128286
     19 C                     0.024734
     20 C                    -0.143979
     21 C                    -0.143767
     22 C                     0.025948
     23 O                    -0.186331
     24 H                     0.086489
     25 H                     0.086008
     26 H                     0.090194
     27 H                     0.078296
     28 H                     0.073744
     29 H                     0.078076
     30 H                     0.074122
     31 H                     0.082552
     32 O                    -0.205784
     33 C                    -0.141320
     34 C                     0.025702
     35 C                    -0.144091
     36 C                    -0.143404
     37 C                     0.024861
     38 O                    -0.186806
     39 H                     0.087708
     40 H                     0.085278
     41 H                     0.111860
     42 H                     0.083193
     43 H                     0.078671
     44 H                     0.074063
     45 H                     0.078591
     46 H                     0.073461
     47 H                     0.090296
     48 H                     0.085077
     49 H                     0.087922
     50 H                     0.091668
     51 H                     0.087846
     52 H                     0.088113
     53 H                     0.079170
     54 H                     0.106800
     55 H                     0.086406
     56 H                     0.101873
  ----------------------------------------
  Sum of atomic charges =     0.000000

 -----------------------------------------------------------------
                    Cartesian Multipole Moments
 -----------------------------------------------------------------
    Charge (ESU x 10^10)
                 0.0000
    Dipole Moment (Debye)
         X      -0.1485      Y       1.5540      Z      -0.3504
       Tot       1.5999
    Quadrupole Moments (Debye-Ang)
        XX    -140.4888     XY     -13.6464     YY    -164.2636
        XZ       7.2144     YZ      -3.1256     ZZ    -160.5828
    Octopole Moments (Debye-Ang^2)
       XXX      -0.5821    XXY       5.1420    XYY      26.8915
       YYY      33.2764    XXZ      -1.0153    XYZ     -29.1659
       YYZ      -0.1389    XZZ     -12.6868    YZZ      18.6594
       ZZZ      57.4555
    Hexadecapole Moments (Debye-Ang^3)
      XXXX  -15288.5976   XXXY    -419.5350   XXYY   -2991.1280
      XYYY    -232.8778   YYYY   -1232.6370   XXXZ      -7.0998
      XXYZ     -51.4755   XYYZ     -64.7181   YYYZ    -110.9719
      XXZZ   -3084.7283   XYZZ     -52.5876   YYZZ    -526.7943
      XZZZ     -79.7653   YZZZ     -91.0670   ZZZZ   -2065.2128
 -----------------------------------------------------------------
Archival summary:
1\1\vega02.cac.cornell.edu\OPT\ProcedureUnspecified\STO-3G\102026\jj585\MonJan1503:34:352018MonJan1503:34:352018\0\\#,OPT,ProcedureUnspecified,STO-3G,\\0,1\O\C,1,1.43039\O,2,1.25197,1,124.398\C,1,1.48148,2,108.725,3,3.30091,0\H,4,1.11128,1,110.183,2,60.0879,0\H,4,1.11683,1,111.531,2,-59.4099,0\C,4,1.56415,1,110.155,2,-179.258,0\H,7,1.10896,4,111.864,1,-63.1062,0\H,7,1.11079,4,110.999,1,60.3977,0\O,7,1.48457,4,105.636,1,179.691,0\C,10,1.43868,7,110.727,4,-98.3047,0\O,11,1.24838,10,124.766,7,-16.2828,0\C,2,1.56807,1,108.282,3,177.999,0\H,13,1.10571,2,108.133,1,-67.0236,0\C,11,1.56996,10,106.773,7,167.113,0\H,15,1.10507,11,107.875,10,50.5758,0\C,13,1.58276,2,111.227,1,169.803,0\H,17,1.10738,13,113.772,2,33.1084,0\O,17,1.48218,13,103.397,2,-86.6527,0\C,19,1.47911,17,95.0292,13,-56.585,0\H,20,1.10731,19,110.565,17,-179.809,0\C,17,1.57744,13,108.384,2,163.94,0\H,22,1.10154,17,110.465,13,-168.086,0\H,22,1.10176,17,112.237,13,-46.5302,0\C,22,1.57495,17,101.028,13,73.8451,0\H,25,1.10164,22,111.51,17,118.062,0\H,25,1.10198,22,112.833,17,-119.324,0\C,15,1.58516,11,112.458,10,173.923,0\H,28,1.10732,15,114.119,11,-29.9087,0\O,28,1.48235,15,103.997,11,90.3145,0\C,30,1.47897,28,95.0242,15,55.631,0\H,31,1.10749,30,110.647,28,179.209,0\C,28,1.57781,15,107.968,11,-160.557,0\H,33,1.10164,28,112.393,15,48.0795,0\H,33,1.10173,28,110.424,15,169.737,0\C,33,1.57465,28,100.899,15,-72.393,0\H,36,1.10145,33,111.653,28,-120.452,0\H,36,1.10187,33,112.715,28,116.883,0\C,13,1.5861,2,113.621,1,56.1845,0\H,39,1.10391,13,111.544,2,-121.36,0\C,39,1.56583,13,113.975,2,0.590934,0\O,41,1.24952,39,127.375,13,-129.943,0\O,41,1.43489,39,108.557,13,51.6947,0\C,43,1.48019,41,110.002,39,179.86,0\H,44,1.10555,43,106.043,41,175.116,0\H,44,1.10894,43,111.718,41,55.6226,0\H,44,1.10934,43,111.491,41,-65.8165,0\C,15,1.58916,11,113.746,10,-71.7192,0\H,48,1.10408,15,112.387,11,115.66,0\C,48,1.56672,15,113.001,11,-8.28374,0\O,50,1.25552,48,126.204,15,-31.3376,0\O,50,1.42214,48,109.578,15,149.511,0\C,52,1.48816,50,110.73,48,175.411,0\H,53,1.10516,52,105.307,50,-179.468,0\H,53,1.10866,52,110.716,50,-61.4911,0\H,53,1.11548,52,113.454,50,60.8205,0\\\@

 Total job time:  80.04s(wall), 3813.07s(cpu) 
 Mon Jan 15 03:34:35 2018

        *************************************************************
        *                                                           *
        *  Thank you very much for using Q-Chem.  Have a nice day.  *
        *                                                           *
        *************************************************************


0 sent ACK to 0 
now end server 0 ... 
