mFile = /opt/software/qchem/qchem-5.0.1//bin/mpi/machines
Process 0 of 1 is on vega02.cac.cornell.edu - thread support 0
initial socket setup ...start
initial socket setup ...done 
now start server 0 ... 
vega02.cac.cornell.edu 10.84.3
Q-Chem Developer Version! Running on 10.84.3.*
                  Welcome to Q-Chem
     A Quantum Leap Into The Future Of Chemistry


 Q-Chem 5.0, Q-Chem, Inc., Pleasanton, CA (2017)

 Yihan Shao,  Zhengting Gan,  E. Epifanovsky,  A. T. B. Gilbert,  M. Wormit,  
 J. Kussmann,  A. W. Lange,  A. Behn,  Jia Deng,  Xintian Feng,  D. Ghosh,  
 M. Goldey,  P. R. Horn,  L. D. Jacobson,  I. Kaliman,  T. Kus,  A. Landau,  
 Jie Liu,  E. I. Proynov,  R. M. Richard,  R. P. Steele,  E. J. Sundstrom,  
 H. L. Woodcock III,  P. M. Zimmerman,  D. Zuev,  B. Albrecht,  E. Alguire,  
 S. A. Baeppler,  Z. Benda,  Y. A. Bernard,  E. J. Berquist,  K. B. Bravaya,  
 D. Casanova,  Chun-Min Chang,  Yunqing Chen,  A. Chien,  K. D. Closser,  
 M. P. Coons,  S. Dasgupta,  M. Diedenhofen,  Hainam Do,  R. G. Edgar,  
 Po-Tung Fang,  S. Fatehi,  Qingguo Feng,  Qinghui Ge,  A. Ghysels,  
 J. Gomes,  J. Gonthier,  A. Gunina,  M. W. D. Hanson-Heine,  
 P. H. P. Harbach,  A. W. Hauser,  J. E. Herr,  E. G. Hohenstein,  
 Z. C. Holden,  Kerwin Hui,  T.-C. Jagau,  Hyunjun Ji,  B. Kaduk,  
 K. Khistyaev,  Jaehoon Kim,  P. Klunzinger,  K. Koh,  D. Kosenkov,  
 T. Kowalczyk,  C. M. Krauter,  A. Kunitsa,  Ka Un Lao,  A. Laurent,  
 K. V. Lawler,  Joonho Lee,  D. Lefrancois,  S. Lehtola,  D. S. Levine,  
 Yi-Pei Li,  You-Sheng Lin,  Fenglai Liu,  E. Livshits,  A. Luenser,  
 P. Manohar,  E. Mansoor,  S. F. Manzer,  Shan-Ping Mao,  Yuezhi Mao,  
 N. Mardirossian,  A. V. Marenich,  L. A. Martinez-Martinez,  S. A. Maurer,  
 N. J. Mayhall,  S. C. McKenzie,  J.-M. Mewes,  A. F. Morrison,  K. Nanda,  
 T. S. Nguyen-Beck,  R. Olivares-Amaya,  J. A. Parkhill,  T. M. Perrine,  
 F. Plasser,  S. Prager,  A. Prociuk,  D. R. Rehn,  F. Rob,  M. Schneider,  
 N. Sergueev,  S. M. Sharada,  S. Sharma,  D. W. Small,  T. Stauch,  
 T. Stein,  Yu-Chuan Su,  A. J. W. Thom,  T. Tsuchimochi,  L. Vogt,  
 O. Vydrov,  M. A. Watson,  J. Wenzel,  M. de Wergifosse,  T. A. Wesolowski,  
 A. White,  J. Witte,  A. Yamada,  Jun Yang,  K. Yao,  S. Yeganeh,  
 S. R. Yost,  Zhi-Qiang You,  A. Zech,  Igor Ying Zhang,  Xing Zhang,  
 Yan Zhao,  Ying Zhu,  B. R. Brooks,  G. K. L. Chan,  C. J. Cramer,  
 M. S. Gordon,  W. J. Hehre,  A. Klamt,  M. W. Schmidt,  C. D. Sherrill,  
 D. G. Truhlar,  A. Aspuru-Guzik,  R. Baer,  A. T. Bell,  N. A. Besley,  
 Jeng-Da Chai,  A. Dreuw,  B. D. Dunietz,  T. R. Furlani,  Chao-Ping Hsu,  
 Yousung Jung,  Jing Kong,  D. S. Lambrecht,  WanZhen Liang,  C. Ochsenfeld,  
 V. A. Rassolov,  L. V. Slipchenko,  J. E. Subotnik,  T. Van Voorhis,  
 J. M. Herbert,  A. I. Krylov,  P. M. W. Gill,  M. Head-Gordon

 Contributors to earlier versions of Q-Chem not listed above: 
 R. D. Adamson,  B. Austin,  J. Baker,  G. J. O. Beran,  K. Brandhorst,  
 S. T. Brown,  E. F. C. Byrd,  A. K. Chakraborty,  C.-L. Cheng,  
 Siu Hung Chien,  D. M. Chipman,  D. L. Crittenden,  H. Dachsel,  
 R. A. DiStasio Jr.,  R. J. Doerksen,  A. D. Dutoi,  L. Fusti-Molnar,  
 W. A. Goddard III,  A. Golubeva-Zadorozhnaya,  S. R. Gwaltney,  G. Hawkins,  
 A. Heyden,  S. Hirata,  G. Kedziora,  F. J. Keil,  C. Kelley,  Jihan Kim,  
 R. A. King,  R. Z. Khaliullin,  P. P. Korambath,  W. Kurlancheek,  
 A. M. Lee,  M. S. Lee,  S. V. Levchenko,  Ching Yeh Lin,  D. Liotard,  
 R. C. Lochan,  I. Lotan,  P. E. Maslen,  N. Nair,  D. P. O'Neill,  
 D. Neuhauser,  E. Neuscamman,  C. M. Oana,  R. Olson,  B. Peters,  
 R. Peverati,  P. A. Pieniazek,  Y. M. Rhee,  J. Ritchie,  M. A. Rohrdanz,  
 E. Rosta,  N. J. Russ,  H. F. Schaefer III,  N. E. Schultz,  N. Shenvi,  
 A. C. Simmonett,  A. Sodt,  D. Stuck,  K. S. Thanthiriwatte,  V. Vanovschi,  
 Tao Wang,  A. Warshel,  C. F. Williams,  Q. Wu,  X. Xu,  W. Zhang

 Please cite Q-Chem as follows:
 Y. Shao et al., Mol. Phys. 113, 184-215 (2015)
 DOI: 10.1080/00268976.2014.952696

 Q-Chem 5.0.1 for Intel X86 EM64T Linux

 Parts of Q-Chem use Armadillo 5.200.1 (Boston Tea Smuggler).
 http://arma.sourceforge.net/

 Q-Chem begins on Mon Jan 15 03:37:40 2018  

Host: vega02.cac.cornell.edu
0

     Scratch files written to /scratch/jj585/SOT1001/0650r.save//
 Parallel job on  1  processors

Checking the input file for inconsistencies... 	...done.

--------------------------------------------------------------
User input:
--------------------------------------------------------------
$molecule
0  1
O -2.2707276322 0.4918813929 1.0564011901
C -3.1728573699 1.1878004405 0.5353253955
C -4.4001405767 0.6668923849 -0.2842780157
C -4.2685200738 -0.8670803306 -0.6539298841
C -2.887649748 -1.5078298539 -0.2566345573
O -1.9246523732 -1.0842469973 -1.2402875325
C -0.5932868511 -1.6537575655 -0.9271478131
C 0.2718663213 -0.535224859 -0.2522811579
O 1.6354875283 -1.0767819513 -0.0481195205
C 2.3989289168 -0.1793958247 0.7721231861
C 3.8908221688 -0.6686557121 0.7463176701
C 4.6262637427 -0.6402967784 -0.6563109224
C 3.9900479441 0.2306608174 -1.8004650196
O 4.4585074185 0.3655232137 -2.9523099712
O -3.2375407013 2.6089434314 0.6294376991
O 2.8760168972 0.9828086285 -1.3154851585
O 1.9208437085 0.7685279532 1.4297276221
C 2.3456757659 1.8674193626 -2.3767307492
C 4.8568289183 0.2271876817 1.6309847507
C 6.0613722247 -0.6813265569 2.0884581138
C 6.8176308271 -0.8698379902 0.7206207767
C 5.9843300102 0.0779230768 -0.2315697293
O 5.4932328384 1.1519093461 0.6620213843
H 3.8876599212 -1.7094284608 1.1208230684
H 4.7992384455 -1.6575202031 -1.0510077458
H 4.3385305522 0.7958945608 2.4276646488
H 6.6869264882 -0.149551037 2.823216222
H 5.7271915041 -1.6339137144 2.5294922509
H 7.8637152556 -0.5305276064 0.7826312283
H 6.8071558698 -1.9146140312 0.3702827594
H 6.5501900677 0.5029148828 -1.0835924929
O -2.6713192184 -2.3639093427 0.6270485314
C -2.0936912603 3.1135110379 1.4281894463
C -5.7061552695 0.6372690232 0.6255206625
C -6.9600607382 0.3743368004 -0.3002512176
C -6.8100089882 -1.1657550262 -0.590666472
C -5.4684743846 -1.4869638033 0.1751207536
O -5.5489697586 -0.6258990621 1.3797947078
H -4.5356133288 1.3057335975 -1.1752053585
H -4.4078367769 -1.0121125286 -1.7401967459
H -1.1228189543 2.8256075633 0.9757381671
H -5.8010178434 1.4986749884 1.3151372186
H -7.8924177118 0.5966953756 0.2427910905
H -6.9308253242 0.9853824215 -1.2166280141
H -7.6462455593 -1.7396157513 -0.1605009913
H -6.7407150859 -1.3929696189 -1.6664388
H -5.3170516615 -2.5439812751 0.4677898325
H -2.1241009157 2.7289048251 2.4679728509
H -2.1905941795 4.2145438779 1.4359210535
H 1.5370731585 2.4549997717 -1.9043948736
H 1.9346371243 1.2831721862 -3.2255225482
H 3.1281368855 2.5513769976 -2.7636025445
H 0.3156835731 0.3553663533 -0.9162296793
H -0.2041988417 -0.2231794268 0.703437551
H -0.1348769088 -1.9801317726 -1.8830752347
H -0.7099026444 -2.5201559009 -0.2415384345
$end

$rem
JOBTYPE                   OPT
METHOD                    B3LYP
DFT_D                     d3_op
BASIS                     STO-3G
GEOM_OPT_MAX_CYCLES       100
GEOM_OPT_TOL_GRADIENT     300
GEOM_OPT_TOL_DISPLACEMENT 1200
GEOM_OPT_TOL_ENERGY       100
SYMMETRY                  False
THRESH                    12
SCF_CONVERGENCE           8
MAX_SUB_FILE_NUM          128
MEM_STATIC                400
MEM_TOTAL                 4000
$end
--------------------------------------------------------------
 Adding empirical dispersion correction 
 ----------------------------------------------------------------
 Doing -D3(op) with
 s6 =   1.00000
 s8 =   0.78311
 a1 =   0.30000
 a2 =   4.25000
 n  =  10.00000
 -D3 energy without 3body term =     -0.0670649410 hartrees
 ----------------------------------------------------------------
             Standard Nuclear Orientation (Angstroms)
    I     Atom           X                Y                Z
 ----------------------------------------------------------------
    1      O      -2.2618405548     0.8067033174     0.8083896865
    2      C      -3.1469318419     1.3187374208     0.0844450349
    3      C      -4.3722270798     0.5847096255    -0.5552219094
    4      C      -4.2597611399    -0.9899907643    -0.4339418722
    5      C      -2.8937015095    -1.4927884529     0.1629517160
    6      O      -1.9126931681    -1.4024123479    -0.8876739784
    7      C      -0.5940358333    -1.8627294088    -0.3935242426
    8      C       0.2800837941    -0.6005074055    -0.0808568138
    9      O       1.6327152492    -1.0680535215     0.3015273266
   10      C       2.4000221160     0.0294983246     0.8187920836
   11      C       3.8844379381    -0.4603282076     0.9683456623
   12      C       4.6368539990    -0.8722543898    -0.3632820627
   13      C       4.0277197447    -0.3879650192    -1.7296076242
   14      O       4.5118553665    -0.6185856690    -2.8595703463
   15      O      -3.1909272584     2.7006967921    -0.2633209195
   16      O       2.9196667999     0.4889380885    -1.5168716847
   17      O       1.9287450889     1.1387675538     1.1458827290
   18      C       2.4156108318     1.0105291297    -2.8067982086
   19      C       4.8534823186     0.6533289946     1.5506350183
   20      C       6.0384261169    -0.0838549727     2.2841693188
   21      C       6.8079156536    -0.6916927774     1.0525599363
   22      C       6.0006288016    -0.0731934448    -0.1578344479
   23      O       5.5154695501     1.2286688389     0.3549063365
   24      H       3.8608618113    -1.3356380354     1.6441778005
   25      H       4.7988890666    -1.9633685891    -0.4238111209
   26      H       4.3345303126     1.4449019165     2.1258399343
   27      H       6.6632812461     0.6410358846     2.8301199852
   28      H       5.6844552083    -0.8511896079     2.9909311672
   29      H       7.8582694518    -0.3612081193     1.0241653316
   30      H       6.7855856050    -1.7933919031     1.0397602336
   31      H       6.5830310588     0.0633039268    -1.0900010145
   32      O      -2.7010481340    -2.0383375144     1.2701227456
   33      C      -2.0490527355     3.4136829620     0.3601834207
   34      C      -5.6892681757     0.8502872866     0.2986848851
   35      C      -6.9359619161     0.3294241928    -0.5216334722
   36      C      -6.8061042121    -1.2269605916    -0.3227798536
   37      C      -5.4788539703    -1.3120622878     0.5260338733
   38      O      -5.5604530827    -0.1217472395     1.4067398404
   39      H      -4.4872833525     0.9204273251    -1.6012994265
   40      H      -4.3883594975    -1.4601601314    -1.4253158711
   41      H      -1.0773986619     2.9901077683     0.0335857756
   42      H      -5.7791022204     1.8828671968     0.6889395617
   43      H      -7.8711902925     0.7180342639    -0.0880923469
   44      H      -6.8864647059     0.6290718889    -1.5807553623
   45      H      -7.6560990106    -1.6317485345     0.2493264646
   46      H      -6.7275163906    -1.7743927946    -1.2755947124
   47      H      -5.3471502857    -2.2296607860     1.1314569503
   48      H      -2.0977186454     3.3674334664     1.4672014097
   49      H      -2.1291437961     4.4648474083     0.0279756588
   50      H       1.6105553346     1.7236056083    -2.5506777772
   51      H       2.0057821453     0.1983301832    -3.4417142386
   52      H       3.2130139749     1.5339714782    -3.3723683378
   53      H       0.3454457165     0.0425345563    -0.9853595238
   54      H      -0.2024702091    -0.0047783748     0.7251563360
   55      H      -0.1293509918    -2.4719644316    -1.1956200715
   56      H      -0.7320691243    -2.4752992358     0.5229966554
 ----------------------------------------------------------------
 Molecular Point Group                 C1    NOp =  1
 Largest Abelian Subgroup              C1    NOp =  1
 Nuclear Repulsion Energy =  3094.3062892610 hartrees
 There are      113 alpha and      113 beta electrons
 Requested basis set is STO-3G
 There are 86 shells and 176 basis functions

 Total QAlloc Memory Limit   4000 MB
 Mega-Array Size       392 MB
 MEM_STATIC part       400 MB
 A cutoff of  1.0D-12 yielded   2106 shell pairs
 There are      9891 function pairs
 
 -------------------------------------------------------
 OpenMP Integral Computing Module                       
 Release: version 1.0, May 2013, Q-Chem Inc. Pittsburgh 
 -------------------------------------------------------
 Integral Job Info:
 Integral job number is                      11
 Integral operator is                         1
 short-range coefficients                     0
 long-range coefficients              100000000
 Omega coefficients                           0
 if combine SR and LR in K                    0
 Integral screening is                        0
 Integral computing path is                   2
 max size of driver memory is            800000
 size of driver memory is                 45569
 size of scratch memory is              1046100
 max col of scratch BK array                289
 max len of scratch array in speh3           22
 max len of scratch index in speh4            8
 max int batch size is                      520
 min int batch size is                       52
 fixed nKL is                                52
 max L of basis functions is                  1
 order of int derivative is                   0
 number of shells is                         86
 number of basis is                         176
 number of cartesian basis is               176
 number of contracted shell pairs          2106
 number of primitive shell pairs          10799
 maxK2 (contraction) of shell pair            9
 max number of K2 of shell pair               1
 max number of CS2 of shell pair            326
 max number of PS2 of shell pair           1248
 mem total for path MDJ                   49782
 -------------------------------------------------------
 Smallest overlap matrix eigenvalue = 2.13E-01

 Scale SEOQF with 1.000000e-02/1.000000e-01/1.000000e-01

 Standard Electronic Orientation quadrupole field applied
 Nucleus-field energy     =     0.0000000065 hartrees
 Guess from superposition of atomic densities
 Warning:  Energy on first SCF cycle will be non-variational
 A restricted hybrid HF-DFT SCF calculation will be
 performed using Pulay DIIS extrapolation
 Exchange:     0.2000 Hartree-Fock + 0.0800 Slater + 0.7200 B88
 Correlation:  0.1900 VWN1RPA + 0.8100 LYP
 Using SG-1 standard quadrature grid
 Dispersion:   Grimme D3
 SCF converges when DIIS error is below 1.0E-08
 using 48 threads for integral computing
 -------------------------------------------------------
 OpenMP Integral computing Module                
 Release: version 1.0, May 2013, Q-Chem Inc. Pittsburgh 
 -------------------------------------------------------
 -------------------------------------------------------
 OpenMP BLAS3 based DFT computing Module                
 Release: version 1.0, May 2013, Q-Chem Inc. Pittsburgh 
 -------------------------------------------------------
 ---------------------------------------
  Cycle       Energy         DIIS Error
 ---------------------------------------
    1   -1507.6389801412      7.47E-02
    2   -1509.7462666530      1.04E-02
    3   -1507.4018577840      2.71E-02
    4   -1510.1961530071      4.40E-03
    5   -1510.2759288782      1.41E-03
    6   -1510.2845280178      2.86E-04
    7   -1510.2848582347      1.05E-04
    8   -1510.2848967865      4.41E-05
    9   -1510.2849051501      9.23E-06
   10   -1510.2849055351      2.15E-06
   11   -1510.2849055551      7.98E-07
   12   -1510.2849055571      4.33E-07
   13   -1510.2849055579      1.00E-07
   14   -1510.2849055579      2.82E-08
   15   -1510.2849055579      1.35E-08
   16   -1510.2849055579      6.65E-09 Convergence criterion met
 ---------------------------------------
 SCF time:  CPU 118.00 s  wall 2.51 s
 SCF   energy in the final basis set = -1510.28490556
 Total energy in the final basis set = -1510.28490556
 
 --------------------------------------------------------------
 
                    Orbital Energies (a.u.)
 --------------------------------------------------------------
 
 Alpha MOs
 -- Occupied --
-18.946 -18.942 -18.919 -18.918 -18.888 -18.888 -18.884 -18.873
-18.866 -18.863 -10.108 -10.101 -10.094 -10.094 -10.069 -10.069
-10.063 -10.060 -10.058 -10.058 -10.056 -10.054 -10.042 -10.038
-10.035 -10.032 -10.022 -10.021 -10.019 -10.017  -1.022  -1.016
 -1.002  -0.997  -0.971  -0.968  -0.945  -0.937  -0.930  -0.925
 -0.765  -0.760  -0.726  -0.722  -0.711  -0.703  -0.690  -0.667
 -0.665  -0.612  -0.597  -0.577  -0.546  -0.541  -0.537  -0.535
 -0.513  -0.509  -0.484  -0.477  -0.463  -0.456  -0.454  -0.444
 -0.435  -0.431  -0.423  -0.416  -0.416  -0.413  -0.410  -0.393
 -0.392  -0.380  -0.377  -0.366  -0.361  -0.358  -0.353  -0.344
 -0.341  -0.337  -0.336  -0.331  -0.328  -0.326  -0.319  -0.313
 -0.307  -0.306  -0.305  -0.302  -0.297  -0.291  -0.279  -0.274
 -0.268  -0.260  -0.245  -0.242  -0.239  -0.235  -0.232  -0.187
 -0.181  -0.167  -0.164  -0.161  -0.155  -0.148  -0.146  -0.143
 -0.142
 -- Virtual --
  0.089   0.098   0.112   0.114   0.218   0.240   0.246   0.250
  0.254   0.280   0.283   0.294   0.306   0.315   0.328   0.331
  0.333   0.341   0.344   0.352   0.354   0.362   0.369   0.371
  0.377   0.382   0.394   0.397   0.402   0.407   0.410   0.412
  0.416   0.418   0.420   0.420   0.425   0.426   0.429   0.430
  0.431   0.436   0.438   0.440   0.444   0.449   0.452   0.465
  0.469   0.470   0.486   0.493   0.496   0.506   0.507   0.539
  0.543   0.550   0.556   0.635   0.638   0.653   0.656
 --------------------------------------------------------------
 
          Ground-State Mulliken Net Atomic Charges

     Atom                 Charge (a.u.)
  ----------------------------------------
      1 O                    -0.207275
      2 C                     0.216258
      3 C                    -0.077846
      4 C                    -0.080802
      5 C                     0.216831
      6 O                    -0.181803
      7 C                    -0.052762
      8 C                    -0.052856
      9 O                    -0.180559
     10 C                     0.221388
     11 C                    -0.080829
     12 C                    -0.076337
     13 C                     0.212615
     14 O                    -0.216357
     15 O                    -0.167599
     16 O                    -0.165896
     17 O                    -0.217934
     18 C                    -0.125974
     19 C                     0.023484
     20 C                    -0.142685
     21 C                    -0.144902
     22 C                     0.024410
     23 O                    -0.191707
     24 H                     0.083259
     25 H                     0.086632
     26 H                     0.090372
     27 H                     0.077683
     28 H                     0.073461
     29 H                     0.078089
     30 H                     0.073647
     31 H                     0.084883
     32 O                    -0.215196
     33 C                    -0.128781
     34 C                     0.025239
     35 C                    -0.143803
     36 C                    -0.143687
     37 C                     0.024748
     38 O                    -0.188519
     39 H                     0.087358
     40 H                     0.084575
     41 H                     0.094585
     42 H                     0.084700
     43 H                     0.078630
     44 H                     0.073754
     45 H                     0.078528
     46 H                     0.073447
     47 H                     0.090319
     48 H                     0.093325
     49 H                     0.092560
     50 H                     0.091858
     51 H                     0.089029
     52 H                     0.093737
     53 H                     0.077644
     54 H                     0.103402
     55 H                     0.083586
     56 H                     0.100070
  ----------------------------------------
  Sum of atomic charges =    -0.000000

 -----------------------------------------------------------------
                    Cartesian Multipole Moments
 -----------------------------------------------------------------
    Charge (ESU x 10^10)
                 0.0000
    Dipole Moment (Debye)
         X      -1.1248      Y       0.1124      Z      -1.7741
       Tot       2.1037
    Quadrupole Moments (Debye-Ang)
        XX    -147.3534     XY      -7.8560     YY    -156.1962
        XZ      16.6402     YZ      -0.8749     ZZ    -163.3369
    Octopole Moments (Debye-Ang^2)
       XXX     -46.2093    XXY     -33.2801    XYY     -17.7441
       YYY      19.5507    XXZ       5.3302    XYZ     -26.1224
       YYZ      -1.0906    XZZ       8.5443    YZZ      17.8404
       ZZZ       0.5192
    Hexadecapole Moments (Debye-Ang^3)
      XXXX  -17440.9915   XXXY     -90.7091   XXYY   -3347.9173
      XYYY     -30.7986   YYYY   -1704.0686   XXXZ     327.6132
      XXYZ     -25.0080   XYYZ     -55.1865   YYYZ      26.4693
      XXZZ   -3434.0272   XYZZ      43.1307   YYZZ    -550.3527
      XZZZ      15.8758   YZZZ     -21.3617   ZZZZ   -1577.2010
 -----------------------------------------------------------------
 Calculating analytic gradient of the SCF energy
 Gradient of SCF Energy
            1           2           3           4           5           6
    1   0.0002415  -0.0004655   0.0001319  -0.0006922   0.0007802   0.0007308
    2  -0.0000324   0.0001430  -0.0001666  -0.0021796   0.0024676   0.0018683
    3  -0.0002533   0.0001966  -0.0002409  -0.0002182   0.0007899  -0.0004923
            7           8           9          10          11          12
    1  -0.0009779   0.0004889  -0.0002418  -0.0005891   0.0026429  -0.0015864
    2  -0.0021445   0.0003834   0.0000755  -0.0015014   0.0043884  -0.0027155
    3   0.0005168  -0.0013582  -0.0000224   0.0039230  -0.0023940  -0.0007121
           13          14          15          16          17          18
    1  -0.0022971   0.0020837  -0.0000877   0.0001702  -0.0002767  -0.0001427
    2  -0.0034287   0.0030571  -0.0000187   0.0000114  -0.0001018  -0.0000120
    3  -0.0002362   0.0002581   0.0000358   0.0000131  -0.0001746   0.0000021
           19          20          21          22          23          24
    1  -0.0002650   0.0002934  -0.0005282   0.0002950   0.0000036  -0.0001957
    2  -0.0000948  -0.0000478   0.0000699   0.0000631  -0.0000515  -0.0002171
    3   0.0002364   0.0000187  -0.0000396   0.0004042  -0.0000562   0.0000263
           25          26          27          28          29          30
    1  -0.0000882   0.0000509  -0.0000073   0.0000276  -0.0000154   0.0001254
    2   0.0000162   0.0001054  -0.0000285   0.0001561  -0.0000177  -0.0000656
    3   0.0000223  -0.0000131  -0.0000414  -0.0000054  -0.0000259   0.0000047
           31          32          33          34          35          36
    1   0.0000731   0.0000641   0.0000633   0.0003146  -0.0002263   0.0003034
    2  -0.0000886   0.0000867   0.0000896   0.0002611   0.0000873  -0.0002068
    3   0.0001202   0.0000786  -0.0000745  -0.0000469  -0.0000115   0.0001125
           37          38          39          40          41          42
    1   0.0001310  -0.0004137   0.0002454  -0.0001967  -0.0000268  -0.0001862
    2  -0.0003148   0.0000826  -0.0000282   0.0001106  -0.0000452   0.0000154
    3  -0.0003546   0.0002318  -0.0000684  -0.0000197   0.0000204   0.0000126
           43          44          45          46          47          48
    1  -0.0000871   0.0001192  -0.0000218   0.0002258  -0.0000405   0.0000133
    2   0.0000605  -0.0000286  -0.0000304   0.0000507   0.0000182   0.0000089
    3  -0.0000002   0.0000260  -0.0000047  -0.0000740  -0.0000761   0.0000347
           49          50          51          52          53          54
    1  -0.0000132  -0.0000339   0.0000600   0.0000152  -0.0000174   0.0000384
    2  -0.0000143  -0.0001165   0.0000052   0.0001019   0.0000119   0.0000587
    3   0.0000296   0.0000274  -0.0000351   0.0000087   0.0000269  -0.0000327
           55          56
    1  -0.0000960   0.0000837
    2  -0.0001101  -0.0000475
    3  -0.0000272  -0.0000680
 Max gradient component =       4.388E-03
 RMS gradient           =       8.418E-04
 Gradient time:  CPU 31.08 s  wall 0.67 s
 Geometry Optimization Parameters
   NAtoms,    NIC,     NZ,  NCons,   NDum,   NFix, NCnnct, MaxDiis
       56     458       0       0       0       0       0       0


** GEOMETRY OPTIMIZATION IN DELOCALIZED INTERNAL COORDINATES **
   Searching for a Minimum

   Optimization Cycle:   1

                       Coordinates (Angstroms)
     ATOM                X               Y               Z
      1  O        -2.2618405548    0.8067033174    0.8083896865
      2  C        -3.1469318419    1.3187374208    0.0844450349
      3  C        -4.3722270798    0.5847096255   -0.5552219094
      4  C        -4.2597611399   -0.9899907643   -0.4339418722
      5  C        -2.8937015095   -1.4927884529    0.1629517160
      6  O        -1.9126931681   -1.4024123479   -0.8876739784
      7  C        -0.5940358333   -1.8627294088   -0.3935242426
      8  C         0.2800837941   -0.6005074055   -0.0808568138
      9  O         1.6327152492   -1.0680535215    0.3015273266
     10  C         2.4000221160    0.0294983246    0.8187920836
     11  C         3.8844379381   -0.4603282076    0.9683456623
     12  C         4.6368539990   -0.8722543898   -0.3632820627
     13  C         4.0277197447   -0.3879650192   -1.7296076242
     14  O         4.5118553665   -0.6185856690   -2.8595703463
     15  O        -3.1909272584    2.7006967921   -0.2633209195
     16  O         2.9196667999    0.4889380885   -1.5168716847
     17  O         1.9287450889    1.1387675538    1.1458827290
     18  C         2.4156108318    1.0105291297   -2.8067982086
     19  C         4.8534823186    0.6533289946    1.5506350183
     20  C         6.0384261169   -0.0838549727    2.2841693188
     21  C         6.8079156536   -0.6916927774    1.0525599363
     22  C         6.0006288016   -0.0731934448   -0.1578344479
     23  O         5.5154695501    1.2286688389    0.3549063365
     24  H         3.8608618113   -1.3356380354    1.6441778005
     25  H         4.7988890666   -1.9633685891   -0.4238111209
     26  H         4.3345303126    1.4449019165    2.1258399343
     27  H         6.6632812461    0.6410358846    2.8301199852
     28  H         5.6844552083   -0.8511896079    2.9909311672
     29  H         7.8582694518   -0.3612081193    1.0241653316
     30  H         6.7855856050   -1.7933919031    1.0397602336
     31  H         6.5830310588    0.0633039268   -1.0900010145
     32  O        -2.7010481340   -2.0383375144    1.2701227456
     33  C        -2.0490527355    3.4136829620    0.3601834207
     34  C        -5.6892681757    0.8502872866    0.2986848851
     35  C        -6.9359619161    0.3294241928   -0.5216334722
     36  C        -6.8061042121   -1.2269605916   -0.3227798536
     37  C        -5.4788539703   -1.3120622878    0.5260338733
     38  O        -5.5604530827   -0.1217472395    1.4067398404
     39  H        -4.4872833525    0.9204273251   -1.6012994265
     40  H        -4.3883594975   -1.4601601314   -1.4253158711
     41  H        -1.0773986619    2.9901077683    0.0335857756
     42  H        -5.7791022204    1.8828671968    0.6889395617
     43  H        -7.8711902925    0.7180342639   -0.0880923469
     44  H        -6.8864647059    0.6290718889   -1.5807553623
     45  H        -7.6560990106   -1.6317485345    0.2493264646
     46  H        -6.7275163906   -1.7743927946   -1.2755947124
     47  H        -5.3471502857   -2.2296607860    1.1314569503
     48  H        -2.0977186454    3.3674334664    1.4672014097
     49  H        -2.1291437961    4.4648474083    0.0279756588
     50  H         1.6105553346    1.7236056083   -2.5506777772
     51  H         2.0057821453    0.1983301832   -3.4417142386
     52  H         3.2130139749    1.5339714782   -3.3723683378
     53  H         0.3454457165    0.0425345563   -0.9853595238
     54  H        -0.2024702091   -0.0047783748    0.7251563360
     55  H        -0.1293509918   -2.4719644316   -1.1956200715
     56  H        -0.7320691243   -2.4752992358    0.5229966554
   Point Group: c1    Number of degrees of freedom:   162


   Energy is  -1510.284905558


 Attempting to Generate Delocalized Internal Coordinates

162 Hessian modes will be used to form the next step
  Hessian Eigenvalues:
     0.002000    0.002000    0.002000    0.002000    0.002000    0.002688
     0.002756    0.004252    0.004444    0.004590    0.004808    0.004826
     0.004860    0.004883    0.005079    0.006805    0.006807    0.010319
     0.010936    0.011811    0.012243    0.021656    0.021738    0.026025
     0.026306    0.030553    0.030901    0.034997    0.035446    0.039407
     0.041281    0.041817    0.041873    0.043298    0.046609    0.047220
     0.047550    0.050990    0.051006    0.051286    0.051406    0.053291
     0.054279    0.054410    0.055410    0.055447    0.055922    0.056620
     0.058246    0.058803    0.059123    0.060438    0.060589    0.063195
     0.063768    0.064205    0.064501    0.069829    0.070081    0.072902
     0.073056    0.091923    0.092112    0.092778    0.092995    0.096035
     0.096630    0.096787    0.096922    0.102580    0.102910    0.107465
     0.110027    0.110064    0.111352    0.120501    0.121138    0.134953
     0.135067    0.157336    0.157767    0.160000    0.160000    0.160000
     0.160000    0.160000    0.160000    0.163090    0.163872    0.218922
     0.219352    0.219645    0.220570    0.228663    0.228696    0.238353
     0.238584    0.239679    0.239779    0.244937    0.246689    0.247825
     0.248904    0.249665    0.249973    0.250000    0.250000    0.250000
     0.250000    0.250000    0.250000    0.250000    0.250000    0.253432
     0.253694    0.257631    0.258315    0.259963    0.262661    0.264118
     0.291778    0.292286    0.306688    0.307154    0.323484    0.324196
     0.324951    0.326647    0.326785    0.326911    0.327006    0.327142
     0.328563    0.328564    0.328645    0.328993    0.330157    0.330782
     0.331010    0.331634    0.331649    0.331745    0.334619    0.334831
     0.334834    0.334962    0.334994    0.335006    0.335014    0.335184
     0.341639    0.343949    0.344143    0.345835    0.395493    0.401953
     0.411356    0.416099    0.821885    0.829584    0.835233    0.836718

 Minimum Search - Taking Simple RFO Step
 Searching for Lamda that Minimizes Along All modes
 Value Taken    Lamda =  -0.00642481
 Calculated Step too Large.  Step scaled by  0.416061
 Step Taken.  Stepsize is  0.300000

                             Maximum     Tolerance    Cnvgd?
         Gradient           0.003340      0.000300      NO
         Displacement       0.090434      0.001200      NO
         Energy change     *********      0.000001      NO


 New Cartesian Coordinates Obtained by Inverse Iteration

 Displacement from previous Coordinates is:  3.670448
 Adding empirical dispersion correction 
 ----------------------------------------------------------------
 Doing -D3(op) with
 s6 =   1.00000
 s8 =   0.78311
 a1 =   0.30000
 a2 =   4.25000
 n  =  10.00000
 -D3 energy without 3body term =     -0.0676936594 hartrees
 ----------------------------------------------------------------
             Standard Nuclear Orientation (Angstroms)
    I     Atom           X                Y                Z
 ----------------------------------------------------------------
    1      O      -2.1289923148     0.5461225177     0.7869491438
    2      C      -3.0049997777     1.1581977898     0.1330305940
    3      C      -4.3099431008     0.5493606866    -0.4802447400
    4      C      -4.3035815420    -1.0336934416    -0.4523428356
    5      C      -2.9493254727    -1.6598668579     0.0464218676
    6      O      -1.9919478006    -1.5153628836    -1.0197910289
    7      C      -0.6449963838    -1.9182945623    -0.5525235941
    8      C       0.1779086801    -0.6184466718    -0.2553027475
    9      O       1.5506725501    -1.0253257464     0.1245522590
   10      C       2.2817453380     0.1141777024     0.6022318801
   11      C       3.7484087720    -0.3601553225     0.9014169685
   12      C       4.6189642632    -0.8096735980    -0.3424425809
   13      C       4.1259380815    -0.3853422684    -1.7740325017
   14      O       4.6520121570    -0.7325619743    -2.8543397911
   15      O      -2.9641960930     2.5571340288    -0.1389686501
   16      O       3.0237425380     0.5206195159    -1.6935875530
   17      O       1.7756489594     1.2241791930     0.8693533964
   18      C       2.6067839587     0.9509019645    -3.0467196445
   19      C       4.6571585787     0.7816521941     1.5255547889
   20      C       5.7776206620     0.0807946810     2.3852011709
   21      C       6.6576615747    -0.5602306529     1.2477479517
   22      C       5.9549776229     0.0078275413    -0.0497171390
   23      O       5.4181325587     1.3217575551     0.3728087974
   24      H       3.6699588282    -1.2104712533     1.6042728513
   25      H       4.7888259436    -1.9012854353    -0.3469080362
   26      H       4.0851059337     1.5877316672     2.0252505374
   27      H       6.3467034903     0.8296497763     2.9591359002
   28      H       5.3678659584    -0.6661503726     3.0837456106
   29      H       7.7040169079    -0.2201106091     1.3002333631
   30      H       6.6442049047    -1.6618503230     1.2714695402
   31      H       6.6148541322     0.1173328430    -0.9325684207
   32      O      -2.7333451855    -2.2563190104     1.1225884486
   33      C      -1.7470063228     3.1525014989     0.4650606659
   34      C      -5.5604723856     0.8535665643     0.4563422855
   35      C      -6.8806357101     0.4694321188    -0.3232915191
   36      C      -6.8536317038    -1.1010437046    -0.2182186793
   37      C      -5.4946665233    -1.3276334501     0.5513425635
   38      O      -5.4460540370    -0.1889627118     1.4999050591
   39      H      -4.4525457606     0.9532042193    -1.4984595915
   40      H      -4.5110957912    -1.4354213554    -1.4603065492
   41      H      -0.8240421056     2.6813832415     0.0695925277
   42      H      -5.5558790621     1.8648910778     0.9077119198
   43      H      -7.7624889150     0.8951305617     0.1812875571
   44      H      -6.8632017181     0.8272121031    -1.3652704101
   45      H      -7.7006090141    -1.4788243623     0.3763546206
   46      H      -6.8636934316    -1.5956566136    -1.2025502166
   47      H      -5.3991582180    -2.2861598313     1.0972919239
   48      H      -1.7493333451     3.0475837148     1.5691124870
   49      H      -1.7657140448     4.2237046531     0.1931635539
   50      H       1.8058962483     1.6974434470    -2.8933985308
   51      H       2.2144577148     0.1002704156    -3.6410700765
   52      H       3.4475953080     1.4132203812    -3.6025375833
   53      H       0.2103663404     0.0191513818    -1.1654340332
   54      H      -0.3239820819    -0.0367408770     0.5491511901
   55      H      -0.1681131518    -2.5073614497    -1.3624516639
   56      H      -0.7404205078    -2.5350088555     0.3666723319
 ----------------------------------------------------------------
 Molecular Point Group                 C1    NOp =  1
 Largest Abelian Subgroup              C1    NOp =  1
 Nuclear Repulsion Energy =  3108.2230800468 hartrees
 There are      113 alpha and      113 beta electrons
 Applying Cartesian multipole field
    Component          Value
    ---------          -----
     (2,0,0)        1.00000E-12
     (0,2,0)        2.00000E-11
     (0,0,2)       -3.00000E-11
 Nucleus-field energy     =     0.0000000033 hartrees
 Requested basis set is STO-3G
 There are 86 shells and 176 basis functions
 A cutoff of  1.0D-12 yielded   2126 shell pairs
 There are     10001 function pairs
 Smallest overlap matrix eigenvalue = 2.13E-01
 Guess MOs from SCF MO coefficient file
 Reading MOs from coefficient file
 Reading MOs from coefficient file
 A restricted hybrid HF-DFT SCF calculation will be
 performed using Pulay DIIS extrapolation
 Exchange:     0.2000 Hartree-Fock + 0.0800 Slater + 0.7200 B88
 Correlation:  0.1900 VWN1RPA + 0.8100 LYP
 Using SG-1 standard quadrature grid
 Dispersion:   Grimme D3
 SCF converges when DIIS error is below 1.0E-08
 Geometry optimization detected.  Setting ReadMinima to 0
 Setting SaveMinima to 0
 using 48 threads for integral computing
 -------------------------------------------------------
 OpenMP Integral computing Module                
 Release: version 1.0, May 2013, Q-Chem Inc. Pittsburgh 
 -------------------------------------------------------
 -------------------------------------------------------
 OpenMP BLAS3 based DFT computing Module                
 Release: version 1.0, May 2013, Q-Chem Inc. Pittsburgh 
 -------------------------------------------------------
 ---------------------------------------
  Cycle       Energy         DIIS Error
 ---------------------------------------
    1   -1510.1750817553      5.12E-03
    2   -1510.2843153971      4.54E-04
    3   -1510.2837743155      6.58E-04
    4   -1510.2854332495      2.33E-04
    5   -1510.2856594162      6.52E-05
    6   -1510.2856779422      2.11E-05
    7   -1510.2856798843      8.21E-06
    8   -1510.2856801475      3.15E-06
    9   -1510.2856801919      5.04E-07
   10   -1510.2856801928      3.02E-07
   11   -1510.2856801932      1.46E-07
   12   -1510.2856801932      2.94E-08
   13   -1510.2856801933      1.09E-08
   14   -1510.2856801933      1.92E-09 Convergence criterion met
 ---------------------------------------
 SCF time:  CPU 100.20 s  wall 2.09 s
 SCF   energy in the final basis set = -1510.28568019
 Total energy in the final basis set = -1510.28568019
 
 --------------------------------------------------------------
 
                    Orbital Energies (a.u.)
 --------------------------------------------------------------
 
 Alpha MOs
 -- Occupied --
-18.947 -18.941 -18.919 -18.917 -18.891 -18.889 -18.884 -18.872
-18.867 -18.861 -10.111 -10.100 -10.094 -10.093 -10.068 -10.068
-10.064 -10.059 -10.059 -10.058 -10.054 -10.050 -10.044 -10.037
-10.036 -10.031 -10.023 -10.021 -10.019 -10.017  -1.024  -1.014
 -1.002  -0.996  -0.972  -0.967  -0.947  -0.937  -0.930  -0.924
 -0.766  -0.760  -0.726  -0.722  -0.711  -0.703  -0.689  -0.667
 -0.664  -0.611  -0.597  -0.575  -0.547  -0.541  -0.538  -0.534
 -0.514  -0.508  -0.483  -0.478  -0.463  -0.458  -0.453  -0.443
 -0.435  -0.430  -0.423  -0.415  -0.415  -0.413  -0.410  -0.395
 -0.392  -0.379  -0.378  -0.364  -0.361  -0.358  -0.354  -0.345
 -0.341  -0.337  -0.335  -0.331  -0.328  -0.326  -0.319  -0.314
 -0.306  -0.306  -0.305  -0.303  -0.297  -0.290  -0.280  -0.275
 -0.267  -0.262  -0.244  -0.241  -0.239  -0.236  -0.232  -0.188
 -0.180  -0.167  -0.164  -0.162  -0.154  -0.149  -0.146  -0.142
 -0.141
 -- Virtual --
  0.087   0.099   0.111   0.115   0.219   0.239   0.246   0.250
  0.255   0.281   0.283   0.293   0.306   0.314   0.327   0.331
  0.333   0.341   0.345   0.352   0.353   0.365   0.370   0.372
  0.377   0.383   0.397   0.399   0.401   0.407   0.409   0.413
  0.416   0.419   0.419   0.421   0.425   0.426   0.429   0.430
  0.433   0.436   0.437   0.439   0.444   0.450   0.453   0.464
  0.469   0.477   0.485   0.493   0.501   0.506   0.508   0.539
  0.544   0.550   0.556   0.637   0.639   0.652   0.657
 --------------------------------------------------------------
 
          Ground-State Mulliken Net Atomic Charges

     Atom                 Charge (a.u.)
  ----------------------------------------
      1 O                    -0.207613
      2 C                     0.218630
      3 C                    -0.077507
      4 C                    -0.080782
      5 C                     0.217044
      6 O                    -0.182479
      7 C                    -0.052952
      8 C                    -0.059272
      9 O                    -0.180879
     10 C                     0.220841
     11 C                    -0.080821
     12 C                    -0.076588
     13 C                     0.212480
     14 O                    -0.216477
     15 O                    -0.166656
     16 O                    -0.165584
     17 O                    -0.221461
     18 C                    -0.125721
     19 C                     0.023514
     20 C                    -0.142760
     21 C                    -0.144809
     22 C                     0.024407
     23 O                    -0.191687
     24 H                     0.083717
     25 H                     0.086754
     26 H                     0.089999
     27 H                     0.077549
     28 H                     0.073439
     29 H                     0.077945
     30 H                     0.073700
     31 H                     0.084201
     32 O                    -0.213735
     33 C                    -0.129644
     34 C                     0.025309
     35 C                    -0.143779
     36 C                    -0.143702
     37 C                     0.024795
     38 O                    -0.188498
     39 H                     0.088083
     40 H                     0.084589
     41 H                     0.098053
     42 H                     0.084928
     43 H                     0.078828
     44 H                     0.073917
     45 H                     0.078638
     46 H                     0.073613
     47 H                     0.090371
     48 H                     0.093376
     49 H                     0.092853
     50 H                     0.092036
     51 H                     0.089101
     52 H                     0.093338
     53 H                     0.073969
     54 H                     0.110328
     55 H                     0.082997
     56 H                     0.100059
  ----------------------------------------
  Sum of atomic charges =    -0.000000

 -----------------------------------------------------------------
                    Cartesian Multipole Moments
 -----------------------------------------------------------------
    Charge (ESU x 10^10)
                 0.0000
    Dipole Moment (Debye)
         X      -1.3218      Y       0.4356      Z      -1.5151
       Tot       2.0572
    Quadrupole Moments (Debye-Ang)
        XX    -147.3932     XY      -7.3308     YY    -158.4674
        XZ      16.2634     YZ      -0.4929     ZZ    -161.7632
    Octopole Moments (Debye-Ang^2)
       XXX     -64.1055    XXY     -23.0847    XYY     -15.7060
       YYY      21.1679    XXZ      11.6107    XYZ     -27.8697
       YYZ       1.4794    XZZ      10.7218    YZZ      23.0921
       ZZZ       3.7009
    Hexadecapole Moments (Debye-Ang^3)
      XXXX  -17011.2324   XXXY    -200.2454   XXYY   -3285.1118
      XYYY    -160.9529   YYYY   -1676.8302   XXXZ     418.6008
      XXYZ     -46.1019   XYYZ     -11.3056   YYYZ      -7.8072
      XXZZ   -3370.5552   XYZZ       3.6724   YYZZ    -554.4318
      XZZZ     100.0794   YZZZ     -63.0574   ZZZZ   -1647.0325
 -----------------------------------------------------------------
 Calculating analytic gradient of the SCF energy
 Gradient of SCF Energy
            1           2           3           4           5           6
    1   0.0046887   0.0008923  -0.0010207  -0.0002628  -0.0016503   0.0013315
    2  -0.0027509  -0.0027308   0.0003712   0.0013625  -0.0030007   0.0021149
    3  -0.0038108   0.0008980  -0.0002684   0.0007081  -0.0016186   0.0000951
            7           8           9          10          11          12
    1  -0.0011254  -0.0039141  -0.0022584   0.0007409   0.0010861  -0.0025488
    2  -0.0006394   0.0005014  -0.0007337   0.0023874   0.0020126  -0.0030246
    3   0.0003189   0.0009345   0.0018030  -0.0027910   0.0005222  -0.0000922
           13          14          15          16          17          18
    1   0.0014400   0.0007692   0.0000113  -0.0005045   0.0004152   0.0002424
    2   0.0022950   0.0007819   0.0012141  -0.0006769  -0.0017548  -0.0000472
    3   0.0001167  -0.0001071   0.0000323  -0.0018612   0.0024369  -0.0002409
           19          20          21          22          23          24
    1  -0.0002395   0.0000231  -0.0001858   0.0004309   0.0001866   0.0004561
    2  -0.0001480  -0.0000594   0.0001501   0.0002882  -0.0001300  -0.0002412
    3   0.0003274  -0.0000543   0.0000956  -0.0003010  -0.0002869   0.0001441
           25          26          27          28          29          30
    1  -0.0004413   0.0000225   0.0000161   0.0000947   0.0000234   0.0000573
    2  -0.0001186   0.0000293  -0.0000212   0.0000013  -0.0000381  -0.0000530
    3   0.0006274   0.0000665  -0.0000668   0.0000845  -0.0000667   0.0000314
           31          32          33          34          35          36
    1  -0.0001403   0.0010785  -0.0005597   0.0005942  -0.0004221   0.0001832
    2  -0.0001734   0.0019001  -0.0001785   0.0001120  -0.0000073  -0.0001663
    3  -0.0000923   0.0011625  -0.0000684  -0.0003006   0.0000016   0.0000940
           37          38          39          40          41          42
    1   0.0002801  -0.0003124   0.0000646   0.0001454  -0.0004519  -0.0000891
    2  -0.0000043  -0.0000364  -0.0000421   0.0000181  -0.0000271  -0.0000371
    3  -0.0001890   0.0002325  -0.0000792   0.0000885  -0.0001852   0.0000237
           43          44          45          46          47          48
    1  -0.0000257   0.0000111   0.0000189   0.0000413   0.0000623   0.0000774
    2   0.0000051   0.0001521   0.0000135  -0.0000246   0.0000151   0.0000299
    3  -0.0000575  -0.0000177   0.0000075  -0.0000493   0.0000158   0.0000790
           49          50          51          52          53          54
    1   0.0000348   0.0000540   0.0000667   0.0000346   0.0000763   0.0003864
    2   0.0000652   0.0000468   0.0000781   0.0000569  -0.0000299   0.0004364
    3  -0.0000213  -0.0000145  -0.0000285   0.0000114   0.0005869   0.0010450
           55          56
    1   0.0000191  -0.0000047
    2   0.0002311   0.0002256
    3  -0.0001171   0.0001954
 Max gradient component =       4.689E-03
 RMS gradient           =       1.020E-03
 Gradient time:  CPU 30.99 s  wall 0.65 s
 Geometry Optimization Parameters
   NAtoms,    NIC,     NZ,  NCons,   NDum,   NFix, NCnnct, MaxDiis
       56     458       0       0       0       0       0       0

 Cartesian Hessian Update
 Hessian Updated using BFGS Update


** GEOMETRY OPTIMIZATION IN DELOCALIZED INTERNAL COORDINATES **
   Searching for a Minimum

   Optimization Cycle:   2

                       Coordinates (Angstroms)
     ATOM                X               Y               Z
      1  O        -2.1289923148    0.5461225177    0.7869491438
      2  C        -3.0049997777    1.1581977898    0.1330305940
      3  C        -4.3099431008    0.5493606866   -0.4802447400
      4  C        -4.3035815420   -1.0336934416   -0.4523428356
      5  C        -2.9493254727   -1.6598668579    0.0464218676
      6  O        -1.9919478006   -1.5153628836   -1.0197910289
      7  C        -0.6449963838   -1.9182945623   -0.5525235941
      8  C         0.1779086801   -0.6184466718   -0.2553027475
      9  O         1.5506725501   -1.0253257464    0.1245522590
     10  C         2.2817453380    0.1141777024    0.6022318801
     11  C         3.7484087720   -0.3601553225    0.9014169685
     12  C         4.6189642632   -0.8096735980   -0.3424425809
     13  C         4.1259380815   -0.3853422684   -1.7740325017
     14  O         4.6520121570   -0.7325619743   -2.8543397911
     15  O        -2.9641960930    2.5571340288   -0.1389686501
     16  O         3.0237425380    0.5206195159   -1.6935875530
     17  O         1.7756489594    1.2241791930    0.8693533964
     18  C         2.6067839587    0.9509019645   -3.0467196445
     19  C         4.6571585787    0.7816521941    1.5255547889
     20  C         5.7776206620    0.0807946810    2.3852011709
     21  C         6.6576615747   -0.5602306529    1.2477479517
     22  C         5.9549776229    0.0078275413   -0.0497171390
     23  O         5.4181325587    1.3217575551    0.3728087974
     24  H         3.6699588282   -1.2104712533    1.6042728513
     25  H         4.7888259436   -1.9012854353   -0.3469080362
     26  H         4.0851059337    1.5877316672    2.0252505374
     27  H         6.3467034903    0.8296497763    2.9591359002
     28  H         5.3678659584   -0.6661503726    3.0837456106
     29  H         7.7040169079   -0.2201106091    1.3002333631
     30  H         6.6442049047   -1.6618503230    1.2714695402
     31  H         6.6148541322    0.1173328430   -0.9325684207
     32  O        -2.7333451855   -2.2563190104    1.1225884486
     33  C        -1.7470063228    3.1525014989    0.4650606659
     34  C        -5.5604723856    0.8535665643    0.4563422855
     35  C        -6.8806357101    0.4694321188   -0.3232915191
     36  C        -6.8536317038   -1.1010437046   -0.2182186793
     37  C        -5.4946665233   -1.3276334501    0.5513425635
     38  O        -5.4460540370   -0.1889627118    1.4999050591
     39  H        -4.4525457606    0.9532042193   -1.4984595915
     40  H        -4.5110957912   -1.4354213554   -1.4603065492
     41  H        -0.8240421056    2.6813832415    0.0695925277
     42  H        -5.5558790621    1.8648910778    0.9077119198
     43  H        -7.7624889150    0.8951305617    0.1812875571
     44  H        -6.8632017181    0.8272121031   -1.3652704101
     45  H        -7.7006090141   -1.4788243623    0.3763546206
     46  H        -6.8636934316   -1.5956566136   -1.2025502166
     47  H        -5.3991582180   -2.2861598313    1.0972919239
     48  H        -1.7493333451    3.0475837148    1.5691124870
     49  H        -1.7657140448    4.2237046531    0.1931635539
     50  H         1.8058962483    1.6974434470   -2.8933985308
     51  H         2.2144577148    0.1002704156   -3.6410700765
     52  H         3.4475953080    1.4132203812   -3.6025375833
     53  H         0.2103663404    0.0191513818   -1.1654340332
     54  H        -0.3239820819   -0.0367408770    0.5491511901
     55  H        -0.1681131518   -2.5073614497   -1.3624516639
     56  H        -0.7404205078   -2.5350088555    0.3666723319
   Point Group: c1    Number of degrees of freedom:   162


   Energy is  -1510.285680193

 Hessian Updated using BFGS Update

149 Hessian modes will be used to form the next step
  Hessian Eigenvalues:
     0.001115    0.002310    0.002658    0.002752    0.003721    0.004420
     0.004514    0.004590    0.004840    0.004878    0.005077    0.006674
     0.006757    0.006888    0.010445    0.011803    0.012242    0.021549
     0.021681    0.025273    0.026107    0.029854    0.030580    0.033884
     0.034915    0.037917    0.039542    0.041685    0.041763    0.042708
     0.043731    0.047149    0.047515    0.050348    0.050951    0.051127
     0.051283    0.053276    0.054216    0.054366    0.055285    0.055434
     0.055801    0.056618    0.057732    0.058291    0.058804    0.059868
     0.060567    0.063187    0.063749    0.064202    0.064500    0.069747
     0.070074    0.072568    0.072992    0.076285    0.092051    0.092740
     0.092777    0.093500    0.096439    0.096786    0.096921    0.099949
     0.102599    0.102915    0.107492    0.110019    0.111059    0.114534
     0.120542    0.132536    0.134820    0.143590    0.157648    0.159970
     0.159997    0.161583    0.163696    0.181585    0.218875    0.219458
     0.219607    0.224376    0.228569    0.233522    0.238506    0.238934
     0.239690    0.239784    0.244935    0.246695    0.247796    0.248901
     0.249496    0.249922    0.249975    0.253413    0.253694    0.257074
     0.258228    0.259958    0.262659    0.264043    0.291462    0.292131
     0.305790    0.306789    0.323094    0.324114    0.324948    0.326645
     0.326781    0.326867    0.327005    0.327141    0.328562    0.328563
     0.328642    0.328990    0.330142    0.330781    0.331002    0.331624
     0.331642    0.331744    0.334617    0.334776    0.334833    0.334931
     0.334962    0.334995    0.335009    0.335183    0.336039    0.341814
     0.344140    0.345832    0.375354    0.400946    0.411265    0.415191
     0.444712    0.824205    0.829600    0.835250    0.837304

 Minimum Search - Taking Simple RFO Step
 Searching for Lamda that Minimizes Along All modes
 Value Taken    Lamda =  -0.00787261
 Calculated Step too Large.  Step scaled by  0.415023
 Step Taken.  Stepsize is  0.300000

                             Maximum     Tolerance    Cnvgd?
         Gradient           0.015504      0.000300      NO
         Displacement       0.133168      0.001200      NO
         Energy change     -0.000775      0.000001      NO


 New Cartesian Coordinates Obtained by Inverse Iteration

 Displacement from previous Coordinates is:  3.730314
 Adding empirical dispersion correction 
 ----------------------------------------------------------------
 Doing -D3(op) with
 s6 =   1.00000
 s8 =   0.78311
 a1 =   0.30000
 a2 =   4.25000
 n  =  10.00000
 -D3 energy without 3body term =     -0.0672952294 hartrees
 ----------------------------------------------------------------
             Standard Nuclear Orientation (Angstroms)
    I     Atom           X                Y                Z
 ----------------------------------------------------------------
    1      O      -2.1922032538     0.4634535189     1.0121362853
    2      C      -3.0198633028     1.1335875895     0.3526415154
    3      C      -4.3063793333     0.5931286374    -0.3559770552
    4      C      -4.3114465453    -0.9862506995    -0.4837141993
    5      C      -2.9690016004    -1.6771162735    -0.0388622704
    6      O      -2.0191861304    -1.4930438759    -1.1067114997
    7      C      -0.6577904522    -1.8721842608    -0.6594029708
    8      C       0.1640516832    -0.5595738085    -0.4212347465
    9      O       1.5413141060    -0.9451861250    -0.0354772790
   10      C       2.2776034667     0.2220923632     0.3592073752
   11      C       3.7022644143    -0.2547622223     0.8152766768
   12      C       4.6484268143    -0.8336587978    -0.3127460380
   13      C       4.2540906537    -0.5491546203    -1.8076487156
   14      O       4.7825547136    -1.0760540437    -2.8113548745
   15      O      -2.9566044386     2.5495718505     0.2006294296
   16      O       3.1895834442     0.4010478709    -1.8871554972
   17      O       1.7842786359     1.3614475820     0.4947628347
   18      C       2.8360334714     0.6658074517    -3.2994786857
   19      C       4.5950793370     0.9241516494     1.3926739779
   20      C       5.6361743201     0.2877771695     2.3910204825
   21      C       6.5795843852    -0.4706239106     1.3833683116
   22      C       5.9809702445    -0.0165028564    -0.0081427084
   23      O       5.4470239051     1.3401480001     0.2518050718
   24      H       3.5504066941    -1.0311628036     1.5878260360
   25      H       4.7868303823    -1.9238685014    -0.1995558316
   26      H       4.0095715397     1.7837544947     1.7732898029
   27      H       6.1806037077     1.0774929361     2.9333297169
   28      H       5.1614758797    -0.3842914940     3.1238422171
   29      H       7.6272166076    -0.1440198405     1.4789013635
   30      H       6.5389345700    -1.5646925255     1.5079229508
   31      H       6.7012170732    -0.0025290369    -0.8496031403
   32      O      -2.7649219923    -2.3625273473     0.9853436864
   33      C      -1.7706317805     3.0804630426     0.9167589360
   34      C      -5.5760358272     0.8152812431     0.5772045589
   35      C      -6.8825641653     0.5122340584    -0.2586094793
   36      C      -6.8656994527    -1.0610143045    -0.2955472640
   37      C      -5.5196450448    -1.3651874933     0.4709526524
   38      O      -5.4824235519    -0.3197587064     1.5214285906
   39      H      -4.4217862730     1.0943152097    -1.3335274500
   40      H      -4.5102480355    -1.2865723944    -1.5281299261
   41      H      -0.8297166870     2.6347152092     0.5341876694
   42      H      -5.5758750876     1.7800471990     1.1209772563
   43      H      -7.7712797470     0.8955776240     0.2672353383
   44      H      -6.8451123533     0.9632784358    -1.2632144221
   45      H      -7.7239232360    -1.4853915410     0.2493430340
   46      H      -6.8634598759    -1.4644336452    -1.3206256178
   47      H      -5.4370929598    -2.3708718762     0.9268717870
   48      H      -1.8341108264     2.8845931068     2.0064572304
   49      H      -1.7685827736     4.1706298448     0.7342822080
   50      H       2.0676442859     1.4603841191    -3.2754763396
   51      H       2.4219234949    -0.2383597137    -3.7911811144
   52      H       3.7150043602     1.0129966218    -3.8794565042
   53      H       0.1841139101     0.0412699328    -1.3565300030
   54      H      -0.3322767890     0.0516505977     0.3643346888
   55      H      -0.1925986482    -2.4813564724    -1.4611767402
   56      H      -0.7303594335    -2.4625673275     0.2790043272
 ----------------------------------------------------------------
 Molecular Point Group                 C1    NOp =  1
 Largest Abelian Subgroup              C1    NOp =  1
 Nuclear Repulsion Energy =  3097.2968050063 hartrees
 There are      113 alpha and      113 beta electrons
 Applying Cartesian multipole field
    Component          Value
    ---------          -----
     (2,0,0)        1.00000E-12
     (0,2,0)        2.00000E-11
     (0,0,2)       -3.00000E-11
 Nucleus-field energy     =     0.0000000008 hartrees
 Requested basis set is STO-3G
 There are 86 shells and 176 basis functions
 A cutoff of  1.0D-12 yielded   2106 shell pairs
 There are      9867 function pairs
 Smallest overlap matrix eigenvalue = 2.13E-01
 Guess MOs from SCF MO coefficient file
 Reading MOs from coefficient file
 Reading MOs from coefficient file
 A restricted hybrid HF-DFT SCF calculation will be
 performed using Pulay DIIS extrapolation
 Exchange:     0.2000 Hartree-Fock + 0.0800 Slater + 0.7200 B88
 Correlation:  0.1900 VWN1RPA + 0.8100 LYP
 Using SG-1 standard quadrature grid
 Dispersion:   Grimme D3
 SCF converges when DIIS error is below 1.0E-08
 Geometry optimization detected.  Setting ReadMinima to 0
 Setting SaveMinima to 0
 using 48 threads for integral computing
 -------------------------------------------------------
 OpenMP Integral computing Module                
 Release: version 1.0, May 2013, Q-Chem Inc. Pittsburgh 
 -------------------------------------------------------
 -------------------------------------------------------
 OpenMP BLAS3 based DFT computing Module                
 Release: version 1.0, May 2013, Q-Chem Inc. Pittsburgh 
 -------------------------------------------------------
 ---------------------------------------
  Cycle       Energy         DIIS Error
 ---------------------------------------
    1   -1510.1217940208      5.97E-03
    2   -1510.2847552791      5.54E-04
    3   -1510.2845246666      7.30E-04
    4   -1510.2864971984      2.96E-04
    5   -1510.2868561965      9.00E-05
    6   -1510.2868932175      2.51E-05
    7   -1510.2868957810      1.21E-05
    8   -1510.2868963654      4.14E-06
    9   -1510.2868964434      6.07E-07
   10   -1510.2868964447      4.46E-07
   11   -1510.2868964455      1.91E-07
   12   -1510.2868964456      4.17E-08
   13   -1510.2868964456      1.72E-08
   14   -1510.2868964457      5.54E-09 Convergence criterion met
 ---------------------------------------
 SCF time:  CPU 97.01 s  wall 2.03 s
 SCF   energy in the final basis set = -1510.28689645
 Total energy in the final basis set = -1510.28689645
 
 --------------------------------------------------------------
 
                    Orbital Energies (a.u.)
 --------------------------------------------------------------
 
 Alpha MOs
 -- Occupied --
-18.946 -18.942 -18.920 -18.920 -18.889 -18.888 -18.884 -18.873
-18.869 -18.862 -10.109 -10.101 -10.095 -10.095 -10.068 -10.067
-10.064 -10.061 -10.059 -10.058 -10.055 -10.054 -10.043 -10.038
-10.036 -10.032 -10.023 -10.021 -10.019 -10.017  -1.022  -1.015
 -1.003  -0.999  -0.972  -0.968  -0.945  -0.937  -0.931  -0.926
 -0.765  -0.761  -0.726  -0.722  -0.711  -0.704  -0.691  -0.666
 -0.664  -0.612  -0.597  -0.576  -0.546  -0.542  -0.538  -0.535
 -0.513  -0.509  -0.484  -0.478  -0.464  -0.457  -0.454  -0.443
 -0.435  -0.431  -0.424  -0.415  -0.415  -0.413  -0.410  -0.395
 -0.393  -0.380  -0.377  -0.366  -0.361  -0.358  -0.353  -0.346
 -0.341  -0.338  -0.335  -0.332  -0.329  -0.327  -0.319  -0.313
 -0.307  -0.306  -0.305  -0.303  -0.297  -0.291  -0.280  -0.275
 -0.267  -0.260  -0.246  -0.243  -0.241  -0.236  -0.232  -0.187
 -0.180  -0.168  -0.165  -0.161  -0.154  -0.150  -0.146  -0.144
 -0.142
 -- Virtual --
  0.087   0.098   0.110   0.114   0.217   0.240   0.246   0.250
  0.254   0.281   0.284   0.292   0.306   0.315   0.328   0.331
  0.333   0.341   0.344   0.351   0.353   0.363   0.370   0.371
  0.376   0.382   0.394   0.397   0.401   0.405   0.410   0.414
  0.417   0.418   0.420   0.421   0.424   0.426   0.430   0.430
  0.433   0.435   0.437   0.439   0.442   0.449   0.453   0.465
  0.469   0.474   0.485   0.493   0.500   0.505   0.506   0.539
  0.543   0.550   0.555   0.637   0.638   0.652   0.655
 --------------------------------------------------------------
 
          Ground-State Mulliken Net Atomic Charges

     Atom                 Charge (a.u.)
  ----------------------------------------
      1 O                    -0.209952
      2 C                     0.217014
      3 C                    -0.077555
      4 C                    -0.080519
      5 C                     0.216879
      6 O                    -0.182442
      7 C                    -0.052809
      8 C                    -0.056919
      9 O                    -0.179596
     10 C                     0.221565
     11 C                    -0.080726
     12 C                    -0.076895
     13 C                     0.212488
     14 O                    -0.215783
     15 O                    -0.166827
     16 O                    -0.165037
     17 O                    -0.222815
     18 C                    -0.125657
     19 C                     0.023616
     20 C                    -0.142807
     21 C                    -0.144684
     22 C                     0.024491
     23 O                    -0.191315
     24 H                     0.084252
     25 H                     0.086989
     26 H                     0.089800
     27 H                     0.077657
     28 H                     0.073468
     29 H                     0.078019
     30 H                     0.073830
     31 H                     0.083992
     32 O                    -0.211294
     33 C                    -0.130541
     34 C                     0.025347
     35 C                    -0.143916
     36 C                    -0.143651
     37 C                     0.024885
     38 O                    -0.188474
     39 H                     0.087859
     40 H                     0.084703
     41 H                     0.099929
     42 H                     0.084742
     43 H                     0.078823
     44 H                     0.074101
     45 H                     0.078588
     46 H                     0.073609
     47 H                     0.090081
     48 H                     0.091729
     49 H                     0.092888
     50 H                     0.092981
     51 H                     0.089212
     52 H                     0.093289
     53 H                     0.076786
     54 H                     0.101799
     55 H                     0.083616
     56 H                     0.101184
  ----------------------------------------
  Sum of atomic charges =     0.000000

 -----------------------------------------------------------------
                    Cartesian Multipole Moments
 -----------------------------------------------------------------
    Charge (ESU x 10^10)
                 0.0000
    Dipole Moment (Debye)
         X      -1.2156      Y       0.6748      Z      -1.2237
       Tot       1.8522
    Quadrupole Moments (Debye-Ang)
        XX    -148.4489     XY      -7.2684     YY    -160.7098
        XZ      16.3370     YZ       0.8622     ZZ    -159.7210
    Octopole Moments (Debye-Ang^2)
       XXX     -70.3216    XXY     -10.9270    XYY     -18.3727
       YYY      23.6233    XXZ      14.1299    XYZ     -30.9452
       YYZ       9.0537    XZZ      14.7239    YZZ      28.3144
       ZZZ       3.2037
    Hexadecapole Moments (Debye-Ang^3)
      XXXX  -17152.7849   XXXY    -201.7817   XXYY   -3328.1119
      XYYY    -169.9562   YYYY   -1684.3275   XXXZ     560.2787
      XXYZ     -82.2586   XYYZ      50.4880   YYYZ    -101.3791
      XXZZ   -3388.7775   XYZZ       2.0755   YYZZ    -572.7936
      XZZZ     191.1783   YZZZ    -169.3484   ZZZZ   -1722.6761
 -----------------------------------------------------------------
 Calculating analytic gradient of the SCF energy
 Gradient of SCF Energy
            1           2           3           4           5           6
    1  -0.0017125   0.0026442  -0.0008949  -0.0005423  -0.0002325   0.0002511
    2   0.0003753  -0.0021859   0.0005918   0.0015497  -0.0008302  -0.0024746
    3   0.0002715  -0.0011450   0.0011314   0.0003375  -0.0012561  -0.0013692
            7           8           9          10          11          12
    1  -0.0000918  -0.0013428  -0.0007814   0.0009649  -0.0007536  -0.0028002
    2   0.0009135  -0.0014502  -0.0004659   0.0023181   0.0002399  -0.0023161
    3  -0.0001886   0.0036379   0.0011956  -0.0068015   0.0020077   0.0008186
           13          14          15          16          17          18
    1   0.0050470  -0.0008280  -0.0001514  -0.0014840   0.0008901   0.0004131
    2   0.0068299  -0.0010681   0.0007013  -0.0019913  -0.0016649  -0.0001502
    3  -0.0003028  -0.0000595   0.0007869  -0.0017113   0.0029914  -0.0002752
           19          20          21          22          23          24
    1  -0.0000060  -0.0002567   0.0000095   0.0010111   0.0005179   0.0005332
    2  -0.0006580   0.0003385   0.0000758   0.0001593  -0.0005016  -0.0002306
    3   0.0003092   0.0000938   0.0000672  -0.0011095  -0.0002265   0.0005378
           25          26          27          28          29          30
    1  -0.0012055  -0.0001676   0.0000384  -0.0000466   0.0001065  -0.0000409
    2  -0.0000053   0.0000101  -0.0000086   0.0000626  -0.0000861   0.0000065
    3   0.0009491  -0.0001273  -0.0001170   0.0002174  -0.0000360  -0.0000178
           31          32          33          34          35          36
    1  -0.0001738   0.0000084  -0.0006507  -0.0000629  -0.0001363  -0.0003319
    2  -0.0001978   0.0005436  -0.0000804   0.0000325  -0.0001865   0.0001959
    3  -0.0002468   0.0007303   0.0000324  -0.0003914   0.0000037   0.0000005
           37          38          39          40          41          42
    1   0.0006117   0.0002481   0.0000438   0.0001249  -0.0007304   0.0000514
    2   0.0002721   0.0000730  -0.0001723  -0.0003798  -0.0001515  -0.0000224
    3  -0.0001539  -0.0000154  -0.0001207   0.0002862   0.0001764   0.0001073
           43          44          45          46          47          48
    1   0.0000330  -0.0001821   0.0000069   0.0000502   0.0001572   0.0002637
    2  -0.0000639   0.0001529   0.0000271  -0.0001476  -0.0000180  -0.0000233
    3  -0.0000099  -0.0001124  -0.0001366   0.0000296   0.0000012   0.0000188
           49          50          51          52          53          54
    1   0.0000098   0.0000908  -0.0000278   0.0000774   0.0001383   0.0016544
    2   0.0001198   0.0000527   0.0001179  -0.0000439  -0.0002201   0.0007178
    3   0.0000067  -0.0000057  -0.0000425   0.0000655   0.0005588  -0.0013852
           55          56
    1  -0.0001379  -0.0002246
    2   0.0005985   0.0007192
    3  -0.0003289   0.0003223
 Max gradient component =       6.830E-03
 RMS gradient           =       1.188E-03
 Gradient time:  CPU 29.14 s  wall 0.61 s
 Geometry Optimization Parameters
   NAtoms,    NIC,     NZ,  NCons,   NDum,   NFix, NCnnct, MaxDiis
       56     458       0       0       0       0       0       0

 Cartesian Hessian Update
 Hessian Updated using BFGS Update


** GEOMETRY OPTIMIZATION IN DELOCALIZED INTERNAL COORDINATES **
   Searching for a Minimum

   Optimization Cycle:   3

                       Coordinates (Angstroms)
     ATOM                X               Y               Z
      1  O        -2.1922032538    0.4634535189    1.0121362853
      2  C        -3.0198633028    1.1335875895    0.3526415154
      3  C        -4.3063793333    0.5931286374   -0.3559770552
      4  C        -4.3114465453   -0.9862506995   -0.4837141993
      5  C        -2.9690016004   -1.6771162735   -0.0388622704
      6  O        -2.0191861304   -1.4930438759   -1.1067114997
      7  C        -0.6577904522   -1.8721842608   -0.6594029708
      8  C         0.1640516832   -0.5595738085   -0.4212347465
      9  O         1.5413141060   -0.9451861250   -0.0354772790
     10  C         2.2776034667    0.2220923632    0.3592073752
     11  C         3.7022644143   -0.2547622223    0.8152766768
     12  C         4.6484268143   -0.8336587978   -0.3127460380
     13  C         4.2540906537   -0.5491546203   -1.8076487156
     14  O         4.7825547136   -1.0760540437   -2.8113548745
     15  O        -2.9566044386    2.5495718505    0.2006294296
     16  O         3.1895834442    0.4010478709   -1.8871554972
     17  O         1.7842786359    1.3614475820    0.4947628347
     18  C         2.8360334714    0.6658074517   -3.2994786857
     19  C         4.5950793370    0.9241516494    1.3926739779
     20  C         5.6361743201    0.2877771695    2.3910204825
     21  C         6.5795843852   -0.4706239106    1.3833683116
     22  C         5.9809702445   -0.0165028564   -0.0081427084
     23  O         5.4470239051    1.3401480001    0.2518050718
     24  H         3.5504066941   -1.0311628036    1.5878260360
     25  H         4.7868303823   -1.9238685014   -0.1995558316
     26  H         4.0095715397    1.7837544947    1.7732898029
     27  H         6.1806037077    1.0774929361    2.9333297169
     28  H         5.1614758797   -0.3842914940    3.1238422171
     29  H         7.6272166076   -0.1440198405    1.4789013635
     30  H         6.5389345700   -1.5646925255    1.5079229508
     31  H         6.7012170732   -0.0025290369   -0.8496031403
     32  O        -2.7649219923   -2.3625273473    0.9853436864
     33  C        -1.7706317805    3.0804630426    0.9167589360
     34  C        -5.5760358272    0.8152812431    0.5772045589
     35  C        -6.8825641653    0.5122340584   -0.2586094793
     36  C        -6.8656994527   -1.0610143045   -0.2955472640
     37  C        -5.5196450448   -1.3651874933    0.4709526524
     38  O        -5.4824235519   -0.3197587064    1.5214285906
     39  H        -4.4217862730    1.0943152097   -1.3335274500
     40  H        -4.5102480355   -1.2865723944   -1.5281299261
     41  H        -0.8297166870    2.6347152092    0.5341876694
     42  H        -5.5758750876    1.7800471990    1.1209772563
     43  H        -7.7712797470    0.8955776240    0.2672353383
     44  H        -6.8451123533    0.9632784358   -1.2632144221
     45  H        -7.7239232360   -1.4853915410    0.2493430340
     46  H        -6.8634598759   -1.4644336452   -1.3206256178
     47  H        -5.4370929598   -2.3708718762    0.9268717870
     48  H        -1.8341108264    2.8845931068    2.0064572304
     49  H        -1.7685827736    4.1706298448    0.7342822080
     50  H         2.0676442859    1.4603841191   -3.2754763396
     51  H         2.4219234949   -0.2383597137   -3.7911811144
     52  H         3.7150043602    1.0129966218   -3.8794565042
     53  H         0.1841139101    0.0412699328   -1.3565300030
     54  H        -0.3322767890    0.0516505977    0.3643346888
     55  H        -0.1925986482   -2.4813564724   -1.4611767402
     56  H        -0.7303594335   -2.4625673275    0.2790043272
   Point Group: c1    Number of degrees of freedom:   162


   Energy is  -1510.286896446

 Hessian Updated using BFGS Update

152 Hessian modes will be used to form the next step
  Hessian Eigenvalues:
     0.001807    0.002105    0.002382    0.002708    0.002849    0.004205
     0.004477    0.004590    0.004839    0.004878    0.005077    0.005953
     0.006663    0.006734    0.009744    0.011755    0.012191    0.016201
     0.021588    0.021695    0.025326    0.026155    0.029857    0.030541
     0.033931    0.035121    0.037755    0.039043    0.041717    0.041833
     0.042409    0.043435    0.047373    0.047506    0.049865    0.050877
     0.051179    0.051284    0.053311    0.054220    0.054372    0.055367
     0.055457    0.055798    0.056619    0.058123    0.058333    0.058818
     0.059873    0.060526    0.063193    0.063751    0.064203    0.064498
     0.069858    0.070086    0.072775    0.073085    0.080245    0.092064
     0.092776    0.092874    0.093053    0.096251    0.096776    0.096923
     0.099384    0.102585    0.102912    0.107412    0.110023    0.111477
     0.114485    0.119662    0.131601    0.135160    0.144397    0.156834
     0.159908    0.159993    0.160004    0.160396    0.164167    0.176215
     0.217689    0.219487    0.219750    0.226359    0.228392    0.237286
     0.238464    0.239532    0.239778    0.239832    0.244935    0.246592
     0.247023    0.248235    0.248919    0.249823    0.249975    0.250711
     0.253481    0.253692    0.256918    0.258255    0.259958    0.262629
     0.263963    0.291689    0.292177    0.306676    0.306968    0.321989
     0.324179    0.324946    0.326647    0.326784    0.326870    0.327005
     0.327141    0.328562    0.328563    0.328643    0.328994    0.330073
     0.330781    0.331010    0.331627    0.331645    0.331745    0.334618
     0.334827    0.334833    0.334962    0.334993    0.335006    0.335017
     0.335182    0.337792    0.341633    0.344129    0.345832    0.380699
     0.401866    0.411313    0.415922    0.483821    0.827403    0.829582
     0.835227    0.836768

 Minimum Search - Taking Simple RFO Step
 Searching for Lamda that Minimizes Along All modes
 Value Taken    Lamda =  -0.00569204
 Calculated Step too Large.  Step scaled by  0.489826
 Step Taken.  Stepsize is  0.300000

                             Maximum     Tolerance    Cnvgd?
         Gradient           0.008685      0.000300      NO
         Displacement       0.073458      0.001200      NO
         Energy change     -0.001216      0.000001      NO


 New Cartesian Coordinates Obtained by Inverse Iteration

 Displacement from previous Coordinates is:  2.245938
 Adding empirical dispersion correction 
 ----------------------------------------------------------------
 Doing -D3(op) with
 s6 =   1.00000
 s8 =   0.78311
 a1 =   0.30000
 a2 =   4.25000
 n  =  10.00000
 -D3 energy without 3body term =     -0.0684179639 hartrees
 ----------------------------------------------------------------
             Standard Nuclear Orientation (Angstroms)
    I     Atom           X                Y                Z
 ----------------------------------------------------------------
    1      O      -2.1575486370     0.4175341761     1.0521640107
    2      C      -2.9567357727     1.1101326690     0.3810085359
    3      C      -4.2330639749     0.6013606412    -0.3687336231
    4      C      -4.2670476636    -0.9753253773    -0.5419029716
    5      C      -2.9467308083    -1.7144193531    -0.1064130719
    6      O      -1.9770658013    -1.4980757340    -1.1507883125
    7      C      -0.6209700356    -1.8964200514    -0.7017095048
    8      C       0.1890666649    -0.5905250110    -0.3990743397
    9      O       1.5548317465    -0.9780253680     0.0234163974
   10      C       2.2518282223     0.1861210314     0.4888970687
   11      C       3.7006471368    -0.2555963407     0.9012745181
   12      C       4.6050233237    -0.8267560851    -0.2615312657
   13      C       4.0827052244    -0.6045377645    -1.7251717626
   14      O       4.5319242612    -1.1558697778    -2.7539590646
   15      O      -2.8370409993     2.5200858680     0.2121512262
   16      O       3.0221391377     0.3538403735    -1.7391543833
   17      O       1.7550723491     1.3299262989     0.5667474397
   18      C       2.5349527944     0.5717968698    -3.1191857800
   19      C       4.5885029987     0.9579842099     1.4115106457
   20      C       5.7077133493     0.3700000732     2.3538232186
   21      C       6.6199665181    -0.3651162920     1.3008199046
   22      C       5.9215429360     0.0444520229    -0.0577226402
   23      O       5.3558059311     1.3855838976     0.2162532354
   24      H       3.6016668849    -1.0209944125     1.6924941579
   25      H       4.7882017131    -1.9087421591    -0.1336760296
   26      H       3.9983741371     1.8039218569     1.8147263405
   27      H       6.2530066579     1.1850692450     2.8564318407
   28      H       5.3008196968    -0.3104576959     3.1190072570
   29      H       7.6578673157     0.0025431102     1.3300239689
   30      H       6.6288116177    -1.4579789505     1.4408357021
   31      H       6.5879875886     0.0701867800    -0.9421621405
   32      O      -2.7787352096    -2.4659605272     0.8770031961
   33      C      -1.6390530110     3.0142799502     0.9358750784
   34      C      -5.5136778609     0.8229984339     0.5491916395
   35      C      -6.8118453429     0.5719401891    -0.3150279201
   36      C      -6.8268016814    -0.9992132028    -0.3971356898
   37      C      -5.5001123937    -1.3546028523     0.3818850695
   38      O      -5.4578229709    -0.3401993034     1.4619121131
   39      H      -4.3231528682     1.1281161330    -1.3353877105
   40      H      -4.4566258838    -1.2394801295    -1.5979026258
   41      H      -0.7095779281     2.5313553444     0.5695216402
   42      H      -5.5020182685     1.7718657364     1.1200590632
   43      H      -7.7006115994     0.9584991385     0.2082850149
   44      H      -6.7492386561     1.0505848587    -1.3054204173
   45      H      -7.7026113769    -1.4207168250     0.1214178784
   46      H      -6.8166677147    -1.3725054748    -1.4334542592
   47      H      -5.4479864199    -2.3746474136     0.8095860595
   48      H      -1.7228739944     2.8329483667     2.0266691876
   49      H      -1.5953245573     4.1015697661     0.7422466594
   50      H       1.7770003598     1.3737761352    -3.0498382795
   51      H       2.0697610186    -0.3456086457    -3.5349400547
   52      H       3.3552595810     0.8897691212    -3.7939944414
   53      H       0.2310467344     0.0424869565    -1.3127649501
   54      H      -0.3390284922    -0.0132303369     0.3921303936
   55      H      -0.1396029116    -2.4726771527    -1.5182244808
   56      H      -0.7087965610    -2.5248661757     0.2103828960
 ----------------------------------------------------------------
 Molecular Point Group                 C1    NOp =  1
 Largest Abelian Subgroup              C1    NOp =  1
 Nuclear Repulsion Energy =  3118.1743072440 hartrees
 There are      113 alpha and      113 beta electrons
 Applying Cartesian multipole field
    Component          Value
    ---------          -----
     (2,0,0)        1.00000E-12
     (0,2,0)        2.00000E-11
     (0,0,2)       -3.00000E-11
 Nucleus-field energy     =     0.0000000027 hartrees
 Requested basis set is STO-3G
 There are 86 shells and 176 basis functions
 A cutoff of  1.0D-12 yielded   2135 shell pairs
 There are     10010 function pairs
 Smallest overlap matrix eigenvalue = 2.13E-01
 Guess MOs from SCF MO coefficient file
 Reading MOs from coefficient file
 Reading MOs from coefficient file
 A restricted hybrid HF-DFT SCF calculation will be
 performed using Pulay DIIS extrapolation
[...]
      7  C        -0.6410902176   -1.9610709459   -1.0509121279
      8  C         0.1283761765   -0.6905963758   -0.5613477087
      9  O         1.4927282621   -1.0529258206   -0.1094976695
     10  C         2.0735242244    0.0785318907    0.5461227766
     11  C         3.5109292702   -0.3159790781    1.0344222581
     12  C         4.4832127783   -0.7706265987   -0.1347475855
     13  C         3.8251722265   -0.7386911151   -1.5538114682
     14  O         3.8405227815   -1.6394214892   -2.4198241209
     15  O        -2.3777579689    2.3069195055   -0.1191042775
     16  O         3.1975126070    0.5384934625   -1.7355075718
     17  O         1.4850758993    1.1675677588    0.7340407015
     18  C         2.5525667228    0.6028331590   -3.0662942994
     19  C         4.2809634169    0.9413775231    1.6079541418
     20  C         5.5188960906    0.4320118765    2.4437884251
     21  C         6.4891469863   -0.0311885012    1.2940044000
     22  C         5.6352345745    0.3205919217    0.0117779953
     23  O         4.9006107227    1.5427616480    0.4032115388
     24  H         3.4082993210   -1.1174335598    1.7890791101
     25  H         4.8669972271   -1.7922423032    0.0313240944
     26  H         3.6230834049    1.6770003649    2.1102718676
     27  H         5.9540514636    1.2572413954    3.0295071280
     28  H         5.2505551472   -0.3865876819    3.1304747505
     29  H         7.4279651422    0.5449514916    1.2998359661
     30  H         6.7325452063   -1.1042877096    1.3476997392
     31  H         6.2211202824    0.4973708996   -0.9112674419
     32  O        -2.6931210467   -2.5783259217    0.6256710863
     33  C        -1.1398782699    2.7666424157    0.5673662243
     34  C        -5.2785349341    0.8140782020    0.7072466786
     35  C        -6.6590988956    0.6866347354   -0.0531186175
     36  C        -6.7701839350   -0.8739560502   -0.2274334358
     37  C        -5.4057093322   -1.3454975027    0.4105879296
     38  O        -5.2155113674   -0.4058383417    1.5405174187
     39  H        -4.2501491598    1.1790648100   -1.2611133384
     40  H        -4.5281737758   -1.1601471337   -1.6434395629
     41  H        -0.2824171346    2.0619635608    0.4581834247
     42  H        -5.1676627623    1.7209336647    1.3331819934
     43  H        -7.4781135485    1.0852061359    0.5663963723
     44  H        -6.6499034435    1.2240970827   -1.0148377350
     45  H        -7.6213312001   -1.2825735831    0.3402134506
     46  H        -6.8673564950   -1.1806751337   -1.2811215532
     47  H        -5.3756347014   -2.3918893185    0.7715002676
     48  H        -1.3312681635    2.9211228401    1.6486017249
     49  H        -0.8882974090    3.7364141790    0.1010639334
     50  H         1.9820432028    1.5496226250   -3.0842298560
     51  H         1.8664861519   -0.2528268046   -3.2298300326
     52  H         3.3047452595    0.6096921469   -3.8817862002
     53  H         0.1817162792    0.0525438536   -1.3860986784
     54  H        -0.4620396440   -0.2388111764    0.2717838798
     55  H        -0.1948897629   -2.3918742209   -1.9701428876
     56  H        -0.6864850937   -2.7302091789   -0.2503572081
   Point Group: c1    Number of degrees of freedom:   162


   Energy is  -1510.293688145

 Hessian Updated using BFGS Update

162 Hessian modes will be used to form the next step
  Hessian Eigenvalues:
     0.001901    0.002141    0.002505    0.002795    0.003052    0.003792
     0.004135    0.004503    0.005351    0.006005    0.006730    0.008082
     0.012105    0.015061    0.021757    0.022017    0.025629    0.027134
     0.029010    0.030175    0.030799    0.032748    0.033405    0.033992
     0.037321    0.039190    0.040294    0.040425    0.041858    0.042446
     0.043408    0.044631    0.046230    0.047901    0.049231    0.051001
     0.051683    0.052427    0.053868    0.054128    0.054562    0.054790
     0.055396    0.055999    0.056375    0.057295    0.057522    0.060063
     0.060496    0.063076    0.063248    0.064014    0.064297    0.064517
     0.067602    0.069617    0.070069    0.072964    0.073453    0.075428
     0.087225    0.092768    0.092904    0.093738    0.096466    0.096957
     0.100090    0.101322    0.102587    0.102755    0.105562    0.107870
     0.110203    0.114674    0.124577    0.135449    0.137893    0.141755
     0.157372    0.159851    0.160036    0.160308    0.160391    0.160427
     0.163864    0.167966    0.178381    0.189290    0.196841    0.217192
     0.219631    0.222184    0.231741    0.235074    0.237753    0.239469
     0.239520    0.240183    0.243675    0.245750    0.246885    0.247607
     0.248458    0.248856    0.249490    0.251152    0.253467    0.253622
     0.254896    0.257092    0.257930    0.259667    0.260985    0.262609
     0.266431    0.270767    0.291159    0.292525    0.303660    0.307024
     0.321402    0.324420    0.324964    0.326622    0.326727    0.326921
     0.327095    0.327326    0.328558    0.328567    0.328653    0.328985
     0.329987    0.330774    0.331010    0.331533    0.331733    0.331744
     0.334296    0.334637    0.334832    0.334883    0.334964    0.334998
     0.335008    0.335028    0.335208    0.339475    0.344494    0.345435
     0.367587    0.388149    0.397327    0.411951    0.413407    0.459084
     0.571131    0.822080    0.830604    0.835392    0.837670    1.719264

 Minimum Search - Taking Simple RFO Step
 Searching for Lamda that Minimizes Along All modes
 Value Taken    Lamda =   0.00000000
 Step Taken.  Stepsize is  0.015617

                             Maximum     Tolerance    Cnvgd?
         Gradient           0.000061      0.000300     YES
         Displacement       0.005683      0.001200      NO
         Energy change     -0.000001      0.000001     YES

 Final energy is   -1510.29368814480     


 ******************************
 **  OPTIMIZATION CONVERGED  **
 ******************************

                       Coordinates (Angstroms)
     ATOM                X               Y               Z
      1  O        -2.0377878412    0.2955915629    1.0824931226
      2  C        -2.7294833684    0.9954377604    0.3026002644
      3  C        -4.0990872630    0.5900144389   -0.3393808914
      4  C        -4.2372894097   -0.9718227362   -0.5942592120
      5  C        -2.9211263210   -1.7787539409   -0.3055837550
      6  O        -2.0115418590   -1.4942798479   -1.3833997900
      7  C        -0.6410902176   -1.9610709459   -1.0509121279
      8  C         0.1283761765   -0.6905963758   -0.5613477087
      9  O         1.4927282621   -1.0529258206   -0.1094976695
     10  C         2.0735242244    0.0785318907    0.5461227766
     11  C         3.5109292702   -0.3159790781    1.0344222581
     12  C         4.4832127783   -0.7706265987   -0.1347475855
     13  C         3.8251722265   -0.7386911151   -1.5538114682
     14  O         3.8405227815   -1.6394214892   -2.4198241209
     15  O        -2.3777579689    2.3069195055   -0.1191042775
     16  O         3.1975126070    0.5384934625   -1.7355075718
     17  O         1.4850758993    1.1675677588    0.7340407015
     18  C         2.5525667228    0.6028331590   -3.0662942994
     19  C         4.2809634169    0.9413775231    1.6079541418
     20  C         5.5188960906    0.4320118765    2.4437884251
     21  C         6.4891469863   -0.0311885012    1.2940044000
     22  C         5.6352345745    0.3205919217    0.0117779953
     23  O         4.9006107227    1.5427616480    0.4032115388
     24  H         3.4082993210   -1.1174335598    1.7890791101
     25  H         4.8669972271   -1.7922423032    0.0313240944
     26  H         3.6230834049    1.6770003649    2.1102718676
     27  H         5.9540514636    1.2572413954    3.0295071280
     28  H         5.2505551472   -0.3865876819    3.1304747505
     29  H         7.4279651422    0.5449514916    1.2998359661
     30  H         6.7325452063   -1.1042877096    1.3476997392
     31  H         6.2211202824    0.4973708996   -0.9112674419
     32  O        -2.6931210467   -2.5783259217    0.6256710863
     33  C        -1.1398782699    2.7666424157    0.5673662243
     34  C        -5.2785349341    0.8140782020    0.7072466786
     35  C        -6.6590988956    0.6866347354   -0.0531186175
     36  C        -6.7701839350   -0.8739560502   -0.2274334358
     37  C        -5.4057093322   -1.3454975027    0.4105879296
     38  O        -5.2155113674   -0.4058383417    1.5405174187
     39  H        -4.2501491598    1.1790648100   -1.2611133384
     40  H        -4.5281737758   -1.1601471337   -1.6434395629
     41  H        -0.2824171346    2.0619635608    0.4581834247
     42  H        -5.1676627623    1.7209336647    1.3331819934
     43  H        -7.4781135485    1.0852061359    0.5663963723
     44  H        -6.6499034435    1.2240970827   -1.0148377350
     45  H        -7.6213312001   -1.2825735831    0.3402134506
     46  H        -6.8673564950   -1.1806751337   -1.2811215532
     47  H        -5.3756347014   -2.3918893185    0.7715002676
     48  H        -1.3312681635    2.9211228401    1.6486017249
     49  H        -0.8882974090    3.7364141790    0.1010639334
     50  H         1.9820432028    1.5496226250   -3.0842298560
     51  H         1.8664861519   -0.2528268046   -3.2298300326
     52  H         3.3047452595    0.6096921469   -3.8817862002
     53  H         0.1817162792    0.0525438536   -1.3860986784
     54  H        -0.4620396440   -0.2388111764    0.2717838798
     55  H        -0.1948897629   -2.3918742209   -1.9701428876
     56  H        -0.6864850937   -2.7302091789   -0.2503572081

Z-matrix Print:
$molecule
0 1
O 
C  1 1.430859
O  2 1.252032 1 124.458336
C  1 1.482197 2 108.663807 3 2.263509 0
H  4 1.111448 1 110.211550 2 68.990750 0
H  4 1.116606 1 110.987760 2 -50.570168 0
C  4 1.563924 1 110.471152 2 -169.817676 0
H  7 1.108906 4 112.155154 1 -66.604072 0
H  7 1.111091 4 110.910146 1 57.043418 0
O  7 1.485456 4 105.587351 1 176.100624 0
C  10 1.438734 7 110.698647 4 -99.079881 0
O  11 1.248414 10 124.749887 7 -16.174389 0
C  2 1.568505 1 108.405146 3 177.169795 0
H  13 1.105608 2 108.044400 1 -63.968101 0
C  11 1.570591 10 106.888930 7 167.248965 0
H  15 1.104925 11 107.913075 10 48.729871 0
C  13 1.582036 2 111.039575 1 172.898038 0
H  17 1.107371 13 113.781210 2 33.150270 0
O  17 1.482238 13 103.372559 2 -86.526931 0
C  19 1.478713 17 95.020010 13 -56.757213 0
H  20 1.107486 19 110.580109 17 -179.814596 0
C  17 1.578148 13 108.499123 2 164.044809 0
H  22 1.101558 17 110.468522 13 -168.139639 0
H  22 1.101658 17 112.265098 13 -46.566967 0
C  22 1.574149 17 101.046984 13 73.814211 0
H  25 1.101522 22 111.564562 17 118.255865 0
H  25 1.101666 22 112.780472 17 -119.044259 0
C  15 1.585735 11 112.329227 10 172.122245 0
H  28 1.107293 15 114.155617 11 -30.974474 0
O  28 1.481849 15 103.838616 11 89.183918 0
C  30 1.478685 28 95.047435 15 55.979660 0
H  31 1.107463 30 110.658131 28 179.447604 0
C  28 1.578358 15 108.085151 11 -161.586332 0
H  33 1.101655 28 110.414730 15 169.134190 0
H  33 1.101716 28 112.314148 15 47.570274 0
C  33 1.574220 28 100.976372 15 -72.890925 0
H  36 1.101564 33 111.623133 28 -119.785200 0
H  36 1.101750 33 112.801154 28 117.479472 0
C  13 1.587135 2 113.835876 1 59.309357 0
H  39 1.103888 13 111.547073 2 -121.916779 0
C  39 1.564538 13 113.869333 2 0.040083 0
O  41 1.249611 39 127.496037 13 -131.232439 0
O  41 1.434633 39 108.485175 13 49.952060 0
C  43 1.480232 41 110.070892 39 -179.539687 0
H  44 1.105545 43 106.060871 41 172.704597 0
H  44 1.108875 43 111.631013 41 53.111844 0
H  44 1.109435 43 111.451119 41 -68.279329 0
C  15 1.588521 11 113.750051 10 -73.673105 0
H  48 1.104260 15 112.249691 11 117.381936 0
C  48 1.565989 15 113.354000 11 -6.510321 0
O  50 1.255572 48 126.309693 15 -30.844421 0
O  50 1.421805 48 109.485582 15 149.878008 0
C  52 1.488265 50 110.724991 48 175.079319 0
H  53 1.105074 52 105.414651 50 174.106094 0
H  53 1.108857 52 110.440661 50 -68.092554 0
H  53 1.115228 52 113.526368 50 53.933173 0
$end

 
 --------------------------------------------------------------
 
                    Orbital Energies (a.u.)
 --------------------------------------------------------------
 
 Alpha MOs
 -- Occupied --
-18.941 -18.935 -18.932 -18.924 -18.889 -18.888 -18.880 -18.877
-18.876 -18.875 -10.105 -10.103 -10.099 -10.098 -10.065 -10.065
-10.063 -10.061 -10.059 -10.058 -10.055 -10.050 -10.041 -10.038
-10.037 -10.037 -10.022 -10.021 -10.020 -10.019  -1.017  -1.015
 -1.007  -1.005  -0.971  -0.970  -0.939  -0.938  -0.936  -0.933
 -0.765  -0.763  -0.727  -0.723  -0.710  -0.706  -0.695  -0.661
 -0.659  -0.613  -0.598  -0.579  -0.547  -0.545  -0.538  -0.537
 -0.514  -0.510  -0.482  -0.477  -0.465  -0.460  -0.454  -0.444
 -0.436  -0.431  -0.427  -0.416  -0.414  -0.410  -0.407  -0.398
 -0.391  -0.378  -0.371  -0.368  -0.360  -0.358  -0.357  -0.350
 -0.345  -0.338  -0.334  -0.333  -0.331  -0.329  -0.324  -0.311
 -0.309  -0.306  -0.305  -0.299  -0.293  -0.292  -0.282  -0.278
 -0.269  -0.260  -0.251  -0.246  -0.243  -0.235  -0.234  -0.185
 -0.177  -0.173  -0.171  -0.159  -0.157  -0.152  -0.149  -0.145
 -0.144
 -- Virtual --
  0.087   0.091   0.107   0.111   0.212   0.239   0.247   0.252
  0.255   0.282   0.284   0.291   0.306   0.313   0.326   0.331
  0.333   0.343   0.347   0.350   0.356   0.360   0.362   0.373
  0.377   0.382   0.389   0.394   0.400   0.400   0.410   0.412
  0.416   0.419   0.421   0.421   0.425   0.427   0.431   0.433
  0.436   0.437   0.438   0.442   0.444   0.450   0.460   0.465
  0.469   0.485   0.486   0.490   0.504   0.506   0.510   0.538
  0.540   0.550   0.553   0.642   0.643   0.648   0.651
 --------------------------------------------------------------
 
          Ground-State Mulliken Net Atomic Charges

     Atom                 Charge (a.u.)
  ----------------------------------------
      1 O                    -0.215415
      2 C                     0.214668
      3 C                    -0.077877
      4 C                    -0.079338
      5 C                     0.214775
      6 O                    -0.181122
      7 C                    -0.053558
      8 C                    -0.064162
      9 O                    -0.175841
     10 C                     0.222449
     11 C                    -0.078000
     12 C                    -0.078983
     13 C                     0.211545
     14 O                    -0.212703
     15 O                    -0.167284
     16 O                    -0.167968
     17 O                    -0.216133
     18 C                    -0.128274
     19 C                     0.024872
     20 C                    -0.144047
     21 C                    -0.143789
     22 C                     0.026001
     23 O                    -0.186371
     24 H                     0.086457
     25 H                     0.086008
     26 H                     0.090333
     27 H                     0.078289
     28 H                     0.073887
     29 H                     0.078068
     30 H                     0.074141
     31 H                     0.082431
     32 O                    -0.206030
     33 C                    -0.141795
     34 C                     0.025794
     35 C                    -0.143911
     36 C                    -0.143646
     37 C                     0.025177
     38 O                    -0.186637
     39 H                     0.087681
     40 H                     0.085308
     41 H                     0.114031
     42 H                     0.083310
     43 H                     0.078613
     44 H                     0.074050
     45 H                     0.078595
     46 H                     0.073480
     47 H                     0.089969
     48 H                     0.084192
     49 H                     0.087475
     50 H                     0.091658
     51 H                     0.089241
     52 H                     0.088037
     53 H                     0.076845
     54 H                     0.107874
     55 H                     0.085982
     56 H                     0.101648
  ----------------------------------------
  Sum of atomic charges =     0.000000

 -----------------------------------------------------------------
                    Cartesian Multipole Moments
 -----------------------------------------------------------------
    Charge (ESU x 10^10)
                 0.0000
    Dipole Moment (Debye)
         X      -0.3091      Y       0.9025      Z      -1.2625
       Tot       1.5824
    Quadrupole Moments (Debye-Ang)
        XX    -140.9610     XY      -5.6733     YY    -164.7058
        XZ      13.8949     YZ       0.0059     ZZ    -159.2075
    Octopole Moments (Debye-Ang^2)
       XXX     -14.1855    XXY       2.3956    XYY     -17.3160
       YYY      37.0594    XXZ      -0.4806    XYZ     -30.2948
       YYZ      10.1346    XZZ      28.4797    YZZ      29.6019
       ZZZ      -1.2823
    Hexadecapole Moments (Debye-Ang^3)
      XXXX  -15166.9529   XXXY    -314.4321   XXYY   -3055.3215
      XYYY    -273.8258   YYYY   -1713.1092   XXXZ     178.5033
      XXYZ     -74.5972   XYYZ       8.2499   YYYZ    -171.6057
      XXZZ   -2999.0451   XYZZ     -50.4070   YYZZ    -564.9423
      XZZZ     -43.6881   YZZZ    -211.6714   ZZZZ   -1624.8603
 -----------------------------------------------------------------
Archival summary:
1\1\vega02.cac.cornell.edu\OPT\ProcedureUnspecified\STO-3G\102026\jj585\MonJan1503:38:472018MonJan1503:38:472018\0\\#,OPT,ProcedureUnspecified,STO-3G,\\0,1\O\C,1,1.43086\O,2,1.25203,1,124.458\C,1,1.4822,2,108.664,3,2.26351,0\H,4,1.11145,1,110.212,2,68.9907,0\H,4,1.11661,1,110.988,2,-50.5702,0\C,4,1.56392,1,110.471,2,-169.818,0\H,7,1.10891,4,112.155,1,-66.6041,0\H,7,1.11109,4,110.91,1,57.0434,0\O,7,1.48546,4,105.587,1,176.101,0\C,10,1.43873,7,110.699,4,-99.0799,0\O,11,1.24841,10,124.75,7,-16.1744,0\C,2,1.56851,1,108.405,3,177.17,0\H,13,1.10561,2,108.044,1,-63.9681,0\C,11,1.57059,10,106.889,7,167.249,0\H,15,1.10492,11,107.913,10,48.7299,0\C,13,1.58204,2,111.04,1,172.898,0\H,17,1.10737,13,113.781,2,33.1503,0\O,17,1.48224,13,103.373,2,-86.5269,0\C,19,1.47871,17,95.02,13,-56.7572,0\H,20,1.10749,19,110.58,17,-179.815,0\C,17,1.57815,13,108.499,2,164.045,0\H,22,1.10156,17,110.469,13,-168.14,0\H,22,1.10166,17,112.265,13,-46.567,0\C,22,1.57415,17,101.047,13,73.8142,0\H,25,1.10152,22,111.565,17,118.256,0\H,25,1.10167,22,112.78,17,-119.044,0\C,15,1.58574,11,112.329,10,172.122,0\H,28,1.10729,15,114.156,11,-30.9745,0\O,28,1.48185,15,103.839,11,89.1839,0\C,30,1.47868,28,95.0474,15,55.9797,0\H,31,1.10746,30,110.658,28,179.448,0\C,28,1.57836,15,108.085,11,-161.586,0\H,33,1.10165,28,110.415,15,169.134,0\H,33,1.10172,28,112.314,15,47.5703,0\C,33,1.57422,28,100.976,15,-72.8909,0\H,36,1.10156,33,111.623,28,-119.785,0\H,36,1.10175,33,112.801,28,117.479,0\C,13,1.58714,2,113.836,1,59.3094,0\H,39,1.10389,13,111.547,2,-121.917,0\C,39,1.56454,13,113.869,2,0.0400831,0\O,41,1.24961,39,127.496,13,-131.232,0\O,41,1.43463,39,108.485,13,49.9521,0\C,43,1.48023,41,110.071,39,-179.54,0\H,44,1.10554,43,106.061,41,172.705,0\H,44,1.10888,43,111.631,41,53.1118,0\H,44,1.10944,43,111.451,41,-68.2793,0\C,15,1.58852,11,113.75,10,-73.6731,0\H,48,1.10426,15,112.25,11,117.382,0\C,48,1.56599,15,113.354,11,-6.51032,0\O,50,1.25557,48,126.31,15,-30.8444,0\O,50,1.42181,48,109.486,15,149.878,0\C,52,1.48827,50,110.725,48,175.079,0\H,53,1.10507,52,105.415,50,174.106,0\H,53,1.10886,52,110.441,50,-68.0926,0\H,53,1.11523,52,113.526,50,53.9332,0\\\@

 Total job time:  66.65s(wall), 3175.61s(cpu) 
 Mon Jan 15 03:38:47 2018

        *************************************************************
        *                                                           *
        *  Thank you very much for using Q-Chem.  Have a nice day.  *
        *                                                           *
        *************************************************************


0 sent ACK to 0 
now end server 0 ... 
