mFile = /opt/software/qchem/qchem-5.0.1//bin/mpi/machines
Process 0 of 1 is on vega02.cac.cornell.edu - thread support 0
initial socket setup ...start
initial socket setup ...done 
now start server 0 ... 
vega02.cac.cornell.edu 10.84.3
Q-Chem Developer Version! Running on 10.84.3.*
                  Welcome to Q-Chem
     A Quantum Leap Into The Future Of Chemistry


 Q-Chem 5.0, Q-Chem, Inc., Pleasanton, CA (2017)

 Yihan Shao,  Zhengting Gan,  E. Epifanovsky,  A. T. B. Gilbert,  M. Wormit,  
 J. Kussmann,  A. W. Lange,  A. Behn,  Jia Deng,  Xintian Feng,  D. Ghosh,  
 M. Goldey,  P. R. Horn,  L. D. Jacobson,  I. Kaliman,  T. Kus,  A. Landau,  
 Jie Liu,  E. I. Proynov,  R. M. Richard,  R. P. Steele,  E. J. Sundstrom,  
 H. L. Woodcock III,  P. M. Zimmerman,  D. Zuev,  B. Albrecht,  E. Alguire,  
 S. A. Baeppler,  Z. Benda,  Y. A. Bernard,  E. J. Berquist,  K. B. Bravaya,  
 D. Casanova,  Chun-Min Chang,  Yunqing Chen,  A. Chien,  K. D. Closser,  
 M. P. Coons,  S. Dasgupta,  M. Diedenhofen,  Hainam Do,  R. G. Edgar,  
 Po-Tung Fang,  S. Fatehi,  Qingguo Feng,  Qinghui Ge,  A. Ghysels,  
 J. Gomes,  J. Gonthier,  A. Gunina,  M. W. D. Hanson-Heine,  
 P. H. P. Harbach,  A. W. Hauser,  J. E. Herr,  E. G. Hohenstein,  
 Z. C. Holden,  Kerwin Hui,  T.-C. Jagau,  Hyunjun Ji,  B. Kaduk,  
 K. Khistyaev,  Jaehoon Kim,  P. Klunzinger,  K. Koh,  D. Kosenkov,  
 T. Kowalczyk,  C. M. Krauter,  A. Kunitsa,  Ka Un Lao,  A. Laurent,  
 K. V. Lawler,  Joonho Lee,  D. Lefrancois,  S. Lehtola,  D. S. Levine,  
 Yi-Pei Li,  You-Sheng Lin,  Fenglai Liu,  E. Livshits,  A. Luenser,  
 P. Manohar,  E. Mansoor,  S. F. Manzer,  Shan-Ping Mao,  Yuezhi Mao,  
 N. Mardirossian,  A. V. Marenich,  L. A. Martinez-Martinez,  S. A. Maurer,  
 N. J. Mayhall,  S. C. McKenzie,  J.-M. Mewes,  A. F. Morrison,  K. Nanda,  
 T. S. Nguyen-Beck,  R. Olivares-Amaya,  J. A. Parkhill,  T. M. Perrine,  
 F. Plasser,  S. Prager,  A. Prociuk,  D. R. Rehn,  F. Rob,  M. Schneider,  
 N. Sergueev,  S. M. Sharada,  S. Sharma,  D. W. Small,  T. Stauch,  
 T. Stein,  Yu-Chuan Su,  A. J. W. Thom,  T. Tsuchimochi,  L. Vogt,  
 O. Vydrov,  M. A. Watson,  J. Wenzel,  M. de Wergifosse,  T. A. Wesolowski,  
 A. White,  J. Witte,  A. Yamada,  Jun Yang,  K. Yao,  S. Yeganeh,  
 S. R. Yost,  Zhi-Qiang You,  A. Zech,  Igor Ying Zhang,  Xing Zhang,  
 Yan Zhao,  Ying Zhu,  B. R. Brooks,  G. K. L. Chan,  C. J. Cramer,  
 M. S. Gordon,  W. J. Hehre,  A. Klamt,  M. W. Schmidt,  C. D. Sherrill,  
 D. G. Truhlar,  A. Aspuru-Guzik,  R. Baer,  A. T. Bell,  N. A. Besley,  
 Jeng-Da Chai,  A. Dreuw,  B. D. Dunietz,  T. R. Furlani,  Chao-Ping Hsu,  
 Yousung Jung,  Jing Kong,  D. S. Lambrecht,  WanZhen Liang,  C. Ochsenfeld,  
 V. A. Rassolov,  L. V. Slipchenko,  J. E. Subotnik,  T. Van Voorhis,  
 J. M. Herbert,  A. I. Krylov,  P. M. W. Gill,  M. Head-Gordon

 Contributors to earlier versions of Q-Chem not listed above: 
 R. D. Adamson,  B. Austin,  J. Baker,  G. J. O. Beran,  K. Brandhorst,  
 S. T. Brown,  E. F. C. Byrd,  A. K. Chakraborty,  C.-L. Cheng,  
 Siu Hung Chien,  D. M. Chipman,  D. L. Crittenden,  H. Dachsel,  
 R. A. DiStasio Jr.,  R. J. Doerksen,  A. D. Dutoi,  L. Fusti-Molnar,  
 W. A. Goddard III,  A. Golubeva-Zadorozhnaya,  S. R. Gwaltney,  G. Hawkins,  
 A. Heyden,  S. Hirata,  G. Kedziora,  F. J. Keil,  C. Kelley,  Jihan Kim,  
 R. A. King,  R. Z. Khaliullin,  P. P. Korambath,  W. Kurlancheek,  
 A. M. Lee,  M. S. Lee,  S. V. Levchenko,  Ching Yeh Lin,  D. Liotard,  
 R. C. Lochan,  I. Lotan,  P. E. Maslen,  N. Nair,  D. P. O'Neill,  
 D. Neuhauser,  E. Neuscamman,  C. M. Oana,  R. Olson,  B. Peters,  
 R. Peverati,  P. A. Pieniazek,  Y. M. Rhee,  J. Ritchie,  M. A. Rohrdanz,  
 E. Rosta,  N. J. Russ,  H. F. Schaefer III,  N. E. Schultz,  N. Shenvi,  
 A. C. Simmonett,  A. Sodt,  D. Stuck,  K. S. Thanthiriwatte,  V. Vanovschi,  
 Tao Wang,  A. Warshel,  C. F. Williams,  Q. Wu,  X. Xu,  W. Zhang

 Please cite Q-Chem as follows:
 Y. Shao et al., Mol. Phys. 113, 184-215 (2015)
 DOI: 10.1080/00268976.2014.952696

 Q-Chem 5.0.1 for Intel X86 EM64T Linux

 Parts of Q-Chem use Armadillo 5.200.1 (Boston Tea Smuggler).
 http://arma.sourceforge.net/

 Q-Chem begins on Mon Jan 15 03:43:37 2018  

Host: vega02.cac.cornell.edu
0

     Scratch files written to /scratch/jj585/SOT1001/0653c.save//
 Parallel job on  1  processors

Checking the input file for inconsistencies... 	...done.

--------------------------------------------------------------
User input:
--------------------------------------------------------------
$molecule
0  1
O -3.94934 -3.66094 2.70899
C -3.26408 -4.56952 2.26188
C -3.36658 -6.02376 2.66595
C -4.24158 -6.35393 3.88628
C -5.05793 -5.21626 4.45844
O -4.23155 -4.30403 5.05034
C -4.93366 -3.19298 5.61766
C -4.65143 -1.92738 4.81471
O -5.1547 -0.77992 5.51681
C -5.05376 0.39932 4.85474
C -5.33737 1.5939 5.73406
C -4.2936 1.85317 6.83023
C -2.9728 1.12757 6.6699
O -2.01824 1.21714 7.42841
O -2.3999 -4.29578 1.2497
O -2.67637 0.46856 5.51703
O -4.79092 0.48857 3.6605
C -1.46203 -0.12102 5.21626
C -5.29051 2.95607 5.0025
C -6.12185 3.98076 5.77382
C -5.25214 4.18885 6.99741
C -4.02948 3.34931 6.6101
O -3.98243 3.43291 5.20606
H -6.36537 1.45553 6.13936
H -4.68444 1.58873 7.83704
H -5.63655 2.90736 3.94717
H -6.11481 4.91746 5.17105
H -7.1743 3.69234 5.98344
H -4.99248 5.26863 7.06411
H -5.69121 3.8399 7.95729
H -3.12378 3.70339 7.15048
O -6.28206 -5.14991 4.41092
C -2.19782 -3.03762 0.72192
C -4.03767 -6.87652 1.57792
C -3.63153 -8.34029 1.73976
C -4.41761 -8.71472 2.97822
C -5.17036 -7.40559 3.23873
O -5.39377 -6.88712 1.94942
H -2.3203 -6.35988 2.84471
H -3.66806 -6.80185 4.72859
H -1.82534 -2.34784 1.50955
H -3.81414 -6.52651 0.54622
H -4.04651 -8.90346 0.8734
H -2.53538 -8.51249 1.80166
H -5.13945 -9.51673 2.70533
H -3.80862 -9.03547 3.85089
H -6.07758 -7.61069 3.84861
H -3.14564 -2.64418 0.29616
H -1.44126 -3.09942 -0.08692
H -1.51444 -0.57023 4.20333
H -1.2332 -0.92105 5.95239
H -0.65365 0.64085 5.22226
H -3.55828 -1.82637 4.66033
H -5.17461 -2.01349 3.83884
H -4.5361 -3.05574 6.64574
H -6.03497 -3.3062 5.73099
$end

$opt
CONSTRAINT
tors           1           2           3           4     -10.142
tors           3           4           5           6     -69.468
tors           4           5           6           7    -180.000
tors           5           6           7           8    -110.516
tors           6           7           8           9    -169.657
tors           7           8           9          10    -175.211
tors           8           9          10          11    -168.520
tors           9          10          11          12     +67.819
tors          11          12          13          14    +179.176
ENDCONSTRAINT
$end

$rem
JOBTYPE                   OPT
METHOD                    B3LYP
DFT_D                     d3_op
BASIS                     STO-3G
GEOM_OPT_MAX_CYCLES       100
GEOM_OPT_TOL_GRADIENT     300
GEOM_OPT_TOL_DISPLACEMENT 1200
GEOM_OPT_TOL_ENERGY       100
SYMMETRY                  False
THRESH                    12
SCF_CONVERGENCE           8
MAX_SUB_FILE_NUM          128
MEM_STATIC                400
MEM_TOTAL                 4000
$end
--------------------------------------------------------------
 Adding empirical dispersion correction 
 ----------------------------------------------------------------
 Doing -D3(op) with
 s6 =   1.00000
 s8 =   0.78311
 a1 =   0.30000
 a2 =   4.25000
 n  =  10.00000
 -D3 energy without 3body term =     -0.0678129412 hartrees
 ----------------------------------------------------------------
             Standard Nuclear Orientation (Angstroms)
    I     Atom           X                Y                Z
 ----------------------------------------------------------------
    1      O      -2.0803181391     0.7192819388     0.6254193421
    2      C      -3.1020942478     1.2959407276     0.2812617311
    3      C      -4.3137261218     0.6353479820    -0.3385432534
    4      C      -4.1687621946    -0.8324958404    -0.7724355335
    5      C      -2.8857846354    -1.5292012899    -0.3766356897
    6      O      -1.8389332826    -1.0108953737    -1.0843604312
    7      C      -0.5848138533    -1.6221120886    -0.7636719194
    8      C       0.3046135130    -0.6352210536    -0.0146119215
    9      O       1.6369224828    -1.1609235324     0.0925294215
   10      C       2.4996299043    -0.4175411723     0.8289064430
   11      C       3.9348748553    -0.8635501272     0.6812324324
   12      C       4.5477770833    -0.6236910082    -0.7062414869
   13      C       3.7866719767     0.3256281712    -1.6096936555
   14      O       4.1222697787     0.6512328278    -2.7392514104
   15      O      -3.2251896061     2.6212653188     0.5544123730
   16      O       2.7535892341     1.0677910999    -1.1267771035
   17      O       2.1511784630     0.5007208123     1.5628247807
   18      C       2.0714550834     2.0479550017    -1.8243876903
   19      C       4.9446600439    -0.0784473545     1.5511924955
   20      C       6.1935703923    -0.9291861497     1.7803578901
   21      C       6.8076529808    -0.9110173535     0.3949186494
   22      C       5.8610245143     0.0662263260    -0.3112139591
   23      O       5.4366484627     0.9365752046     0.7100248868
   24      H       3.9708670825    -1.9325429342     0.9913248142
   25      H       4.6682291035    -1.5748157511    -1.2694500003
   26      H       4.5291001352     0.2519336156     2.5279197509
   27      H       6.8528370199    -0.3511423555     2.4673957421
   28      H       6.0200341100    -1.9395736940     2.2090533675
   29      H       7.8346362179    -0.4900302091     0.4715496407
   30      H       6.8333837297    -1.8926648423    -0.1262572500
   31      H       6.3666847606     0.5432082183    -1.1798172463
   32      O      -2.8164641979    -2.4398074498     0.4425992144
   33      C      -2.2428287337     3.3844382393     1.1501378552
   34      C      -5.4853426041     0.5397797118     0.6511800467
   35      C      -6.8025072661     0.4136898877    -0.1123270636
   36      C      -6.6941660733    -1.0059133691    -0.6270032162
   37      C      -5.3636580551    -1.4315714463     0.0029832872
   38      O      -5.3355866774    -0.7348642245     1.2256257083
   39      H      -4.5845501991     1.2670098614    -1.2144948615
   40      H      -4.2975761833    -0.9804780902    -1.8681325094
   41      H      -1.3247697628     3.3825735771     0.5239884604
   42      H      -5.5314520142     1.3953364641     1.3602457114
   43      H      -7.6296118704     0.4582344441     0.6318921615
   44      H      -6.9629920350     1.1910051197    -0.8901798399
   45      H      -7.5262229729    -1.6013820533    -0.1890073946
   46      H      -6.6940869762    -1.1135477502    -1.7332207107
   47      H      -5.3193069172    -2.5409134775     0.0697739089
   48      H      -2.0086611699     2.9863219989     2.1606319792
   49      H      -2.6044878875     4.4280883342     1.2522238741
   50      H       1.2912077051     2.4871532802    -1.1694964642
   51      H       1.5827594854     1.6089960580    -2.7203732956
   52      H       2.7689777988     2.8559849856    -2.1318120355
   53      H       0.3220645525     0.3302107091    -0.5592678679
   54      H      -0.1139675611    -0.4978501209     1.0048848233
   55      H      -0.0973404234    -1.8754548104    -1.7290860160
   56      H      -0.6281672456    -2.5730203165    -0.1870956462
 ----------------------------------------------------------------
 Molecular Point Group                 C1    NOp =  1
 Largest Abelian Subgroup              C1    NOp =  1
 Nuclear Repulsion Energy =  3166.1797809507 hartrees
 There are      113 alpha and      113 beta electrons
 Requested basis set is STO-3G
 There are 86 shells and 176 basis functions

 Total QAlloc Memory Limit   4000 MB
 Mega-Array Size       392 MB
 MEM_STATIC part       400 MB
 A cutoff of  1.0D-12 yielded   2126 shell pairs
 There are      9977 function pairs
 
 -------------------------------------------------------
 OpenMP Integral Computing Module                       
 Release: version 1.0, May 2013, Q-Chem Inc. Pittsburgh 
 -------------------------------------------------------
 Integral Job Info:
 Integral job number is                      11
 Integral operator is                         1
 short-range coefficients                     0
 long-range coefficients              100000000
 Omega coefficients                           0
 if combine SR and LR in K                    0
 Integral screening is                        0
 Integral computing path is                   2
 max size of driver memory is            800000
 size of driver memory is                 45569
 size of scratch memory is              1046100
 max col of scratch BK array                289
 max len of scratch array in speh3           22
 max len of scratch index in speh4            8
 max int batch size is                      520
 min int batch size is                       52
 fixed nKL is                                52
 max L of basis functions is                  1
 order of int derivative is                   0
 number of shells is                         86
 number of basis is                         176
 number of cartesian basis is               176
 number of contracted shell pairs          2126
 number of primitive shell pairs          11061
 maxK2 (contraction) of shell pair            9
 max number of K2 of shell pair               1
 max number of CS2 of shell pair            302
 max number of PS2 of shell pair           1254
 mem total for path MDJ                   52138
 -------------------------------------------------------
 Smallest overlap matrix eigenvalue = 1.93E-01

 Scale SEOQF with 1.000000e-02/1.000000e-01/1.000000e-01

 Standard Electronic Orientation quadrupole field applied
 Nucleus-field energy     =     0.0000000151 hartrees
 Guess from superposition of atomic densities
 Warning:  Energy on first SCF cycle will be non-variational
 A restricted hybrid HF-DFT SCF calculation will be
 performed using Pulay DIIS extrapolation
 Exchange:     0.2000 Hartree-Fock + 0.0800 Slater + 0.7200 B88
 Correlation:  0.1900 VWN1RPA + 0.8100 LYP
 Using SG-1 standard quadrature grid
 Dispersion:   Grimme D3
 SCF converges when DIIS error is below 1.0E-08
 using 48 threads for integral computing
 -------------------------------------------------------
 OpenMP Integral computing Module                
 Release: version 1.0, May 2013, Q-Chem Inc. Pittsburgh 
 -------------------------------------------------------
 -------------------------------------------------------
 OpenMP BLAS3 based DFT computing Module                
 Release: version 1.0, May 2013, Q-Chem Inc. Pittsburgh 
 -------------------------------------------------------
 ---------------------------------------
  Cycle       Energy         DIIS Error
 ---------------------------------------
    1   -1509.4638328383      8.29E-02
    2   -1509.5967956694      1.05E-02
    3   -1507.5404305366      2.56E-02
    4   -1510.0962552939      3.43E-03
    5   -1510.1423372108      1.24E-03
    6   -1510.1485256415      4.00E-04
    7   -1510.1491673139      1.26E-04
    8   -1510.1492341211      2.61E-05
    9   -1510.1492369532      8.15E-06
   10   -1510.1492371904      3.50E-06
   11   -1510.1492372430      8.43E-07
   12   -1510.1492372460      2.13E-07
   13   -1510.1492372462      1.27E-07
   14   -1510.1492372462      3.24E-08
   15   -1510.1492372462      5.90E-09 Convergence criterion met
 ---------------------------------------
 SCF time:  CPU 109.72 s  wall 2.34 s
 SCF   energy in the final basis set = -1510.14923725
 Total energy in the final basis set = -1510.14923725
 
 --------------------------------------------------------------
 
                    Orbital Energies (a.u.)
 --------------------------------------------------------------
 
 Alpha MOs
 -- Occupied --
-18.944 -18.935 -18.927 -18.926 -18.900 -18.897 -18.863 -18.861
-18.848 -18.843 -10.115 -10.109 -10.108 -10.099 -10.085 -10.082
-10.073 -10.071 -10.070 -10.067 -10.065 -10.062 -10.046 -10.044
-10.037 -10.031 -10.017 -10.016 -10.016 -10.013  -1.049  -1.045
 -1.038  -1.027  -1.025  -1.022  -0.953  -0.948  -0.938  -0.934
 -0.785  -0.782  -0.746  -0.743  -0.732  -0.722  -0.712  -0.684
 -0.679  -0.630  -0.608  -0.587  -0.555  -0.550  -0.538  -0.536
 -0.528  -0.519  -0.502  -0.495  -0.486  -0.472  -0.467  -0.459
 -0.452  -0.446  -0.435  -0.431  -0.427  -0.423  -0.421  -0.408
 -0.405  -0.395  -0.393  -0.383  -0.374  -0.366  -0.363  -0.358
 -0.351  -0.346  -0.345  -0.335  -0.333  -0.331  -0.323  -0.314
 -0.311  -0.309  -0.306  -0.300  -0.299  -0.290  -0.288  -0.276
 -0.274  -0.249  -0.237  -0.236  -0.231  -0.226  -0.217  -0.184
 -0.171  -0.169  -0.164  -0.155  -0.153  -0.150  -0.140  -0.136
 -0.130
 -- Virtual --
  0.113   0.115   0.118   0.132   0.231   0.252   0.266   0.270
  0.272   0.320   0.325   0.339   0.340   0.342   0.351   0.358
  0.363   0.376   0.384   0.388   0.391   0.392   0.398   0.400
  0.403   0.407   0.408   0.409   0.414   0.418   0.421   0.425
  0.428   0.434   0.436   0.441   0.447   0.452   0.456   0.461
  0.462   0.468   0.471   0.475   0.478   0.482   0.488   0.492
  0.497   0.501   0.509   0.513   0.534   0.544   0.546   0.558
  0.567   0.578   0.588   0.683   0.692   0.693   0.704
 --------------------------------------------------------------
 
          Ground-State Mulliken Net Atomic Charges

     Atom                 Charge (a.u.)
  ----------------------------------------
      1 O                    -0.235119
      2 C                     0.239110
      3 C                    -0.081509
      4 C                    -0.083189
      5 C                     0.241699
      6 O                    -0.182083
      7 C                    -0.038813
      8 C                    -0.031552
      9 O                    -0.203687
     10 C                     0.241177
     11 C                    -0.084304
     12 C                    -0.077815
     13 C                     0.237205
     14 O                    -0.241766
     15 O                    -0.214382
     16 O                    -0.212280
     17 O                    -0.235540
     18 C                    -0.094862
     19 C                     0.040374
     20 C                    -0.142164
     21 C                    -0.143439
     22 C                     0.039897
     23 O                    -0.211133
     24 H                     0.083075
     25 H                     0.092714
     26 H                     0.091711
     27 H                     0.075133
     28 H                     0.072068
     29 H                     0.076611
     30 H                     0.072350
     31 H                     0.088734
     32 O                    -0.227093
     33 C                    -0.097570
     34 C                     0.039684
     35 C                    -0.141743
     36 C                    -0.144288
     37 C                     0.041222
     38 O                    -0.208641
     39 H                     0.087462
     40 H                     0.084348
     41 H                     0.086077
     42 H                     0.086988
     43 H                     0.075513
     44 H                     0.072533
     45 H                     0.075927
     46 H                     0.071084
     47 H                     0.089983
     48 H                     0.090344
     49 H                     0.094983
     50 H                     0.095017
     51 H                     0.085891
     52 H                     0.090230
     53 H                     0.088066
     54 H                     0.102647
     55 H                     0.083087
     56 H                     0.100030
  ----------------------------------------
  Sum of atomic charges =     0.000000

 -----------------------------------------------------------------
                    Cartesian Multipole Moments
 -----------------------------------------------------------------
    Charge (ESU x 10^10)
                 0.0000
    Dipole Moment (Debye)
         X      -1.3350      Y       0.3747      Z      -1.6260
       Tot       2.1370
    Quadrupole Moments (Debye-Ang)
        XX    -146.5217     XY     -14.6516     YY    -155.1977
        XZ      11.9665     YZ       2.6808     ZZ    -164.9453
    Octopole Moments (Debye-Ang^2)
       XXX     -22.9443    XXY     -32.5011    XYY       0.2778
       YYY      35.7568    XXZ      -5.6181    XYZ     -23.7544
       YYZ      -5.1263    XZZ     -18.2860    YZZ       3.9112
       ZZZ      20.0184
    Hexadecapole Moments (Debye-Ang^3)
      XXXX  -16982.7240   XXXY    -151.6897   XXYY   -3299.5439
      XYYY       6.1151   YYYY   -1830.4268   XXXZ     187.2096
      XXYZ      49.6299   XYYZ     -45.8630   YYYZ      28.3239
      XXZZ   -3285.7549   XYZZ     -31.3979   YYZZ    -510.8403
      XZZZ      54.2830   YZZZ      20.2123   ZZZZ   -1319.9688
 -----------------------------------------------------------------
 Calculating analytic gradient of the SCF energy
 Gradient of SCF Energy
            1           2           3           4           5           6
    1  -0.0524422  -0.0251628   0.0061100   0.0123831   0.0168440  -0.0136113
    2   0.0368483   0.0121948  -0.0424198   0.0011638   0.0011529  -0.0212624
    3  -0.0201967  -0.0158151   0.0465837   0.0376655  -0.0171429   0.0392821
            7           8           9          10          11          12
    1  -0.0343278   0.0081386  -0.0000381  -0.0094728  -0.0044198   0.0172543
    2   0.0352624  -0.0280475   0.0640592  -0.0297816   0.0472489   0.0418507
    3   0.0173615  -0.0255698   0.0486706  -0.0182371  -0.0095493   0.0123429
           13          14          15          16          17          18
    1   0.0051709  -0.0423381   0.1121430   0.0296569   0.0186897   0.0073084
    2  -0.0290894   0.0059483  -0.0345031   0.0410398  -0.0409352  -0.0285639
    3   0.0294584   0.0781300   0.0426675  -0.1299284  -0.0358728   0.0441615
           19          20          21          22          23          24
    1   0.0328454  -0.0188043  -0.0376885  -0.0402063  -0.0009802  -0.0018347
    2   0.0176298   0.0214900   0.0253486   0.0033163  -0.0865254  -0.0031904
    3  -0.0629389  -0.0428502   0.0163498   0.0597205  -0.0071600   0.0092911
           25          26          27          28          29          30
    1  -0.0036708   0.0034688   0.0057234   0.0007060   0.0068457  -0.0027750
    2  -0.0056457  -0.0113155   0.0097843  -0.0076942   0.0059136  -0.0059659
    3  -0.0021970   0.0092135   0.0008642   0.0032976   0.0097980  -0.0063808
           31          32          33          34          35          36
    1   0.0067639  -0.0079262  -0.0531558   0.0119613   0.0408871   0.0307138
    2  -0.0091514   0.0368591  -0.0097486  -0.0667011  -0.0339583   0.0250870
    3  -0.0055076  -0.0309011  -0.0246076  -0.0124580   0.0050814   0.0286587
           37          38          39          40          41          42
    1   0.0005946  -0.0096045   0.0029147  -0.0002699  -0.0068370  -0.0066745
    2   0.0651969   0.0266280   0.0036236  -0.0075237  -0.0028574   0.0092219
    3   0.0323836  -0.0816949  -0.0047378  -0.0049216  -0.0052510  -0.0058653
           43          44          45          46          47          48
    1  -0.0046979  -0.0017579  -0.0081034   0.0023194  -0.0071893  -0.0080670
    2  -0.0064550   0.0053051   0.0011113  -0.0014650  -0.0050546  -0.0031588
    3   0.0085607  -0.0062225   0.0097729  -0.0081602  -0.0122887  -0.0026797
           49          50          51          52          53          54
    1   0.0027739  -0.0017640   0.0021463   0.0029080   0.0022226   0.0023147
    2   0.0017242   0.0033147  -0.0064960  -0.0041997  -0.0038468  -0.0093905
    3   0.0017028  -0.0031719   0.0059385   0.0068686  -0.0038390   0.0009433
           55          56
    1  -0.0008672   0.0128784
    2  -0.0003810  -0.0029958
    3   0.0022680  -0.0008909
 Max gradient component =       1.299E-01
 RMS gradient           =       2.841E-02
 Gradient time:  CPU 30.96 s  wall 0.66 s
 Geometry Optimization Parameters
   NAtoms,    NIC,     NZ,  NCons,   NDum,   NFix, NCnnct, MaxDiis
       56     458       0       9       0       0       0       0


** CONSTRAINED OPTIMIZATION IN DELOCALIZED INTERNAL COORDINATES **
   Searching for a Minimum

   Optimization Cycle:   1

                       Coordinates (Angstroms)
     ATOM                X               Y               Z
      1  O        -2.0803181391    0.7192819388    0.6254193421
      2  C        -3.1020942478    1.2959407276    0.2812617311
      3  C        -4.3137261218    0.6353479820   -0.3385432534
      4  C        -4.1687621946   -0.8324958404   -0.7724355335
      5  C        -2.8857846354   -1.5292012899   -0.3766356897
      6  O        -1.8389332826   -1.0108953737   -1.0843604312
      7  C        -0.5848138533   -1.6221120886   -0.7636719194
      8  C         0.3046135130   -0.6352210536   -0.0146119215
      9  O         1.6369224828   -1.1609235324    0.0925294215
     10  C         2.4996299043   -0.4175411723    0.8289064430
     11  C         3.9348748553   -0.8635501272    0.6812324324
     12  C         4.5477770833   -0.6236910082   -0.7062414869
     13  C         3.7866719767    0.3256281712   -1.6096936555
     14  O         4.1222697787    0.6512328278   -2.7392514104
     15  O        -3.2251896061    2.6212653188    0.5544123730
     16  O         2.7535892341    1.0677910999   -1.1267771035
     17  O         2.1511784630    0.5007208123    1.5628247807
     18  C         2.0714550834    2.0479550017   -1.8243876903
     19  C         4.9446600439   -0.0784473545    1.5511924955
     20  C         6.1935703923   -0.9291861497    1.7803578901
     21  C         6.8076529808   -0.9110173535    0.3949186494
     22  C         5.8610245143    0.0662263260   -0.3112139591
     23  O         5.4366484627    0.9365752046    0.7100248868
     24  H         3.9708670825   -1.9325429342    0.9913248142
     25  H         4.6682291035   -1.5748157511   -1.2694500003
     26  H         4.5291001352    0.2519336156    2.5279197509
     27  H         6.8528370199   -0.3511423555    2.4673957421
     28  H         6.0200341100   -1.9395736940    2.2090533675
     29  H         7.8346362179   -0.4900302091    0.4715496407
     30  H         6.8333837297   -1.8926648423   -0.1262572500
     31  H         6.3666847606    0.5432082183   -1.1798172463
     32  O        -2.8164641979   -2.4398074498    0.4425992144
     33  C        -2.2428287337    3.3844382393    1.1501378552
     34  C        -5.4853426041    0.5397797118    0.6511800467
     35  C        -6.8025072661    0.4136898877   -0.1123270636
     36  C        -6.6941660733   -1.0059133691   -0.6270032162
     37  C        -5.3636580551   -1.4315714463    0.0029832872
     38  O        -5.3355866774   -0.7348642245    1.2256257083
     39  H        -4.5845501991    1.2670098614   -1.2144948615
     40  H        -4.2975761833   -0.9804780902   -1.8681325094
     41  H        -1.3247697628    3.3825735771    0.5239884604
     42  H        -5.5314520142    1.3953364641    1.3602457114
     43  H        -7.6296118704    0.4582344441    0.6318921615
     44  H        -6.9629920350    1.1910051197   -0.8901798399
     45  H        -7.5262229729   -1.6013820533   -0.1890073946
     46  H        -6.6940869762   -1.1135477502   -1.7332207107
     47  H        -5.3193069172   -2.5409134775    0.0697739089
     48  H        -2.0086611699    2.9863219989    2.1606319792
     49  H        -2.6044878875    4.4280883342    1.2522238741
     50  H         1.2912077051    2.4871532802   -1.1694964642
     51  H         1.5827594854    1.6089960580   -2.7203732956
     52  H         2.7689777988    2.8559849856   -2.1318120355
     53  H         0.3220645525    0.3302107091   -0.5592678679
     54  H        -0.1139675611   -0.4978501209    1.0048848233
     55  H        -0.0973404234   -1.8754548104   -1.7290860160
     56  H        -0.6281672456   -2.5730203165   -0.1870956462
   Point Group: c1    Number of degrees of freedom:   162


   Energy is  -1510.149237246

              Constraints and their Current Values
                                        Value     Constraint
   Dihedral:        1   2   3   4      -10.142      -10.142
   Dihedral:        3   4   5   6      -69.468      -69.468
   Dihedral:        4   5   6   7      180.000     -180.000
   Dihedral:        5   6   7   8     -110.516     -110.516
   Dihedral:        6   7   8   9     -169.657     -169.657
   Dihedral:        7   8   9  10     -175.210     -175.211
   Dihedral:        8   9  10  11     -168.520     -168.520
   Dihedral:        9  10  11  12       67.819       67.819
   Dihedral:       11  12  13  14      179.176      179.176

 Attempting to Generate Delocalized Internal Coordinates

   Using Lagrange Multiplier Algorithm


171 Hessian modes will be used to form the next step
  Hessian Eigenvalues:
    -0.977753   -0.977753   -0.977753   -0.977753   -0.977753   -0.977753
    -0.977753   -0.977753   -0.977753    0.045000    0.045000    0.045000
     0.045000    0.045007    0.045011    0.045106    0.045420    0.045556
     0.045602    0.048870    0.048874    0.054541    0.059916    0.060020
     0.062558    0.062569    0.067018    0.067083    0.067450    0.067870
     0.070205    0.070982    0.071918    0.073817    0.074211    0.075569
     0.076124    0.076855    0.077017    0.082449    0.082583    0.083195
     0.083941    0.084257    0.084424    0.085611    0.085804    0.086388
     0.086731    0.086873    0.087025    0.088468    0.088729    0.089021
     0.089315    0.089707    0.089947    0.093795    0.093834    0.096598
     0.096645    0.111587    0.111591    0.114584    0.114665    0.115837
     0.115873    0.116842    0.117507    0.117619    0.118597    0.119098
     0.122564    0.122874    0.129848    0.131291    0.131417    0.139582
     0.140627    0.160000    0.160000    0.160000    0.160000    0.160000
     0.160000    0.171189    0.172192    0.172249    0.172594    0.219743
     0.221745    0.239968    0.241275    0.248376    0.249551    0.249900
     0.249936    0.250000    0.250000    0.250000    0.250000    0.250000
     0.250000    0.250000    0.250000    0.258143    0.258633    0.267066
     0.267510    0.278414    0.279453    0.284665    0.284806    0.295027
     0.295913    0.298746    0.308050    0.310698    0.310864    0.313318
     0.321899    0.322175    0.322291    0.322439    0.322716    0.322857
     0.322949    0.323301    0.323358    0.323645    0.323734    0.323983
     0.324187    0.324225    0.324479    0.324608    0.324670    0.324727
     0.324892    0.324954    0.325115    0.325173    0.325355    0.326734
     0.326801    0.327478    0.368396    0.368725    0.383408    0.383918
     0.401006    0.407720    0.485580    0.492380    0.517920    0.528233
     0.531974    0.537342    0.924126    0.927416    0.941950    0.942772
     1.022753    1.022753    1.022753    1.022753    1.022753    1.022753
     1.022753    1.022753    1.022753

 Minimum Search - Taking P-RFO Step
 Searching for Lamda that Maximizes Along the Constraint modes Only
 Value Taken    Lamda =   0.00044068
 Searching for Lamda that Minimizes Along All other modes
 Value Taken    Lamda =  -0.17551146
 Calculated Step too Large.  Step scaled by  0.512339
 Step Taken.  Stepsize is  0.300000

                             Maximum     Tolerance    Cnvgd?
         Gradient            0.127679       0.000300      NO
         Displacement        0.112910       0.001200      NO
         Energy change     *********       0.000001      NO


 New Cartesian Coordinates Obtained by Inverse Iteration

 Displacement from previous Coordinates is:  1.304436
 Adding empirical dispersion correction 
 ----------------------------------------------------------------
 Doing -D3(op) with
 s6 =   1.00000
 s8 =   0.78311
 a1 =   0.30000
 a2 =   4.25000
 n  =  10.00000
 -D3 energy without 3body term =     -0.0671594838 hartrees
 ----------------------------------------------------------------
             Standard Nuclear Orientation (Angstroms)
    I     Atom           X                Y                Z
 ----------------------------------------------------------------
    1      O      -2.1344664949     0.7985678401     0.7032804423
    2      C      -3.1757764016     1.3456423338     0.3142593750
    3      C      -4.3753237151     0.6520651664    -0.3391143934
    4      C      -4.2067920926    -0.8389253092    -0.7632122975
    5      C      -2.8999427668    -1.5401080220    -0.3528165294
    6      O      -1.8347021225    -1.0116642284    -1.0726309578
    7      C      -0.5624557155    -1.6185432162    -0.7450191594
    8      C       0.3356752730    -0.6160472448     0.0087404382
    9      O       1.6746745090    -1.1637235434     0.1034753841
   10      C       2.5464446993    -0.3996500724     0.8512876286
   11      C       3.9938880449    -0.8741946700     0.6795150135
   12      C       4.6062489772    -0.6445113088    -0.7340011356
   13      C       3.8466008532     0.3223775712    -1.6498610613
   14      O       4.2022492579     0.6300143276    -2.7998866436
   15      O      -3.3888818830     2.6868452348     0.5458254942
   16      O       2.8166000857     1.0522068629    -1.0880648095
   17      O       2.1990933483     0.5285101467     1.5969081963
   18      C       2.1460318572     2.0557196301    -1.8106708651
   19      C       5.0258482495    -0.0894467311     1.5534445666
   20      C       6.2777789536    -0.9755713703     1.7736479073
   21      C       6.8917795410    -0.9672841574     0.3630150958
   22      C       5.9485829030     0.0423154009    -0.3466970268
   23      O       5.5347967523     0.9394586814     0.6935412966
   24      H       4.0205371781    -1.9418288320     0.9842646249
   25      H       4.7139689594    -1.5950021526    -1.2949225852
   26      H       4.6161931049     0.2535209755     2.5261993509
   27      H       6.9492576854    -0.4176097887     2.4575199711
   28      H       6.0865144093    -1.9788957840     2.1999443226
   29      H       7.9235449169    -0.5693712276     0.4245126747
   30      H       6.8956972891    -1.9460801844    -0.1546689726
   31      H       6.4491769880     0.5161743723    -1.2175414244
   32      O      -2.8201252771    -2.4592245601     0.4738977487
   33      C      -2.4015769439     3.4670743213     1.1745249008
   34      C      -5.5756995640     0.5498744439     0.6505526147
   35      C      -6.8935980122     0.4017210028    -0.1489486395
   36      C      -6.7561046773    -1.0416538775    -0.6583684398
   37      C      -5.4166304576    -1.4581092585     0.0094382181
   38      O      -5.4152017401    -0.7422319654     1.2518181037
   39      H      -4.6420558741     1.2703552471    -1.2223247931
   40      H      -4.3197464851    -0.9895321235    -1.8570552231
   41      H      -1.4599210976     3.4760999935     0.5817849696
   42      H      -5.6367946602     1.4053632320     1.3554665180
   43      H      -7.7339974778     0.4478260035     0.5726588593
   44      H      -7.0443389485     1.1691971771    -0.9320723661
   45      H      -7.5851422520    -1.6461820914    -0.2403523766
   46      H      -6.7327500936    -1.1538681557    -1.7593775579
   47      H      -5.3540507933    -2.5635384721     0.0889863110
   48      H      -2.1803771645     3.0869500770     2.1965933442
   49      H      -2.7786539973     4.5064956764     1.2569540897
   50      H       1.3763869555     2.5046460968    -1.1504754536
   51      H       1.6442731030     1.6345043998    -2.7100773874
   52      H       2.8486350985     2.8577483272    -2.1282024356
   53      H       0.3569732797     0.3500509189    -0.5361648385
   54      H      -0.0798905130    -0.4639726227     1.0280727049
   55      H      -0.0728446258    -1.8760794582    -1.7096525704
   56      H      -0.6196588630    -2.5664003561    -0.1663049029
 ----------------------------------------------------------------
 Molecular Point Group                 C1    NOp =  1
 Largest Abelian Subgroup              C1    NOp =  1
 Nuclear Repulsion Energy =  3124.1203028519 hartrees
 There are      113 alpha and      113 beta electrons
 Applying Cartesian multipole field
    Component          Value
    ---------          -----
     (2,0,0)        1.00000E-12
     (0,2,0)        2.00000E-11
     (0,0,2)       -3.00000E-11
 Nucleus-field energy     =     0.0000000160 hartrees
 Requested basis set is STO-3G
 There are 86 shells and 176 basis functions
 A cutoff of  1.0D-12 yielded   2100 shell pairs
 There are      9831 function pairs
 Smallest overlap matrix eigenvalue = 2.02E-01
 Guess MOs from SCF MO coefficient file
 Reading MOs from coefficient file
 Reading MOs from coefficient file
 A restricted hybrid HF-DFT SCF calculation will be
 performed using Pulay DIIS extrapolation
 Exchange:     0.2000 Hartree-Fock + 0.0800 Slater + 0.7200 B88
 Correlation:  0.1900 VWN1RPA + 0.8100 LYP
 Using SG-1 standard quadrature grid
 Dispersion:   Grimme D3
 SCF converges when DIIS error is below 1.0E-08
 Geometry optimization detected.  Setting ReadMinima to 0
 Setting SaveMinima to 0
 using 48 threads for integral computing
 -------------------------------------------------------
 OpenMP Integral computing Module                
 Release: version 1.0, May 2013, Q-Chem Inc. Pittsburgh 
 -------------------------------------------------------
 -------------------------------------------------------
 OpenMP BLAS3 based DFT computing Module                
 Release: version 1.0, May 2013, Q-Chem Inc. Pittsburgh 
 -------------------------------------------------------
 ---------------------------------------
  Cycle       Energy         DIIS Error
 ---------------------------------------
    1   -1510.0486657229      3.22E-03
    2   -1510.2165105824      9.58E-04
    3   -1510.2097355820      1.59E-03
    4   -1510.2202724975      2.98E-04
    5   -1510.2206807093      5.04E-05
    6   -1510.2206913968      1.95E-05
    7   -1510.2206925287      1.18E-05
    8   -1510.2206931291      1.97E-06
    9   -1510.2206931497      4.53E-07
   10   -1510.2206931503      2.81E-07
   11   -1510.2206931506      1.04E-07
   12   -1510.2206931506      1.92E-08
   13   -1510.2206931505      7.28E-09 Convergence criterion met
 ---------------------------------------
 SCF time:  CPU 91.28 s  wall 1.91 s
 SCF   energy in the final basis set = -1510.22069315
 Total energy in the final basis set = -1510.22069315
 
 --------------------------------------------------------------
 
                    Orbital Energies (a.u.)
 --------------------------------------------------------------
 
 Alpha MOs
 -- Occupied --
-18.939 -18.938 -18.936 -18.924 -18.898 -18.894 -18.865 -18.864
-18.855 -18.846 -10.110 -10.105 -10.104 -10.096 -10.080 -10.079
-10.071 -10.068 -10.066 -10.066 -10.063 -10.059 -10.043 -10.043
-10.038 -10.031 -10.018 -10.017 -10.016 -10.013  -1.037  -1.034
 -1.025  -1.015  -1.005  -1.002  -0.945  -0.941  -0.936  -0.928
 -0.776  -0.773  -0.737  -0.734  -0.724  -0.715  -0.705  -0.677
 -0.675  -0.624  -0.604  -0.584  -0.551  -0.547  -0.537  -0.534
 -0.524  -0.515  -0.497  -0.489  -0.478  -0.465  -0.461  -0.454
 -0.446  -0.440  -0.431  -0.425  -0.422  -0.418  -0.417  -0.402
 -0.400  -0.391  -0.387  -0.377  -0.368  -0.362  -0.358  -0.353
 -0.346  -0.344  -0.342  -0.334  -0.333  -0.330  -0.323  -0.313
 -0.309  -0.306  -0.305  -0.298  -0.297  -0.288  -0.287  -0.274
 -0.271  -0.248  -0.238  -0.237  -0.235  -0.231  -0.224  -0.182
 -0.173  -0.172  -0.164  -0.153  -0.152  -0.150  -0.143  -0.142
 -0.133
 -- Virtual --
  0.107   0.107   0.112   0.126   0.224   0.248   0.262   0.264
  0.266   0.306   0.311   0.324   0.332   0.334   0.345   0.351
  0.359   0.367   0.374   0.376   0.380   0.382   0.387   0.390
  0.392   0.394   0.400   0.407   0.409   0.412   0.413   0.420
  0.421   0.423   0.429   0.432   0.434   0.436   0.441   0.448
  0.451   0.459   0.463   0.465   0.469   0.475   0.476   0.482
  0.485   0.491   0.492   0.497   0.512   0.524   0.525   0.548
  0.557   0.562   0.565   0.653   0.669   0.670   0.681
 --------------------------------------------------------------
 
          Ground-State Mulliken Net Atomic Charges

     Atom                 Charge (a.u.)
  ----------------------------------------
      1 O                    -0.226756
      2 C                     0.227214
      3 C                    -0.079904
      4 C                    -0.080842
      5 C                     0.230877
      6 O                    -0.179007
      7 C                    -0.041482
      8 C                    -0.035852
      9 O                    -0.196809
     10 C                     0.232381
     11 C                    -0.082734
     12 C                    -0.077057
     13 C                     0.225157
     14 O                    -0.231472
     15 O                    -0.201797
     16 O                    -0.196774
     17 O                    -0.228807
     18 C                    -0.103423
     19 C                     0.034980
     20 C                    -0.143154
     21 C                    -0.144273
     22 C                     0.034719
     23 O                    -0.202252
     24 H                     0.082863
     25 H                     0.090765
     26 H                     0.091138
     27 H                     0.075302
     28 H                     0.072610
     29 H                     0.076744
     30 H                     0.073033
     31 H                     0.087897
     32 O                    -0.220651
     33 C                    -0.105782
     34 C                     0.034631
     35 C                    -0.142863
     36 C                    -0.144986
     37 C                     0.035811
     38 O                    -0.199439
     39 H                     0.086966
     40 H                     0.084061
     41 H                     0.086594
     42 H                     0.086715
     43 H                     0.075986
     44 H                     0.073411
     45 H                     0.076382
     46 H                     0.071812
     47 H                     0.089704
     48 H                     0.090328
     49 H                     0.094293
     50 H                     0.095559
     51 H                     0.086499
     52 H                     0.090703
     53 H                     0.087057
     54 H                     0.101207
     55 H                     0.083297
     56 H                     0.099419
  ----------------------------------------
  Sum of atomic charges =     0.000000

 -----------------------------------------------------------------
                    Cartesian Multipole Moments
 -----------------------------------------------------------------
    Charge (ESU x 10^10)
                 0.0000
    Dipole Moment (Debye)
         X      -1.3396      Y       0.4465      Z      -1.7182
       Tot       2.2240
    Quadrupole Moments (Debye-Ang)
        XX    -146.6081     XY     -14.6343     YY    -154.6785
        XZ      11.8292     YZ       2.6024     ZZ    -164.9516
    Octopole Moments (Debye-Ang^2)
       XXX     -28.5414    XXY     -34.6440    XYY      -1.1522
       YYY      36.6940    XXZ      -8.7003    XYZ     -26.0016
       YYZ      -5.2152    XZZ     -17.9022    YZZ       4.4691
       ZZZ      18.9898
    Hexadecapole Moments (Debye-Ang^3)
      XXXX  -17481.2987   XXXY    -133.8181   XXYY   -3390.3213
      XYYY      42.4032   YYYY   -1881.4821   XXXZ     222.5505
      XXYZ      48.4007   XYYZ     -42.9002   YYYZ      26.6374
      XXZZ   -3380.8641   XYZZ     -19.7619   YYZZ    -522.3210
      XZZZ      80.3037   YZZZ      14.2881   ZZZZ   -1341.8648
 -----------------------------------------------------------------
 Calculating analytic gradient of the SCF energy
 Gradient of SCF Energy
            1           2           3           4           5           6
    1  -0.0246574  -0.0301515   0.0037453   0.0064128   0.0093686  -0.0049220
    2   0.0171868   0.0191838  -0.0258206   0.0008214   0.0023994  -0.0148424
    3  -0.0096620  -0.0167252   0.0311498   0.0207846  -0.0177579   0.0245704
            7           8           9          10          11          12
    1  -0.0256622   0.0086424  -0.0018035  -0.0051315  -0.0032226   0.0145872
    2   0.0241425  -0.0179885   0.0437060  -0.0301471   0.0285368   0.0264820
    3   0.0127891  -0.0190493   0.0331600  -0.0179625  -0.0057122   0.0032853
           13          14          15          16          17          18
    1  -0.0043322  -0.0156655   0.0784527   0.0138484   0.0099225   0.0063384
    2  -0.0269615   0.0071466  -0.0234326   0.0325671  -0.0171752  -0.0237373
    3   0.0363838   0.0314451   0.0329808  -0.0853140  -0.0170823   0.0355159
           19          20          21          22          23          24
    1   0.0187930  -0.0124727  -0.0195009  -0.0257157  -0.0014303  -0.0014108
    2   0.0166787   0.0100554   0.0136434   0.0073627  -0.0525872  -0.0013866
    3  -0.0393163  -0.0237284   0.0072258   0.0370518  -0.0039830   0.0079004
           25          26          27          28          29          30
    1  -0.0042889   0.0029037   0.0031234   0.0016536   0.0037394  -0.0016390
    2  -0.0029312  -0.0107421   0.0069666  -0.0042200   0.0037212  -0.0029197
    3  -0.0021420   0.0073594  -0.0002871   0.0029392   0.0074790  -0.0045854
           31          32          33          34          35          36
    1   0.0052412  -0.0054204  -0.0399036   0.0100929   0.0239092   0.0167034
    2  -0.0088943   0.0181275  -0.0068653  -0.0416338  -0.0165811   0.0134181
    3  -0.0045588  -0.0145724  -0.0196582  -0.0026090   0.0018729   0.0148729
           37          38          39          40          41          42
    1   0.0009698  -0.0050651   0.0028375   0.0006097  -0.0026193  -0.0058063
    2   0.0398258   0.0146093   0.0025572  -0.0067287  -0.0010745   0.0076179
    3   0.0251171  -0.0497738  -0.0032559  -0.0024665  -0.0036291  -0.0062312
           43          44          45          46          47          48
    1  -0.0022704  -0.0021906  -0.0050692   0.0014134  -0.0058631  -0.0042310
    2  -0.0049296   0.0032914   0.0018322  -0.0016869  -0.0035104  -0.0016914
    3   0.0056420  -0.0030768   0.0067993  -0.0045351  -0.0117149  -0.0002437
           49          50          51          52          53          54
    1   0.0025317  -0.0019115   0.0002416   0.0020205   0.0019492   0.0017007
    2   0.0020923   0.0030614  -0.0038991  -0.0010627  -0.0025042  -0.0070634
    3   0.0017259  -0.0023197   0.0024284   0.0037582  -0.0025959   0.0009232
           55          56
    1  -0.0000710   0.0106762
    2  -0.0012088  -0.0028069
    3   0.0012998  -0.0019120
 Max gradient component =       8.531E-02
 RMS gradient           =       1.846E-02
 Gradient time:  CPU 29.89 s  wall 0.63 s
 Geometry Optimization Parameters
   NAtoms,    NIC,     NZ,  NCons,   NDum,   NFix, NCnnct, MaxDiis
       56     458       0       9       0       0       0       0

 Cartesian Hessian Update
 Hessian Updated using BFGS Update


** CONSTRAINED OPTIMIZATION IN DELOCALIZED INTERNAL COORDINATES **
   Searching for a Minimum

   Optimization Cycle:   2

                       Coordinates (Angstroms)
     ATOM                X               Y               Z
      1  O        -2.1344664949    0.7985678401    0.7032804423
      2  C        -3.1757764016    1.3456423338    0.3142593750
      3  C        -4.3753237151    0.6520651664   -0.3391143934
      4  C        -4.2067920926   -0.8389253092   -0.7632122975
      5  C        -2.8999427668   -1.5401080220   -0.3528165294
      6  O        -1.8347021225   -1.0116642284   -1.0726309578
      7  C        -0.5624557155   -1.6185432162   -0.7450191594
      8  C         0.3356752730   -0.6160472448    0.0087404382
      9  O         1.6746745090   -1.1637235434    0.1034753841
     10  C         2.5464446993   -0.3996500724    0.8512876286
     11  C         3.9938880449   -0.8741946700    0.6795150135
     12  C         4.6062489772   -0.6445113088   -0.7340011356
     13  C         3.8466008532    0.3223775712   -1.6498610613
     14  O         4.2022492579    0.6300143276   -2.7998866436
     15  O        -3.3888818830    2.6868452348    0.5458254942
     16  O         2.8166000857    1.0522068629   -1.0880648095
     17  O         2.1990933483    0.5285101467    1.5969081963
     18  C         2.1460318572    2.0557196301   -1.8106708651
     19  C         5.0258482495   -0.0894467311    1.5534445666
     20  C         6.2777789536   -0.9755713703    1.7736479073
     21  C         6.8917795410   -0.9672841574    0.3630150958
     22  C         5.9485829030    0.0423154009   -0.3466970268
     23  O         5.5347967523    0.9394586814    0.6935412966
     24  H         4.0205371781   -1.9418288320    0.9842646249
     25  H         4.7139689594   -1.5950021526   -1.2949225852
     26  H         4.6161931049    0.2535209755    2.5261993509
     27  H         6.9492576854   -0.4176097887    2.4575199711
     28  H         6.0865144093   -1.9788957840    2.1999443226
     29  H         7.9235449169   -0.5693712276    0.4245126747
     30  H         6.8956972891   -1.9460801844   -0.1546689726
     31  H         6.4491769880    0.5161743723   -1.2175414244
     32  O        -2.8201252771   -2.4592245601    0.4738977487
     33  C        -2.4015769439    3.4670743213    1.1745249008
     34  C        -5.5756995640    0.5498744439    0.6505526147
     35  C        -6.8935980122    0.4017210028   -0.1489486395
     36  C        -6.7561046773   -1.0416538775   -0.6583684398
     37  C        -5.4166304576   -1.4581092585    0.0094382181
     38  O        -5.4152017401   -0.7422319654    1.2518181037
     39  H        -4.6420558741    1.2703552471   -1.2223247931
     40  H        -4.3197464851   -0.9895321235   -1.8570552231
     41  H        -1.4599210976    3.4760999935    0.5817849696
     42  H        -5.6367946602    1.4053632320    1.3554665180
     43  H        -7.7339974778    0.4478260035    0.5726588593
     44  H        -7.0443389485    1.1691971771   -0.9320723661
     45  H        -7.5851422520   -1.6461820914   -0.2403523766
     46  H        -6.7327500936   -1.1538681557   -1.7593775579
     47  H        -5.3540507933   -2.5635384721    0.0889863110
     48  H        -2.1803771645    3.0869500770    2.1965933442
     49  H        -2.7786539973    4.5064956764    1.2569540897
     50  H         1.3763869555    2.5046460968   -1.1504754536
     51  H         1.6442731030    1.6345043998   -2.7100773874
     52  H         2.8486350985    2.8577483272   -2.1282024356
     53  H         0.3569732797    0.3500509189   -0.5361648385
     54  H        -0.0798905130   -0.4639726227    1.0280727049
     55  H        -0.0728446258   -1.8760794582   -1.7096525704
     56  H        -0.6196588630   -2.5664003561   -0.1663049029
   Point Group: c1    Number of degrees of freedom:   162


   Energy is  -1510.220693151

              Constraints and their Current Values
                                        Value     Constraint
   Dihedral:        1   2   3   4      -10.135      -10.142
   Dihedral:        3   4   5   6      -69.429      -69.468
   Dihedral:        4   5   6   7      179.979     -180.000
   Dihedral:        5   6   7   8     -110.511     -110.516
   Dihedral:        6   7   8   9     -169.641     -169.657
   Dihedral:        7   8   9  10     -175.199     -175.211
   Dihedral:        8   9  10  11     -168.496     -168.520
   Dihedral:        9  10  11  12       67.838       67.819
   Dihedral:       11  12  13  14      179.150      179.176
 Hessian Updated using BFGS Update

   Using Lagrange Multiplier Algorithm


159 Hessian modes will be used to form the next step
  Hessian Eigenvalues:
    -0.977753   -0.977753   -0.977753   -0.977753   -0.977753   -0.977753
    -0.977753   -0.977753   -0.976380    0.044998    0.045000    0.045004
     0.045007    0.045107    0.045434    0.045594    0.045603    0.048874
     0.048908    0.054538    0.059783    0.060049    0.062515    0.062675
     0.067059    0.067085    0.067451    0.067828    0.070169    0.071199
     0.071913    0.073836    0.074169    0.075566    0.076118    0.076855
     0.077012    0.082450    0.082582    0.083195    0.083944    0.084298
     0.084509    0.085606    0.085804    0.086413    0.086697    0.086797
     0.087026    0.088300    0.088728    0.089040    0.089311    0.089707
     0.089976    0.093813    0.093847    0.096608    0.096640    0.111589
     0.111641    0.114594    0.114680    0.115837    0.115873    0.116832
     0.117439    0.117652    0.118580    0.119099    0.122616    0.122873
     0.129859    0.131307    0.131417    0.139201    0.141401    0.159636
     0.161434    0.170986    0.171333    0.172251    0.172585    0.218584
     0.221259    0.229564    0.239991    0.241318    0.248978    0.249552
     0.249901    0.249937    0.255523    0.258462    0.265100    0.267306
     0.267874    0.278846    0.281190    0.284728    0.288434    0.295376
     0.297569    0.301641    0.307569    0.310611    0.312591    0.320751
     0.322021    0.322194    0.322410    0.322507    0.322760    0.322945
     0.323087    0.323353    0.323557    0.323695    0.323771    0.324023
     0.324219    0.324258    0.324488    0.324587    0.324696    0.324782
     0.324926    0.325068    0.325167    0.325354    0.326687    0.326784
     0.327472    0.331329    0.368395    0.368725    0.383313    0.400111
     0.405130    0.424666    0.471775    0.490459    0.521082    0.526999
     0.534165    0.536986    0.924359    0.929428    0.941289    0.987286
     1.022753    1.022753    1.022753    1.022753    1.022753    1.022753
     1.022753    1.022753    1.037225

 Minimum Search - Taking P-RFO Step
 Searching for Lamda that Maximizes Along the Constraint modes Only
 Value Taken    Lamda =   0.00013960
 Searching for Lamda that Minimizes Along All other modes
 Value Taken    Lamda =  -0.08246823
 Calculated Step too Large.  Step scaled by  0.607476
 Step Taken.  Stepsize is  0.300000

                             Maximum     Tolerance    Cnvgd?
         Gradient            0.069638       0.000300      NO
         Displacement        0.090725       0.001200      NO
         Energy change     -0.071456       0.000001      NO


 New Cartesian Coordinates Obtained by Inverse Iteration

 Displacement from previous Coordinates is:  1.143924
 Adding empirical dispersion correction 
 ----------------------------------------------------------------
 Doing -D3(op) with
 s6 =   1.00000
 s8 =   0.78311
 a1 =   0.30000
 a2 =   4.25000
 n  =  10.00000
 -D3 energy without 3body term =     -0.0669919940 hartrees
 ----------------------------------------------------------------
             Standard Nuclear Orientation (Angstroms)
    I     Atom           X                Y                Z
 ----------------------------------------------------------------
    1      O      -2.1194502955     0.7182072010     0.7298888362
    2      C      -3.1570973992     1.2951371859     0.3454151078
    3      C      -4.3939874281     0.6480056886    -0.3219550696
    4      C      -4.2452766799    -0.8458350697    -0.7621812000
    5      C      -2.9217657676    -1.5474223763    -0.3503600646
    6      O      -1.8607274310    -0.9928343963    -1.0923462551
    7      C      -0.5802111939    -1.6064290610    -0.7569703264
    8      C       0.3130960358    -0.5859937734     0.0041672663
    9      O       1.6591166260    -1.1558404839     0.0957942672
   10      C       2.5195166232    -0.3559958426     0.8624251792
   11      C       3.9822208187    -0.8443424291     0.6881213065
   12      C       4.6132961520    -0.6322766750    -0.7362554455
   13      C       3.8688342797     0.3386420436    -1.6921228913
   14      O       4.2395202551     0.6306281903    -2.8484742229
   15      O      -3.3818491063     2.6572746258     0.5723344812
   16      O       2.8258095870     1.0593842069    -1.1040600626
   17      O       2.1483801720     0.5723425521     1.6082433358
   18      C       2.2116761581     2.0570309474    -1.9351261190
   19      C       5.0090823172    -0.0451188514     1.5752300836
   20      C       6.2636589143    -0.9479384458     1.8163596234
   21      C       6.8984306300    -0.9572780282     0.3982066832
   22      C       5.9672213384     0.0648867437    -0.3400636652
   23      O       5.5386406839     0.9937223997     0.6993017536
   24      H       4.0049968153    -1.9098433534     0.9905634425
   25      H       4.7315063382    -1.5875263011    -1.2822675403
   26      H       4.5820650205     0.3212020316     2.5300449031
   27      H       6.9322913916    -0.4007076562     2.5054695668
   28      H       6.0524435928    -1.9432749056     2.2432614483
   29      H       7.9317178233    -0.5734212648     0.4565411104
   30      H       6.8962747933    -1.9397372378    -0.1050528996
   31      H       6.4710257070     0.5378293414    -1.2073672333
   32      O      -2.8141088644    -2.4771742658     0.4721066688
   33      C      -2.3040340977     3.3452170501     1.2267473358
   34      C      -5.6068575345     0.5527410037     0.6799695978
   35      C      -6.9309625268     0.4283181609    -0.1428250484
   36      C      -6.8037600201    -1.0282571302    -0.6743017833
   37      C      -5.4649147135    -1.4769647857     0.0087761810
   38      O      -5.4624959442    -0.7668499107     1.2801637683
   39      H      -4.6556052850     1.2801784467    -1.1932303687
   40      H      -4.3599943628    -0.9772822385    -1.8559952551
   41      H      -1.3679809748     3.3037716473     0.6284863680
   42      H      -5.6455149308     1.3901369687     1.4051405077
   43      H      -7.7791621935     0.4840140559     0.5629745624
   44      H      -7.0565964577     1.2041455130    -0.9172923885
   45      H      -7.6407737869    -1.6321684811    -0.2823876852
   46      H      -6.7677969810    -1.1225009946    -1.7732703003
   47      H      -5.3994026947    -2.5802639819     0.0917177362
   48      H      -2.0972635546     2.9201723224     2.2330349952
   49      H      -2.6110213301     4.4029433033     1.3398607990
   50      H       1.4236509455     2.5456774226    -1.3298815568
   51      H       1.7472249343     1.6082287396    -2.8402334288
   52      H       2.9449233960     2.8278817196    -2.2576193067
   53      H       0.3390730051     0.3780625335    -0.5454948968
   54      H      -0.1085987140    -0.4135526714     1.0184170175
   55      H      -0.0835482291    -1.8685352171    -1.7169922393
   56      H      -0.6649842937    -2.5483415399    -0.1729913599
 ----------------------------------------------------------------
 Molecular Point Group                 C1    NOp =  1
 Largest Abelian Subgroup              C1    NOp =  1
 Nuclear Repulsion Energy =  3109.2241679817 hartrees
 There are      113 alpha and      113 beta electrons
 Applying Cartesian multipole field
    Component          Value
    ---------          -----
     (2,0,0)        1.00000E-12
     (0,2,0)        2.00000E-11
     (0,0,2)       -3.00000E-11
 Nucleus-field energy     =     0.0000000139 hartrees
 Requested basis set is STO-3G
 There are 86 shells and 176 basis functions
 A cutoff of  1.0D-12 yielded   2094 shell pairs
 There are      9828 function pairs
 Smallest overlap matrix eigenvalue = 2.07E-01
 Guess MOs from SCF MO coefficient file
 Reading MOs from coefficient file
 Reading MOs from coefficient file
 A restricted hybrid HF-DFT SCF calculation will be
 performed using Pulay DIIS extrapolation
 Exchange:     0.2000 Hartree-Fock + 0.0800 Slater + 0.7200 B88
 Correlation:  0.1900 VWN1RPA + 0.8100 LYP
 Using SG-1 standard quadrature grid
 Dispersion:   Grimme D3
 SCF converges when DIIS error is below 1.0E-08
 Geometry optimization detected.  Setting ReadMinima to 0
 Setting SaveMinima to 0
 using 48 threads for integral computing
 -------------------------------------------------------
 OpenMP Integral computing Module                
 Release: version 1.0, May 2013, Q-Chem Inc. Pittsburgh 
 -------------------------------------------------------
 -------------------------------------------------------
 OpenMP BLAS3 based DFT computing Module                
 Release: version 1.0, May 2013, Q-Chem Inc. Pittsburgh 
 -------------------------------------------------------
 ---------------------------------------
  Cycle       Energy         DIIS Error
 ---------------------------------------
    1   -1510.1101641216      2.87E-03
    2   -1510.2551877310      8.93E-04
    3   -1510.2482382105      1.56E-03
    4   -1510.2585266830      2.59E-04
    5   -1510.2588277652      5.03E-05
    6   -1510.2588377816      2.12E-05
    7   -1510.2588392019      1.19E-05
    8   -1510.2588398071      2.25E-06
    9   -1510.2588398336      4.23E-07
   10   -1510.2588398340      2.80E-07
   11   -1510.2588398343      9.43E-08
   12   -1510.2588398343      1.61E-08
   13   -1510.2588398343      5.99E-09 Convergence criterion met
 ---------------------------------------
 SCF time:  CPU 90.22 s  wall 1.88 s
 SCF   energy in the final basis set = -1510.25883983
 Total energy in the final basis set = -1510.25883983
 
 --------------------------------------------------------------
 
                    Orbital Energies (a.u.)
 --------------------------------------------------------------
 
 Alpha MOs
 -- Occupied --
-18.942 -18.941 -18.934 -18.922 -18.896 -18.892 -18.872 -18.867
-18.861 -18.852 -10.107 -10.102 -10.100 -10.094 -10.074 -10.074
-10.067 -10.065 -10.063 -10.061 -10.061 -10.057 -10.042 -10.041
-10.037 -10.031 -10.019 -10.018 -10.017 -10.014  -1.029  -1.027
 -1.016  -1.006  -0.989  -0.986  -0.944  -0.937  -0.935  -0.926
 -0.771  -0.767  -0.732  -0.728  -0.717  -0.710  -0.698  -0.671
 -0.670  -0.618  -0.600  -0.580  -0.549  -0.545  -0.537  -0.533
 -0.520  -0.512  -0.491  -0.483  -0.470  -0.460  -0.458  -0.449
 -0.441  -0.436  -0.427  -0.420  -0.418  -0.415  -0.413  -0.398
 -0.396  -0.385  -0.381  -0.372  -0.364  -0.358  -0.356  -0.349
 -0.344  -0.342  -0.339  -0.335  -0.331  -0.328  -0.322  -0.313
 -0.307  -0.305  -0.305  -0.298  -0.296  -0.287  -0.285  -0.273
 -0.268  -0.252  -0.243  -0.239  -0.237  -0.234  -0.231  -0.184
 -0.177  -0.171  -0.164  -0.153  -0.152  -0.149  -0.146  -0.145
 -0.136
 -- Virtual --
  0.100   0.104   0.110   0.120   0.223   0.246   0.260   0.260
  0.262   0.296   0.300   0.312   0.321   0.326   0.339   0.344
  0.353   0.358   0.359   0.365   0.367   0.369   0.377   0.382
  0.384   0.387   0.400   0.400   0.406   0.408   0.412   0.414
  0.419   0.420   0.421   0.422   0.428   0.432   0.434   0.441
  0.443   0.452   0.454   0.455   0.460   0.461   0.469   0.471
  0.472   0.480   0.489   0.494   0.498   0.516   0.518   0.543
  0.550   0.555   0.556   0.642   0.655   0.658   0.666
 --------------------------------------------------------------
 
          Ground-State Mulliken Net Atomic Charges

     Atom                 Charge (a.u.)
  ----------------------------------------
      1 O                    -0.218427
      2 C                     0.219150
      3 C                    -0.079777
      4 C                    -0.080669
      5 C                     0.224344
      6 O                    -0.176713
      7 C                    -0.044979
      8 C                    -0.040603
      9 O                    -0.189658
     10 C                     0.225537
     11 C                    -0.082037
     12 C                    -0.076560
     13 C                     0.217718
     14 O                    -0.225937
     15 O                    -0.186474
     16 O                    -0.182182
     17 O                    -0.222771
     18 C                    -0.113126
     19 C                     0.029814
     20 C                    -0.143879
     21 C                    -0.144991
     22 C                     0.029827
     23 O                    -0.194909
     24 H                     0.083222
     25 H                     0.088953
     26 H                     0.090462
     27 H                     0.075721
     28 H                     0.073171
     29 H                     0.077015
     30 H                     0.073631
     31 H                     0.086803
     32 O                    -0.216847
     33 C                    -0.116220
     34 C                     0.030442
     35 C                    -0.143577
     36 C                    -0.145462
     37 C                     0.031193
     38 O                    -0.192542
     39 H                     0.086809
     40 H                     0.084006
     41 H                     0.087942
     42 H                     0.086308
     43 H                     0.076807
     44 H                     0.074184
     45 H                     0.076860
     46 H                     0.072521
     47 H                     0.089172
     48 H                     0.091395
     49 H                     0.092965
     50 H                     0.093409
     51 H                     0.088027
     52 H                     0.091951
     53 H                     0.084966
     54 H                     0.102077
     55 H                     0.082406
     56 H                     0.099534
  ----------------------------------------
  Sum of atomic charges =     0.000000

 -----------------------------------------------------------------
                    Cartesian Multipole Moments
 -----------------------------------------------------------------
    Charge (ESU x 10^10)
                 0.0000
    Dipole Moment (Debye)
         X      -1.2616      Y       0.4981      Z      -1.7175
       Tot       2.1885
    Quadrupole Moments (Debye-Ang)
        XX    -146.5649     XY     -14.1726     YY    -155.6002
        XZ      11.7797     YZ       2.3433     ZZ    -164.4164
    Octopole Moments (Debye-Ang^2)
       XXX     -29.7443    XXY     -35.5961    XYY       1.5127
       YYY      32.0175    XXZ     -11.1746    XYZ     -26.8605
       YYZ      -6.6209    XZZ     -15.7500    YZZ       5.4540
       ZZZ      17.7227
    Hexadecapole Moments (Debye-Ang^3)
      XXXX  -17555.1600   XXXY    -187.4223   XXYY   -3404.0381
      XYYY       6.8865   YYYY   -1851.6363   XXXZ     249.7272
      XXYZ      45.7791   XYYZ     -37.6761   YYYZ      25.2279
      XXZZ   -3406.4878   XYZZ     -33.5045   YYZZ    -522.3876
      XZZZ      92.3865   YZZZ      15.0028   ZZZZ   -1397.2394
 -----------------------------------------------------------------
 Calculating analytic gradient of the SCF energy
 Gradient of SCF Energy
            1           2           3           4           5           6
    1  -0.0052693  -0.0181199   0.0009093   0.0050697   0.0052796  -0.0010800
    2   0.0028892   0.0165652  -0.0164216   0.0042412   0.0031450  -0.0033621
    3  -0.0057275  -0.0125061   0.0176510   0.0098528  -0.0133381   0.0160024
            7           8           9          10          11          12
    1  -0.0202095   0.0058388  -0.0022021  -0.0028155  -0.0014203   0.0113187
    2   0.0126734  -0.0065265   0.0222178  -0.0206834   0.0132586   0.0125093
    3   0.0099959  -0.0126847   0.0186014  -0.0110722  -0.0040376   0.0010307
           13          14          15          16          17          18
    1  -0.0086008  -0.0069199   0.0409987   0.0114752   0.0042052   0.0042117
    2  -0.0164177   0.0073735  -0.0144603   0.0165526  -0.0049410  -0.0144949
    3   0.0234828   0.0139964   0.0185423  -0.0489611  -0.0060503   0.0211564
           19          20          21          22          23          24
    1   0.0084202  -0.0075149  -0.0084920  -0.0144365  -0.0006941  -0.0009029
    2   0.0136471   0.0017782   0.0051344   0.0079840  -0.0251346   0.0000613
    3  -0.0217276  -0.0120321   0.0020845   0.0200671  -0.0014273   0.0058947
           25          26          27          28          29          30
    1  -0.0042005   0.0022586   0.0012233   0.0020822   0.0011765  -0.0006753
    2  -0.0009471  -0.0092145   0.0046365  -0.0015178   0.0022832  -0.0007237
    3  -0.0019598   0.0055539  -0.0013127   0.0025663   0.0053196  -0.0029394
           31          32          33          34          35          36
    1   0.0035125  -0.0028891  -0.0242657   0.0060688   0.0116612   0.0081835
    2  -0.0077775   0.0065130  -0.0047722  -0.0230142  -0.0051789   0.0051502
    3  -0.0033524  -0.0046714  -0.0124210   0.0017327  -0.0011091   0.0044706
           37          38          39          40          41          42
    1   0.0016212  -0.0025808   0.0019178   0.0000741  -0.0007280  -0.0038588
    2   0.0208041   0.0068506   0.0007218  -0.0048675  -0.0000296   0.0056356
    3   0.0181138  -0.0248518  -0.0021862  -0.0012243  -0.0018029  -0.0053884
           43          44          45          46          47          48
    1  -0.0004052  -0.0021542  -0.0022446   0.0005745  -0.0040696  -0.0017238
    2  -0.0036332   0.0019003   0.0019550  -0.0017453  -0.0019917  -0.0004627
    3   0.0032391  -0.0005134   0.0044370  -0.0018267  -0.0096517   0.0005083
           49          50          51          52          53          54
    1   0.0014554  -0.0009184  -0.0004288   0.0007775   0.0007874   0.0002522
    2   0.0010329   0.0017701  -0.0015916   0.0004568  -0.0013277  -0.0040490
    3   0.0009449  -0.0014869   0.0006221   0.0016059  -0.0012463   0.0015636
           55          56
    1   0.0002115   0.0082555
    2  -0.0014443  -0.0030105
    3   0.0007122  -0.0022399
 Max gradient component =       4.896E-02
 RMS gradient           =       1.036E-02
 Gradient time:  CPU 29.38 s  wall 0.62 s
 Geometry Optimization Parameters
   NAtoms,    NIC,     NZ,  NCons,   NDum,   NFix, NCnnct, MaxDiis
       56     458       0       9       0       0       0       0

 Cartesian Hessian Update
 Hessian Updated using BFGS Update


** CONSTRAINED OPTIMIZATION IN DELOCALIZED INTERNAL COORDINATES **
   Searching for a Minimum

   Optimization Cycle:   3

                       Coordinates (Angstroms)
     ATOM                X               Y               Z
      1  O        -2.1194502955    0.7182072010    0.7298888362
      2  C        -3.1570973992    1.2951371859    0.3454151078
      3  C        -4.3939874281    0.6480056886   -0.3219550696
      4  C        -4.2452766799   -0.8458350697   -0.7621812000
      5  C        -2.9217657676   -1.5474223763   -0.3503600646
      6  O        -1.8607274310   -0.9928343963   -1.0923462551
      7  C        -0.5802111939   -1.6064290610   -0.7569703264
      8  C         0.3130960358   -0.5859937734    0.0041672663
      9  O         1.6591166260   -1.1558404839    0.0957942672
     10  C         2.5195166232   -0.3559958426    0.8624251792
     11  C         3.9822208187   -0.8443424291    0.6881213065
     12  C         4.6132961520   -0.6322766750   -0.7362554455
     13  C         3.8688342797    0.3386420436   -1.6921228913
     14  O         4.2395202551    0.6306281903   -2.8484742229
     15  O        -3.3818491063    2.6572746258    0.5723344812
     16  O         2.8258095870    1.0593842069   -1.1040600626
     17  O         2.1483801720    0.5723425521    1.6082433358
     18  C         2.2116761581    2.0570309474   -1.9351261190
     19  C         5.0090823172   -0.0451188514    1.5752300836
     20  C         6.2636589143   -0.9479384458    1.8163596234
     21  C         6.8984306300   -0.9572780282    0.3982066832
     22  C         5.9672213384    0.0648867437   -0.3400636652
     23  O         5.5386406839    0.9937223997    0.6993017536
     24  H         4.0049968153   -1.9098433534    0.9905634425
     25  H         4.7315063382   -1.5875263011   -1.2822675403
     26  H         4.5820650205    0.3212020316    2.5300449031
     27  H         6.9322913916   -0.4007076562    2.5054695668
     28  H         6.0524435928   -1.9432749056    2.2432614483
     29  H         7.9317178233   -0.5734212648    0.4565411104
     30  H         6.8962747933   -1.9397372378   -0.1050528996
     31  H         6.4710257070    0.5378293414   -1.2073672333
     32  O        -2.8141088644   -2.4771742658    0.4721066688
     33  C        -2.3040340977    3.3452170501    1.2267473358
     34  C        -5.6068575345    0.5527410037    0.6799695978
     35  C        -6.9309625268    0.4283181609   -0.1428250484
     36  C        -6.8037600201   -1.0282571302   -0.6743017833
     37  C        -5.4649147135   -1.4769647857    0.0087761810
     38  O        -5.4624959442   -0.7668499107    1.2801637683
     39  H        -4.6556052850    1.2801784467   -1.1932303687
     40  H        -4.3599943628   -0.9772822385   -1.8559952551
     41  H        -1.3679809748    3.3037716473    0.6284863680
     42  H        -5.6455149308    1.3901369687    1.4051405077
     43  H        -7.7791621935    0.4840140559    0.5629745624
     44  H        -7.0565964577    1.2041455130   -0.9172923885
     45  H        -7.6407737869   -1.6321684811   -0.2823876852
     46  H        -6.7677969810   -1.1225009946   -1.7732703003
     47  H        -5.3994026947   -2.5802639819    0.0917177362
     48  H        -2.0972635546    2.9201723224    2.2330349952
     49  H        -2.6110213301    4.4029433033    1.3398607990
     50  H         1.4236509455    2.5456774226   -1.3298815568
     51  H         1.7472249343    1.6082287396   -2.8402334288
     52  H         2.9449233960    2.8278817196   -2.2576193067
     53  H         0.3390730051    0.3780625335   -0.5454948968
     54  H        -0.1085987140   -0.4135526714    1.0184170175
     55  H        -0.0835482291   -1.8685352171   -1.7169922393
     56  H        -0.6649842937   -2.5483415399   -0.1729913599
   Point Group: c1    Number of degrees of freedom:   162


   Energy is  -1510.258839834

              Constraints and their Current Values
                                        Value     Constraint
   Dihedral:        1   2   3   4      -10.150      -10.142
   Dihedral:        3   4   5   6      -69.488      -69.468
   Dihedral:        4   5   6   7     -179.985     -180.000
   Dihedral:        5   6   7   8     -110.525     -110.516
   Dihedral:        6   7   8   9     -169.655     -169.657
   Dihedral:        7   8   9  10     -175.209     -175.211
   Dihedral:        8   9  10  11     -168.512     -168.520
   Dihedral:        9  10  11  12       67.816       67.819
   Dihedral:       11  12  13  14      179.173      179.176
 Hessian Updated using BFGS Update

   Using Lagrange Multiplier Algorithm


162 Hessian modes will be used to form the next step
  Hessian Eigenvalues:
    -0.977753   -0.977753   -0.977753   -0.977753   -0.977753   -0.977753
    -0.977753   -0.977683   -0.976041    0.044937    0.045000    0.045000
     0.045007    0.045026    0.045048    0.045351    0.045497    0.045602
     0.048769    0.048876    0.054520    0.058895    0.060007    0.062542
     0.062783    0.066886    0.067081    0.067359    0.067739    0.069872
     0.070672    0.071889    0.073653    0.074180    0.075532    0.076136
     0.076845    0.077609    0.082425    0.082577    0.083223    0.083933
     0.084463    0.084608    0.085611    0.086000    0.086469    0.086750
     0.086941    0.087069    0.088633    0.089001    0.089062    0.089519
     0.089886    0.089959    0.093730    0.093845    0.096592    0.096654
     0.111592    0.111638    0.114592    0.114677    0.115835    0.115873
     0.116844    0.117542    0.117896    0.118891    0.119164    0.122565
     0.122878    0.129675    0.131283    0.131404    0.140002    0.144146
     0.159760    0.160028    0.161589    0.171230    0.172248    0.172582
     0.176003    0.217638    0.222259    0.236696    0.240096    0.241392
     0.248994    0.249869    0.249920    0.249948    0.254114    0.255296
     0.261942    0.267288    0.267332    0.272388    0.280847    0.282390
     0.285559    0.290013    0.295666    0.297682    0.302259    0.309018
     0.310829    0.313995    0.318556    0.321988    0.322185    0.322410
     0.322422    0.322723    0.322940    0.322997    0.323355    0.323453
     0.323658    0.323756    0.324002    0.324207    0.324229    0.324466
     0.324590    0.324698    0.324756    0.324923    0.325058    0.325167
     0.325462    0.326728    0.326792    0.327474    0.331380    0.368335
     0.368592    0.382547    0.387157    0.403082    0.408688    0.461366
     0.489342    0.515050    0.523698    0.532314    0.536501    0.924697
     0.930280    0.944538    1.004284    1.022753    1.022753    1.022753
     1.022753    1.022753    1.022753    1.022753    1.024466    1.027722

 Minimum Search - Taking P-RFO Step
 Searching for Lamda that Maximizes Along the Constraint modes Only
 Value Taken    Lamda =   0.00031876
 Searching for Lamda that Minimizes Along All other modes
 Value Taken    Lamda =  -0.03702093
 Calculated Step too Large.  Step scaled by  0.674588
 Step Taken.  Stepsize is  0.300000

                             Maximum     Tolerance    Cnvgd?
         Gradient            0.036728       0.000300      NO
         Displacement        0.069806       0.001200      NO
         Energy change     -0.038147       0.000001      NO


 New Cartesian Coordinates Obtained by Inverse Iteration

 Displacement from previous Coordinates is:  1.599573
 Adding empirical dispersion correction 
 ----------------------------------------------------------------
 Doing -D3(op) with
 s6 =   1.00000
 s8 =   0.78311
 a1 =   0.30000
 a2 =   4.25000
 n  =  10.00000
 -D3 energy without 3body term =     -0.0663484740 hartrees
 ----------------------------------------------------------------
             Standard Nuclear Orientation (Angstroms)
    I     Atom           X                Y                Z
 ----------------------------------------------------------------
    1      O      -2.2240637822     0.8707457285     0.9031830098
    2      C      -3.2600906742     1.3808310311     0.4287319871
    3      C      -4.4397085860     0.6817930421    -0.3149716441
    4      C      -4.2501994201    -0.8306597696    -0.7362875243
    5      C      -2.9066661154    -1.5290004068    -0.3234666229
    6      O      -1.8402927719    -0.9640463768    -1.0842492900
    7      C      -0.5454741583    -1.5784797694    -0.7432189166
    8      C       0.3664251513    -0.5603262677     0.0158415772
    9      O       1.7126012739    -1.1634884305     0.0921289708
   10      C       2.5810293813    -0.3475617594     0.8666340209
   11      C       4.0456311604    -0.8623593522     0.6770124948
   12      C       4.6682973113    -0.6640139560    -0.7589347933
   13      C       3.9160782557     0.3155909685    -1.7203385599
   14      O       4.2721917836     0.6034392859    -2.8845351684
   15      O      -3.5795575114     2.7534734060     0.5901240548
   16      O       2.8632162513     1.0092611004    -1.0755096212
   17      O       2.2086448210     0.5794533533     1.6163316867
   18      C       2.2527687449     2.0023746000    -1.9581664034
   19      C       5.0852190953    -0.0658894241     1.5642780460
   20      C       6.3368479952    -0.9888295814     1.8005505597
   21      C       6.9645198740    -1.0109360580     0.3672099031
   22      C       6.0409962399     0.0289273456    -0.3751053559
   23      O       5.6249608383     0.9774362788     0.6730915776
   24      H       4.0600032133    -1.9294906003     0.9683813945
   25      H       4.7882509460    -1.6208331134    -1.2996217603
   26      H       4.6555691184     0.3294563573     2.5053344974
   27      H       7.0194085283    -0.4633511097     2.4899566237
   28      H       6.1032964222    -1.9794347447     2.2227060186
   29      H       8.0047897282    -0.6487306764     0.4041518052
   30      H       6.9396915565    -1.9959450781    -0.1268186650
   31      H       6.5328842451     0.5117192220    -1.2427128154
   32      O      -2.7795811247    -2.4649150290     0.4930199328
   33      C      -2.5235616975     3.4550794160     1.3215498040
[...]
     15  O        -3.1472182211    2.5315217798    0.8350834397
     16  O         2.7631274465    0.9784417415   -1.2593486166
     17  O         2.0690961715    0.7168630715    1.5331385018
     18  C         2.1414566885    1.8837137477   -2.2517339804
     19  C         4.9934495117    0.1330240016    1.5534312341
     20  C         6.2429356863   -0.7803247912    1.8538584607
     21  C         6.9090012601   -0.8409328921    0.4284621106
     22  C         5.9846669502    0.1477805329   -0.3893238554
     23  O         5.5376942948    1.1405197098    0.6127208096
     24  H         3.9984632719   -1.7760080271    0.9815340533
     25  H         4.8016315785   -1.5779353491   -1.2182942895
     26  H         4.5276822516    0.6306072977    2.4264613268
     27  H         6.9065325959   -0.2941504368    2.5867535080
     28  H         5.9574929579   -1.7730552196    2.2366495572
     29  H         7.9469350726   -0.4725131804    0.4468882288
     30  H         6.9031215667   -1.8560000099   -0.0003771361
     31  H         6.4742312601    0.6486157899   -1.2475960781
     32  O        -2.8255418032   -2.5061854280    0.5221932923
     33  C        -2.0610742978    2.9259115803    1.7648689170
     34  C        -5.7161308083    0.7435727192    0.5131262335
     35  C        -6.9022760999    0.5474058251   -0.5127062936
     36  C        -6.8222151656   -1.0005760295   -0.7875739422
     37  C        -5.5505466823   -1.3873076417    0.0615870321
     38  O        -5.6770214103   -0.5308657853    1.2654751145
     39  H        -4.3411250342    1.3909943761   -1.1503409773
     40  H        -4.3774062432   -0.9164088035   -1.7827403950
     41  H        -1.0719968368    2.5686224485    1.4121711872
     42  H        -5.8260017368    1.6038051307    1.2019110441
     43  H        -7.8613591011    0.8278925488   -0.0491444191
     44  H        -6.7627418418    1.1490872160   -1.4252682000
     45  H        -7.7138162931   -1.5230405783   -0.4055629449
     46  H        -6.7013794938   -1.2401044138   -1.8561314402
     47  H        -5.4628961325   -2.4520267645    0.3530140379
     48  H        -2.2359665061    2.5269385059    2.7848215768
     49  H        -2.0706168323    4.0308855063    1.7924529048
     50  H         1.3508680900    2.4330027576   -1.7080998286
     51  H         1.6900726069    1.3165615276   -3.0916793809
     52  H         2.8794275485    2.6008791826   -2.6646177695
     53  H         0.3132930465    0.3510064209   -0.6397090453
     54  H        -0.1425672393   -0.3195641006    0.9645219255
     55  H        -0.1228433608   -1.9901195123   -1.6759580614
     56  H        -0.7902662181   -2.5179399720   -0.0666399367
   Point Group: c1    Number of degrees of freedom:   162


   Energy is  -1510.284657007

              Constraints and their Current Values
                                        Value     Constraint
   Dihedral:        1   2   3   4      -10.142      -10.142
   Dihedral:        3   4   5   6      -69.468      -69.468
   Dihedral:        4   5   6   7      180.000     -180.000
   Dihedral:        5   6   7   8     -110.516     -110.516
   Dihedral:        6   7   8   9     -169.657     -169.657
   Dihedral:        7   8   9  10     -175.211     -175.211
   Dihedral:        8   9  10  11     -168.520     -168.520
   Dihedral:        9  10  11  12       67.819       67.819
   Dihedral:       11  12  13  14      179.176      179.176
 Hessian Updated using BFGS Update

153 Hessian modes will be used to form the next step
  Hessian Eigenvalues:
     0.003486    0.009805    0.021677    0.030726    0.044980    0.045024
     0.045037    0.045084    0.045543    0.045707    0.046515    0.047802
     0.049440    0.054681    0.055217    0.060296    0.063869    0.065779
     0.067190    0.067307    0.067613    0.069995    0.070496    0.071855
     0.073182    0.074183    0.076016    0.076160    0.078306    0.078628
     0.082296    0.082678    0.083289    0.083925    0.084284    0.084764
     0.085328    0.085937    0.086413    0.086610    0.087372    0.087953
     0.088983    0.089207    0.089720    0.089864    0.092123    0.093029
     0.093967    0.094729    0.096673    0.096701    0.111586    0.111646
     0.114666    0.114735    0.115841    0.115872    0.117391    0.117813
     0.118511    0.120238    0.122647    0.122769    0.125077    0.130418
     0.131256    0.133140    0.157235    0.158515    0.159949    0.160017
     0.160030    0.160521    0.160558    0.161956    0.171901    0.172767
     0.196781    0.201657    0.212479    0.225499    0.240294    0.240644
     0.246882    0.247692    0.249500    0.249859    0.250172    0.250529
     0.251727    0.255004    0.260804    0.262708    0.267103    0.267210
     0.275133    0.277245    0.282773    0.283756    0.294201    0.296759
     0.299776    0.303312    0.304582    0.309607    0.312031    0.317162
     0.321980    0.322217    0.322420    0.322487    0.322666    0.322676
     0.323011    0.323446    0.323607    0.323763    0.323836    0.324042
     0.324248    0.324496    0.324525    0.324704    0.324826    0.324862
     0.324980    0.325112    0.325300    0.326733    0.326785    0.326928
     0.328774    0.331095    0.345275    0.360558    0.367225    0.368238
     0.382833    0.410385    0.417177    0.446462    0.463989    0.491922
     0.510249    0.521078    0.538900    0.585185    0.611290    0.926342
     0.932198    0.946086    1.010696

 Minimum Search - Taking Simple RFO Step
 Searching for Lamda that Minimizes Along All modes
 Value Taken    Lamda =  -0.00000113
 Step Taken.  Stepsize is  0.005571

                             Maximum     Tolerance    Cnvgd?
         Gradient           0.000102      0.000300     YES
         Displacement       0.001184      0.001200     YES
         Energy change     -0.000000      0.000001     YES

 Final energy is   -1510.28465700709     


 ******************************
 **  OPTIMIZATION CONVERGED  **
 ******************************

                       Coordinates (Angstroms)
     ATOM                X               Y               Z
      1  O        -2.3689319944    0.3361923003    1.2582287741
      2  C        -3.1674591356    1.1132216875    0.6859294324
      3  C        -4.3357012279    0.7134144678   -0.2782363726
      4  C        -4.2753979120   -0.8143850655   -0.6871334747
      5  C        -2.9488722958   -1.5426003904   -0.2632503588
      6  O        -1.8910765747   -1.0074123420   -1.0786593201
      7  C        -0.6018222894   -1.6499330098   -0.7341132247
      8  C         0.2920141545   -0.5759631334   -0.0267027023
      9  O         1.6596145195   -1.1332012343    0.0913890678
     10  C         2.4907504719   -0.2286917470    0.8346358681
     11  C         3.9760043705   -0.7131659496    0.6773203761
     12  C         4.6207824599   -0.5862971914   -0.7657804629
     13  C         3.8874348935    0.3071887025   -1.8309071321
     14  O         4.2844396247    0.5111130998   -2.9993530560
     15  O        -3.1472182211    2.5315217798    0.8350834397
     16  O         2.7631274465    0.9784417415   -1.2593486166
     17  O         2.0690961715    0.7168630715    1.5331385018
     18  C         2.1414566885    1.8837137477   -2.2517339804
     19  C         4.9934495117    0.1330240016    1.5534312341
     20  C         6.2429356863   -0.7803247912    1.8538584607
     21  C         6.9090012601   -0.8409328921    0.4284621106
     22  C         5.9846669502    0.1477805329   -0.3893238554
     23  O         5.5376942948    1.1405197098    0.6127208096
     24  H         3.9984632719   -1.7760080271    0.9815340533
     25  H         4.8016315785   -1.5779353491   -1.2182942895
     26  H         4.5276822516    0.6306072977    2.4264613268
     27  H         6.9065325959   -0.2941504368    2.5867535080
     28  H         5.9574929579   -1.7730552196    2.2366495572
     29  H         7.9469350726   -0.4725131804    0.4468882288
     30  H         6.9031215667   -1.8560000099   -0.0003771361
     31  H         6.4742312601    0.6486157899   -1.2475960781
     32  O        -2.8255418032   -2.5061854280    0.5221932923
     33  C        -2.0610742978    2.9259115803    1.7648689170
     34  C        -5.7161308083    0.7435727192    0.5131262335
     35  C        -6.9022760999    0.5474058251   -0.5127062936
     36  C        -6.8222151656   -1.0005760295   -0.7875739422
     37  C        -5.5505466823   -1.3873076417    0.0615870321
     38  O        -5.6770214103   -0.5308657853    1.2654751145
     39  H        -4.3411250342    1.3909943761   -1.1503409773
     40  H        -4.3774062432   -0.9164088035   -1.7827403950
     41  H        -1.0719968368    2.5686224485    1.4121711872
     42  H        -5.8260017368    1.6038051307    1.2019110441
     43  H        -7.8613591011    0.8278925488   -0.0491444191
     44  H        -6.7627418418    1.1490872160   -1.4252682000
     45  H        -7.7138162931   -1.5230405783   -0.4055629449
     46  H        -6.7013794938   -1.2401044138   -1.8561314402
     47  H        -5.4628961325   -2.4520267645    0.3530140379
     48  H        -2.2359665061    2.5269385059    2.7848215768
     49  H        -2.0706168323    4.0308855063    1.7924529048
     50  H         1.3508680900    2.4330027576   -1.7080998286
     51  H         1.6900726069    1.3165615276   -3.0916793809
     52  H         2.8794275485    2.6008791826   -2.6646177695
     53  H         0.3132930465    0.3510064209   -0.6397090453
     54  H        -0.1425672393   -0.3195641006    0.9645219255
     55  H        -0.1228433608   -1.9901195123   -1.6759580614
     56  H        -0.7902662181   -2.5179399720   -0.0666399367

Z-matrix Print:
$molecule
0 1
O 
C  1 1.435737
O  2 1.248908 1 124.824225
C  1 1.481483 2 109.797251 3 15.227524 0
H  4 1.111531 1 109.875017 2 65.558493 0
H  4 1.112262 1 112.107961 2 -54.367178 0
C  4 1.566137 1 107.753785 2 -175.211015 0
H  7 1.110054 4 110.312156 1 -51.842615 0
H  7 1.111066 4 111.172368 1 70.578583 0
O  7 1.481122 4 107.721344 1 -169.657004 0
C  10 1.438836 7 110.288553 4 -110.516014 0
O  11 1.249251 10 124.794538 7 -6.904622 0
C  2 1.570173 1 107.537701 3 176.252486 0
H  13 1.105750 2 106.751633 1 -53.880418 0
C  11 1.571510 10 107.178351 7 180.000000 0
H  15 1.105065 11 107.611377 10 52.921209 0
C  15 1.582721 11 114.191172 10 -69.468032 0
H  17 1.104405 15 112.855792 11 114.028810 0
C  17 1.566605 15 112.144243 11 -10.150460 0
O  19 1.252576 17 126.746903 15 -10.141989 0
O  19 1.426265 17 109.191434 15 170.385664 0
C  21 1.483156 19 109.899965 17 178.996846 0
H  22 1.105359 21 105.970460 19 177.182048 0
H  22 1.109085 21 111.430874 19 -63.674736 0
H  22 1.109200 21 111.593552 19 57.777727 0
C  13 1.585678 2 116.816167 1 67.819055 0
H  26 1.104908 13 111.559846 2 -111.707589 0
C  26 1.571818 13 118.195053 2 14.364320 0
O  28 1.250785 26 125.283301 13 179.175988 0
O  28 1.428750 26 111.292200 13 5.024101 0
C  30 1.480142 28 110.465500 26 176.182323 0
H  31 1.105571 30 105.934218 28 -174.584396 0
H  31 1.108783 30 111.451557 28 -55.276037 0
H  31 1.109467 30 111.457923 28 66.278335 0
C  15 1.585821 11 112.580609 10 175.717557 0
H  35 1.107357 15 114.077660 11 -28.620524 0
O  35 1.482847 15 104.077569 11 91.743305 0
C  37 1.480457 35 94.983044 15 55.247608 0
H  38 1.107473 37 110.806830 35 179.264559 0
C  35 1.577269 15 107.790136 11 -159.234438 0
H  40 1.101721 35 112.360460 15 48.473258 0
H  40 1.101751 35 110.457889 15 170.142922 0
C  40 1.574233 35 100.842099 15 -71.973805 0
H  43 1.101546 40 111.601091 35 -120.874027 0
H  43 1.101934 40 112.698390 35 116.553931 0
C  13 1.587073 2 112.742658 1 -175.197312 0
H  46 1.107569 13 113.895475 2 23.718859 0
O  46 1.481953 13 104.329448 2 -96.783146 0
C  48 1.479665 46 94.858412 13 -54.627505 0
H  49 1.107764 48 110.784576 46 -179.020791 0
C  46 1.576603 13 107.721093 2 154.307862 0
H  51 1.101599 46 112.514803 13 -49.512704 0
H  51 1.101754 46 110.393325 13 -171.292008 0
C  51 1.574507 46 100.664168 13 70.958603 0
H  54 1.101535 51 111.751885 46 122.290900 0
H  54 1.101952 51 112.675369 46 -115.048560 0
$end

 
 --------------------------------------------------------------
 
                    Orbital Energies (a.u.)
 --------------------------------------------------------------
 
 Alpha MOs
 -- Occupied --
-18.944 -18.943 -18.920 -18.919 -18.888 -18.886 -18.885 -18.874
-18.868 -18.864 -10.107 -10.102 -10.095 -10.095 -10.069 -10.068
-10.063 -10.061 -10.059 -10.059 -10.058 -10.055 -10.042 -10.039
-10.036 -10.033 -10.022 -10.020 -10.019 -10.018  -1.020  -1.017
 -1.003  -0.998  -0.971  -0.969  -0.944  -0.938  -0.931  -0.926
 -0.765  -0.761  -0.726  -0.722  -0.711  -0.704  -0.691  -0.666
 -0.666  -0.612  -0.597  -0.577  -0.545  -0.542  -0.538  -0.536
 -0.513  -0.509  -0.485  -0.478  -0.463  -0.456  -0.455  -0.445
 -0.436  -0.431  -0.423  -0.416  -0.415  -0.413  -0.410  -0.395
 -0.391  -0.381  -0.376  -0.368  -0.361  -0.358  -0.353  -0.345
 -0.342  -0.337  -0.335  -0.332  -0.329  -0.326  -0.320  -0.313
 -0.308  -0.306  -0.305  -0.302  -0.298  -0.291  -0.281  -0.274
 -0.268  -0.259  -0.247  -0.242  -0.240  -0.235  -0.233  -0.186
 -0.182  -0.166  -0.165  -0.161  -0.156  -0.150  -0.146  -0.144
 -0.143
 -- Virtual --
  0.091   0.098   0.112   0.112   0.217   0.239   0.246   0.250
  0.254   0.281   0.282   0.293   0.305   0.314   0.327   0.331
  0.332   0.341   0.343   0.352   0.354   0.362   0.369   0.371
  0.377   0.381   0.391   0.397   0.402   0.406   0.409   0.412
  0.416   0.418   0.419   0.420   0.425   0.427   0.428   0.430
  0.430   0.434   0.438   0.440   0.443   0.448   0.452   0.465
  0.468   0.470   0.486   0.492   0.496   0.506   0.507   0.539
  0.543   0.550   0.555   0.634   0.638   0.651   0.655
 --------------------------------------------------------------
 
          Ground-State Mulliken Net Atomic Charges

     Atom                 Charge (a.u.)
  ----------------------------------------
      1 O                    -0.208271
      2 C                     0.216151
      3 C                    -0.077261
      4 C                    -0.080596
      5 C                     0.218242
      6 O                    -0.182245
      7 C                    -0.053085
      8 C                    -0.050394
      9 O                    -0.180313
     10 C                     0.221256
     11 C                    -0.081034
     12 C                    -0.076837
     13 C                     0.212230
     14 O                    -0.216085
     15 O                    -0.168299
     16 O                    -0.166285
     17 O                    -0.217805
     18 C                    -0.126132
     19 C                     0.023884
     20 C                    -0.143030
     21 C                    -0.144701
     22 C                     0.024810
     23 O                    -0.191390
     24 H                     0.083533
     25 H                     0.086584
     26 H                     0.090059
     27 H                     0.077806
     28 H                     0.073491
     29 H                     0.078166
     30 H                     0.073631
     31 H                     0.085040
     32 O                    -0.215066
     33 C                    -0.129028
     34 C                     0.024874
     35 C                    -0.144195
     36 C                    -0.143284
     37 C                     0.024301
     38 O                    -0.189395
     39 H                     0.087519
     40 H                     0.084275
     41 H                     0.095047
     42 H                     0.084617
     43 H                     0.078579
     44 H                     0.073732
     45 H                     0.078497
     46 H                     0.073343
     47 H                     0.090970
     48 H                     0.092185
     49 H                     0.092391
     50 H                     0.092131
     51 H                     0.089119
     52 H                     0.094349
     53 H                     0.080067
     54 H                     0.098973
     55 H                     0.083194
     56 H                     0.101684
  ----------------------------------------
  Sum of atomic charges =    -0.000000

 -----------------------------------------------------------------
                    Cartesian Multipole Moments
 -----------------------------------------------------------------
    Charge (ESU x 10^10)
                -0.0000
    Dipole Moment (Debye)
         X      -0.8693      Y       0.6541      Z      -1.6909
       Tot       2.0106
    Quadrupole Moments (Debye-Ang)
        XX    -147.3118     XY     -13.9522     YY    -158.1192
        XZ      12.8460     YZ       2.3162     ZZ    -163.3565
    Octopole Moments (Debye-Ang^2)
       XXX     -18.4446    XXY     -33.6426    XYY       3.5911
       YYY      18.1647    XXZ     -17.4069    XYZ     -26.4976
       YYZ      -6.8154    XZZ     -11.2442    YZZ      10.0878
       ZZZ      14.4431
    Hexadecapole Moments (Debye-Ang^3)
      XXXX  -17579.9842   XXXY    -290.6799   XXYY   -3378.4692
      XYYY     -53.2088   YYYY   -1694.6679   XXXZ     372.1520
      XXYZ      18.6945   XYYZ     -27.5069   YYYZ     -19.2626
      XXZZ   -3462.9568   XYZZ     -45.4810   YYZZ    -511.6280
      XZZZ     145.7541   YZZZ     -25.8634   ZZZZ   -1610.9878
 -----------------------------------------------------------------
Archival summary:
1\1\vega02.cac.cornell.edu\OPT\ProcedureUnspecified\STO-3G\102026\jj585\MonJan1503:44:242018MonJan1503:44:242018\0\\#,OPT,ProcedureUnspecified,STO-3G,\\0,1\O\C,1,1.43574\O,2,1.24891,1,124.824\C,1,1.48148,2,109.797,3,15.2275,0\H,4,1.11153,1,109.875,2,65.5585,0\H,4,1.11226,1,112.108,2,-54.3672,0\C,4,1.56614,1,107.754,2,-175.211,0\H,7,1.11005,4,110.312,1,-51.8426,0\H,7,1.11107,4,111.172,1,70.5786,0\O,7,1.48112,4,107.721,1,-169.657,0\C,10,1.43884,7,110.289,4,-110.516,0\O,11,1.24925,10,124.795,7,-6.90462,0\C,2,1.57017,1,107.538,3,176.252,0\H,13,1.10575,2,106.752,1,-53.8804,0\C,11,1.57151,10,107.178,7,180,0\H,15,1.10507,11,107.611,10,52.9212,0\C,15,1.58272,11,114.191,10,-69.468,0\H,17,1.1044,15,112.856,11,114.029,0\C,17,1.5666,15,112.144,11,-10.1505,0\O,19,1.25258,17,126.747,15,-10.142,0\O,19,1.42626,17,109.191,15,170.386,0\C,21,1.48316,19,109.9,17,178.997,0\H,22,1.10536,21,105.97,19,177.182,0\H,22,1.10909,21,111.431,19,-63.6747,0\H,22,1.1092,21,111.594,19,57.7777,0\C,13,1.58568,2,116.816,1,67.8191,0\H,26,1.10491,13,111.56,2,-111.708,0\C,26,1.57182,13,118.195,2,14.3643,0\O,28,1.25079,26,125.283,13,179.176,0\O,28,1.42875,26,111.292,13,5.0241,0\C,30,1.48014,28,110.466,26,176.182,0\H,31,1.10557,30,105.934,28,-174.584,0\H,31,1.10878,30,111.452,28,-55.276,0\H,31,1.10947,30,111.458,28,66.2783,0\C,15,1.58582,11,112.581,10,175.718,0\H,35,1.10736,15,114.078,11,-28.6205,0\O,35,1.48285,15,104.078,11,91.7433,0\C,37,1.48046,35,94.983,15,55.2476,0\H,38,1.10747,37,110.807,35,179.265,0\C,35,1.57727,15,107.79,11,-159.234,0\H,40,1.10172,35,112.36,15,48.4733,0\H,40,1.10175,35,110.458,15,170.143,0\C,40,1.57423,35,100.842,15,-71.9738,0\H,43,1.10155,40,111.601,35,-120.874,0\H,43,1.10193,40,112.698,35,116.554,0\C,13,1.58707,2,112.743,1,-175.197,0\H,46,1.10757,13,113.895,2,23.7189,0\O,46,1.48195,13,104.329,2,-96.7831,0\C,48,1.47967,46,94.8584,13,-54.6275,0\H,49,1.10776,48,110.785,46,-179.021,0\C,46,1.5766,13,107.721,2,154.308,0\H,51,1.1016,46,112.515,13,-49.5127,0\H,51,1.10175,46,110.393,13,-171.292,0\C,51,1.57451,46,100.664,13,70.9586,0\H,54,1.10153,51,111.752,46,122.291,0\H,54,1.10195,51,112.675,46,-115.049,0\\\@

 Total job time:  47.00s(wall), 2233.97s(cpu) 
 Mon Jan 15 03:44:24 2018

        *************************************************************
        *                                                           *
        *  Thank you very much for using Q-Chem.  Have a nice day.  *
        *                                                           *
        *************************************************************


0 sent ACK to 0 
now end server 0 ... 
