mFile = /opt/software/qchem/qchem-5.0.1//bin/mpi/machines
Process 0 of 1 is on vega02.cac.cornell.edu - thread support 0
initial socket setup ...start
initial socket setup ...done 
now start server 0 ... 
vega02.cac.cornell.edu 10.84.3
Q-Chem Developer Version! Running on 10.84.3.*
                  Welcome to Q-Chem
     A Quantum Leap Into The Future Of Chemistry


 Q-Chem 5.0, Q-Chem, Inc., Pleasanton, CA (2017)

 Yihan Shao,  Zhengting Gan,  E. Epifanovsky,  A. T. B. Gilbert,  M. Wormit,  
 J. Kussmann,  A. W. Lange,  A. Behn,  Jia Deng,  Xintian Feng,  D. Ghosh,  
 M. Goldey,  P. R. Horn,  L. D. Jacobson,  I. Kaliman,  T. Kus,  A. Landau,  
 Jie Liu,  E. I. Proynov,  R. M. Richard,  R. P. Steele,  E. J. Sundstrom,  
 H. L. Woodcock III,  P. M. Zimmerman,  D. Zuev,  B. Albrecht,  E. Alguire,  
 S. A. Baeppler,  Z. Benda,  Y. A. Bernard,  E. J. Berquist,  K. B. Bravaya,  
 D. Casanova,  Chun-Min Chang,  Yunqing Chen,  A. Chien,  K. D. Closser,  
 M. P. Coons,  S. Dasgupta,  M. Diedenhofen,  Hainam Do,  R. G. Edgar,  
 Po-Tung Fang,  S. Fatehi,  Qingguo Feng,  Qinghui Ge,  A. Ghysels,  
 J. Gomes,  J. Gonthier,  A. Gunina,  M. W. D. Hanson-Heine,  
 P. H. P. Harbach,  A. W. Hauser,  J. E. Herr,  E. G. Hohenstein,  
 Z. C. Holden,  Kerwin Hui,  T.-C. Jagau,  Hyunjun Ji,  B. Kaduk,  
 K. Khistyaev,  Jaehoon Kim,  P. Klunzinger,  K. Koh,  D. Kosenkov,  
 T. Kowalczyk,  C. M. Krauter,  A. Kunitsa,  Ka Un Lao,  A. Laurent,  
 K. V. Lawler,  Joonho Lee,  D. Lefrancois,  S. Lehtola,  D. S. Levine,  
 Yi-Pei Li,  You-Sheng Lin,  Fenglai Liu,  E. Livshits,  A. Luenser,  
 P. Manohar,  E. Mansoor,  S. F. Manzer,  Shan-Ping Mao,  Yuezhi Mao,  
 N. Mardirossian,  A. V. Marenich,  L. A. Martinez-Martinez,  S. A. Maurer,  
 N. J. Mayhall,  S. C. McKenzie,  J.-M. Mewes,  A. F. Morrison,  K. Nanda,  
 T. S. Nguyen-Beck,  R. Olivares-Amaya,  J. A. Parkhill,  T. M. Perrine,  
 F. Plasser,  S. Prager,  A. Prociuk,  D. R. Rehn,  F. Rob,  M. Schneider,  
 N. Sergueev,  S. M. Sharada,  S. Sharma,  D. W. Small,  T. Stauch,  
 T. Stein,  Yu-Chuan Su,  A. J. W. Thom,  T. Tsuchimochi,  L. Vogt,  
 O. Vydrov,  M. A. Watson,  J. Wenzel,  M. de Wergifosse,  T. A. Wesolowski,  
 A. White,  J. Witte,  A. Yamada,  Jun Yang,  K. Yao,  S. Yeganeh,  
 S. R. Yost,  Zhi-Qiang You,  A. Zech,  Igor Ying Zhang,  Xing Zhang,  
 Yan Zhao,  Ying Zhu,  B. R. Brooks,  G. K. L. Chan,  C. J. Cramer,  
 M. S. Gordon,  W. J. Hehre,  A. Klamt,  M. W. Schmidt,  C. D. Sherrill,  
 D. G. Truhlar,  A. Aspuru-Guzik,  R. Baer,  A. T. Bell,  N. A. Besley,  
 Jeng-Da Chai,  A. Dreuw,  B. D. Dunietz,  T. R. Furlani,  Chao-Ping Hsu,  
 Yousung Jung,  Jing Kong,  D. S. Lambrecht,  WanZhen Liang,  C. Ochsenfeld,  
 V. A. Rassolov,  L. V. Slipchenko,  J. E. Subotnik,  T. Van Voorhis,  
 J. M. Herbert,  A. I. Krylov,  P. M. W. Gill,  M. Head-Gordon

 Contributors to earlier versions of Q-Chem not listed above: 
 R. D. Adamson,  B. Austin,  J. Baker,  G. J. O. Beran,  K. Brandhorst,  
 S. T. Brown,  E. F. C. Byrd,  A. K. Chakraborty,  C.-L. Cheng,  
 Siu Hung Chien,  D. M. Chipman,  D. L. Crittenden,  H. Dachsel,  
 R. A. DiStasio Jr.,  R. J. Doerksen,  A. D. Dutoi,  L. Fusti-Molnar,  
 W. A. Goddard III,  A. Golubeva-Zadorozhnaya,  S. R. Gwaltney,  G. Hawkins,  
 A. Heyden,  S. Hirata,  G. Kedziora,  F. J. Keil,  C. Kelley,  Jihan Kim,  
 R. A. King,  R. Z. Khaliullin,  P. P. Korambath,  W. Kurlancheek,  
 A. M. Lee,  M. S. Lee,  S. V. Levchenko,  Ching Yeh Lin,  D. Liotard,  
 R. C. Lochan,  I. Lotan,  P. E. Maslen,  N. Nair,  D. P. O'Neill,  
 D. Neuhauser,  E. Neuscamman,  C. M. Oana,  R. Olson,  B. Peters,  
 R. Peverati,  P. A. Pieniazek,  Y. M. Rhee,  J. Ritchie,  M. A. Rohrdanz,  
 E. Rosta,  N. J. Russ,  H. F. Schaefer III,  N. E. Schultz,  N. Shenvi,  
 A. C. Simmonett,  A. Sodt,  D. Stuck,  K. S. Thanthiriwatte,  V. Vanovschi,  
 Tao Wang,  A. Warshel,  C. F. Williams,  Q. Wu,  X. Xu,  W. Zhang

 Please cite Q-Chem as follows:
 Y. Shao et al., Mol. Phys. 113, 184-215 (2015)
 DOI: 10.1080/00268976.2014.952696

 Q-Chem 5.0.1 for Intel X86 EM64T Linux

 Parts of Q-Chem use Armadillo 5.200.1 (Boston Tea Smuggler).
 http://arma.sourceforge.net/

 Q-Chem begins on Mon Jan 15 04:09:34 2018  

Host: vega02.cac.cornell.edu
0

     Scratch files written to /scratch/jj585/SOT1001/0664c.save//
 Parallel job on  1  processors

Checking the input file for inconsistencies... 	...done.

--------------------------------------------------------------
User input:
--------------------------------------------------------------
$molecule
0  1
O -3.94934 -3.66094 2.70899
C -3.26408 -4.56952 2.26188
C -3.36658 -6.02376 2.66595
C -4.12635 -6.3403 3.96457
C -4.85081 -5.18581 4.62059
O -3.95742 -4.3949 5.28522
C -4.56363 -3.25085 5.89589
C -4.33399 -2.0124 5.03587
O -4.88742 -0.85662 5.68453
C -5.04879 0.23396 4.89477
C -5.45697 1.46523 5.66811
C -4.36312 2.05526 6.57012
C -2.95337 1.56607 6.30552
O -1.95264 1.92894 6.90671
O -2.43211 -4.3038 1.2209
O -2.67418 0.76998 5.23811
O -4.93486 0.21618 3.67386
C -1.41779 0.33289 4.86246
C -5.76036 2.70239 4.789
C -6.68173 3.65694 5.54797
C -5.73536 4.18078 6.60934
C -4.42474 3.53069 6.15171
O -4.55654 3.42995 4.75446
H -6.38748 1.20419 6.22153
H -4.57272 1.8635 7.6451
H -6.2094 2.44997 3.80384
H -6.92523 4.48926 4.84883
H -7.62752 3.21711 5.9311
H -5.68689 5.28874 6.52068
H -5.9842 3.88983 7.65305
H -3.54984 4.11187 6.51846
O -6.06964 -5.04421 4.62554
C -2.24453 -3.04947 0.67876
C -4.15831 -6.8435 1.63757
C -3.79028 -8.32169 1.75438
C -4.48386 -8.68101 3.05066
C -5.15366 -7.34529 3.38966
O -5.4739 -6.80624 2.12963
H -2.31708 -6.38649 2.74703
H -3.50847 -6.84088 4.74372
H -1.84647 -2.35537 1.44993
H -4.01412 -6.49079 0.59265
H -4.29105 -8.86574 0.9219
H -2.69812 -8.52544 1.72667
H -5.26469 -9.4429 2.82985
H -3.8191 -9.04718 3.86255
H -6.01004 -7.52307 4.07702
H -3.2044 -2.65688 0.2801
H -1.51359 -3.11795 -0.15278
H -1.50714 -0.29276 3.95078
H -0.96755 -0.27805 5.67371
H -0.76251 1.20025 4.63381
H -3.25711 -1.8648 4.81099
H -4.9176 -2.18311 4.11229
H -4.0662 -3.09567 6.87651
H -5.6478 -3.35591 6.12723
$end

$opt
CONSTRAINT
tors           1           2           3           4     -16.010
tors           3           4           5           6     -77.451
tors           4           5           6           7    +177.961
tors           5           6           7           8    -100.598
tors           6           7           8           9    -177.208
tors           7           8           9          10    -164.253
tors           8           9          10          11    -172.288
tors           9          10          11          12     +70.261
tors          11          12          13          14    +179.176
ENDCONSTRAINT
$end

$rem
JOBTYPE                   OPT
METHOD                    B3LYP
DFT_D                     d3_op
BASIS                     STO-3G
GEOM_OPT_MAX_CYCLES       100
GEOM_OPT_TOL_GRADIENT     300
GEOM_OPT_TOL_DISPLACEMENT 1200
GEOM_OPT_TOL_ENERGY       100
SYMMETRY                  False
THRESH                    12
SCF_CONVERGENCE           8
MAX_SUB_FILE_NUM          128
MEM_STATIC                400
MEM_TOTAL                 4000
$end
--------------------------------------------------------------
 Adding empirical dispersion correction 
 ----------------------------------------------------------------
 Doing -D3(op) with
 s6 =   1.00000
 s8 =   0.78311
 a1 =   0.30000
 a2 =   4.25000
 n  =  10.00000
 -D3 energy without 3body term =     -0.0676756967 hartrees
 ----------------------------------------------------------------
             Standard Nuclear Orientation (Angstroms)
    I     Atom           X                Y                Z
 ----------------------------------------------------------------
    1      O      -2.0688553665     0.6981152324     0.6556239573
    2      C      -3.1003910851     1.2927839496     0.3775782519
    3      C      -4.3403027343     0.6633628124    -0.2182748563
    4      C      -4.1884983288    -0.7334591881    -0.8425389434
    5      C      -2.8553166550    -1.4198204225    -0.6435751965
    6      O      -1.9291262754    -0.8906787557    -1.4965686515
    7      C      -0.6253106750    -1.4592806471    -1.3352751775
    8      C       0.2579356506    -0.5246835497    -0.5151949824
    9      O       1.5829728547    -1.0691309842    -0.4116316318
   10      C       2.3651184691    -0.5207358228     0.5509881559
   11      C       3.7959173116    -1.0001543161     0.4904566630
   12      C       4.6007959093    -0.4852948579    -0.7117727015
   13      C       3.9951866644     0.6852242973    -1.4599955483
   14      O       4.4918202576     1.2401317600    -2.4295301623
   15      O      -3.2198555320     2.5944808353     0.7487035992
   16      O       2.8859448527     1.3199078967    -0.9932731640
   17      O       1.9487645414     0.2391992223     1.4187816426
   18      C       2.2999329619     2.4398385790    -1.5527566344
   19      C       4.6935341788    -0.4840932369     1.6408521046
   20      C       5.8790377608    -1.4301440462     1.8297779192
   21      C       6.6789080974    -1.1364306835     0.5765936930
   22      C       5.8628030362     0.0247351689    -0.0025724331
   23      O       5.3210193553     0.6655953329     1.1268504476
   24      H       3.7661323494    -2.1116097977     0.5540491664
   25      H       4.7757642166    -1.2885872821    -1.4603670047
   26      H       4.1545978930    -0.3591647798     2.6051308838
   27      H       6.4496967883    -1.0553352318     2.7099552871
   28      H       5.6257756936    -2.5000183290     1.9909768466
   29      H       7.6956810962    -0.8014067101     0.8794416819
   30      H       6.7515936977    -1.9762012355    -0.1482552814
   31      H       6.4951297949     0.6562261458    -0.6652245146
   32      O      -2.6700846861    -2.3713554642     0.1086826139
   33      C      -2.2170637154     3.3237574186     1.3528641925
   34      C      -5.4155509540     0.4098502903     0.8475338282
   35      C      -6.7902286120     0.3117423945     0.1881610122
   36      C      -6.6823265031    -1.0400945710    -0.4837019729
   37      C      -5.2825854147    -1.4674927482    -0.0300979145
   38      O      -5.1674559196    -0.9110111009     1.2574880191
   39      H      -4.6998438911     1.3819815434    -0.9889333703
   40      H      -4.4349494400    -0.7771581515    -1.9273352394
   41      H      -1.3277095831     3.3742004597     0.6884588422
   42      H      -5.4259690260     1.1798889752     1.6500204599
   43      H      -7.5533668584     0.2459203476     0.9962893565
   44      H      -7.0364044929     1.1600511162    -0.4862758793
   45      H      -7.4421284231    -1.7165966028    -0.0320661013
   46      H      -6.7930355882    -1.0341207567    -1.5895317567
   47      H      -5.1933642114    -2.5744919551    -0.0937260160
   48      H      -1.9356723133     2.8587643497     2.3218881578
   49      H      -2.5806028180     4.3542959373     1.5432617969
   50      H       1.4172371882     2.7303571431    -0.9469275312
   51      H       1.9663787074     2.2189936669    -2.5891249993
   52      H       3.0191949801     3.2863661214    -1.5590287703
   53      H       0.2807652404     0.4982964420    -0.9453322342
   54      H      -0.1783424431    -0.5236761561     0.5008773392
   55      H      -0.1817461213    -1.5644822763    -2.3478541253
   56      H      -0.6055372684    -2.4821897059    -0.8956771137
 ----------------------------------------------------------------
 Molecular Point Group                 C1    NOp =  1
 Largest Abelian Subgroup              C1    NOp =  1
 Nuclear Repulsion Energy =  3164.2342083909 hartrees
 There are      113 alpha and      113 beta electrons
 Requested basis set is STO-3G
 There are 86 shells and 176 basis functions

 Total QAlloc Memory Limit   4000 MB
 Mega-Array Size       392 MB
 MEM_STATIC part       400 MB
 A cutoff of  1.0D-12 yielded   2127 shell pairs
 There are     10011 function pairs
 
 -------------------------------------------------------
 OpenMP Integral Computing Module                       
 Release: version 1.0, May 2013, Q-Chem Inc. Pittsburgh 
 -------------------------------------------------------
 Integral Job Info:
 Integral job number is                      11
 Integral operator is                         1
 short-range coefficients                     0
 long-range coefficients              100000000
 Omega coefficients                           0
 if combine SR and LR in K                    0
 Integral screening is                        0
 Integral computing path is                   2
 max size of driver memory is            800000
 size of driver memory is                 45569
 size of scratch memory is              1046100
 max col of scratch BK array                289
 max len of scratch array in speh3           22
 max len of scratch index in speh4            8
 max int batch size is                      520
 min int batch size is                       52
 fixed nKL is                                52
 max L of basis functions is                  1
 order of int derivative is                   0
 number of shells is                         86
 number of basis is                         176
 number of cartesian basis is               176
 number of contracted shell pairs          2127
 number of primitive shell pairs          11024
 maxK2 (contraction) of shell pair            9
 max number of K2 of shell pair               1
 max number of CS2 of shell pair            302
 max number of PS2 of shell pair           1230
 mem total for path MDJ                   50922
 -------------------------------------------------------
 Smallest overlap matrix eigenvalue = 1.93E-01

 Scale SEOQF with 1.000000e-02/1.000000e-01/1.000000e-01

 Standard Electronic Orientation quadrupole field applied
 Nucleus-field energy     =     0.0000000160 hartrees
 Guess from superposition of atomic densities
 Warning:  Energy on first SCF cycle will be non-variational
 A restricted hybrid HF-DFT SCF calculation will be
 performed using Pulay DIIS extrapolation
 Exchange:     0.2000 Hartree-Fock + 0.0800 Slater + 0.7200 B88
 Correlation:  0.1900 VWN1RPA + 0.8100 LYP
 Using SG-1 standard quadrature grid
 Dispersion:   Grimme D3
 SCF converges when DIIS error is below 1.0E-08
 using 48 threads for integral computing
 -------------------------------------------------------
 OpenMP Integral computing Module                
 Release: version 1.0, May 2013, Q-Chem Inc. Pittsburgh 
 -------------------------------------------------------
 -------------------------------------------------------
 OpenMP BLAS3 based DFT computing Module                
 Release: version 1.0, May 2013, Q-Chem Inc. Pittsburgh 
 -------------------------------------------------------
 ---------------------------------------
  Cycle       Energy         DIIS Error
 ---------------------------------------
    1   -1509.4658483758      8.30E-02
    2   -1509.5967745846      1.05E-02
    3   -1507.4961965757      2.58E-02
    4   -1510.0974123850      3.46E-03
    5   -1510.1441488899      1.24E-03
    6   -1510.1505916218      3.39E-04
    7   -1510.1510413462      1.22E-04
    8   -1510.1511038797      2.71E-05
    9   -1510.1511070222      7.06E-06
   10   -1510.1511072030      3.30E-06
   11   -1510.1511072503      7.77E-07
   12   -1510.1511072528      1.59E-07
   13   -1510.1511072529      4.78E-08
   14   -1510.1511072529      1.70E-08
   15   -1510.1511072528      9.56E-09 Convergence criterion met
 ---------------------------------------
 SCF time:  CPU 110.03 s  wall 2.35 s
 SCF   energy in the final basis set = -1510.15110725
 Total energy in the final basis set = -1510.15110725
 
 --------------------------------------------------------------
 
                    Orbital Energies (a.u.)
 --------------------------------------------------------------
 
 Alpha MOs
 -- Occupied --
-18.943 -18.937 -18.927 -18.926 -18.900 -18.896 -18.864 -18.861
-18.848 -18.842 -10.117 -10.109 -10.107 -10.099 -10.085 -10.082
-10.074 -10.072 -10.069 -10.066 -10.065 -10.062 -10.046 -10.045
-10.037 -10.031 -10.017 -10.016 -10.016 -10.013  -1.050  -1.045
 -1.039  -1.027  -1.025  -1.022  -0.953  -0.948  -0.938  -0.933
 -0.785  -0.782  -0.746  -0.742  -0.732  -0.722  -0.712  -0.684
 -0.679  -0.630  -0.607  -0.588  -0.555  -0.550  -0.538  -0.535
 -0.528  -0.518  -0.501  -0.495  -0.487  -0.472  -0.467  -0.459
 -0.453  -0.446  -0.435  -0.432  -0.427  -0.424  -0.421  -0.408
 -0.405  -0.396  -0.394  -0.382  -0.374  -0.366  -0.363  -0.359
 -0.351  -0.347  -0.344  -0.336  -0.333  -0.329  -0.323  -0.315
 -0.311  -0.309  -0.306  -0.300  -0.299  -0.289  -0.289  -0.276
 -0.273  -0.247  -0.237  -0.236  -0.231  -0.225  -0.216  -0.182
 -0.173  -0.169  -0.163  -0.155  -0.152  -0.151  -0.145  -0.135
 -0.129
 -- Virtual --
  0.109   0.117   0.119   0.134   0.230   0.250   0.265   0.271
  0.273   0.320   0.325   0.339   0.340   0.342   0.352   0.358
  0.365   0.376   0.379   0.388   0.391   0.394   0.398   0.401
  0.403   0.408   0.408   0.409   0.415   0.419   0.422   0.425
  0.428   0.434   0.436   0.441   0.448   0.453   0.455   0.461
  0.463   0.468   0.471   0.475   0.478   0.482   0.488   0.492
  0.496   0.501   0.509   0.512   0.535   0.545   0.547   0.558
  0.567   0.578   0.588   0.684   0.690   0.694   0.705
 --------------------------------------------------------------
 
          Ground-State Mulliken Net Atomic Charges

     Atom                 Charge (a.u.)
  ----------------------------------------
      1 O                    -0.233982
      2 C                     0.240445
      3 C                    -0.081209
      4 C                    -0.083454
      5 C                     0.240623
      6 O                    -0.186743
      7 C                    -0.038444
      8 C                    -0.037068
      9 O                    -0.202950
     10 C                     0.241325
     11 C                    -0.084331
     12 C                    -0.077898
     13 C                     0.237692
     14 O                    -0.242016
     15 O                    -0.213368
     16 O                    -0.212176
     17 O                    -0.235466
     18 C                    -0.094341
     19 C                     0.040417
     20 C                    -0.142168
     21 C                    -0.143524
     22 C                     0.040016
     23 O                    -0.211302
     24 H                     0.083175
     25 H                     0.092843
     26 H                     0.091674
     27 H                     0.075117
     28 H                     0.072031
     29 H                     0.076487
     30 H                     0.072186
     31 H                     0.088769
     32 O                    -0.227030
     33 C                    -0.097659
     34 C                     0.040019
     35 C                    -0.141735
     36 C                    -0.144458
     37 C                     0.041899
     38 O                    -0.207824
     39 H                     0.087580
     40 H                     0.085002
     41 H                     0.086232
     42 H                     0.086743
     43 H                     0.075688
     44 H                     0.072616
     45 H                     0.075963
     46 H                     0.071115
     47 H                     0.088946
     48 H                     0.091287
     49 H                     0.095192
     50 H                     0.094622
     51 H                     0.085698
     52 H                     0.090331
     53 H                     0.085990
     54 H                     0.108877
     55 H                     0.083337
     56 H                     0.099210
  ----------------------------------------
  Sum of atomic charges =    -0.000000

 -----------------------------------------------------------------
                    Cartesian Multipole Moments
 -----------------------------------------------------------------
    Charge (ESU x 10^10)
                -0.0000
    Dipole Moment (Debye)
         X      -1.6700      Y       0.5422      Z      -1.7476
       Tot       2.4773
    Quadrupole Moments (Debye-Ang)
        XX    -146.8281     XY     -15.5871     YY    -154.5112
        XZ       9.3912     YZ       3.8547     ZZ    -163.9753
    Octopole Moments (Debye-Ang^2)
       XXX     -50.5077    XXY     -39.5498    XYY       4.5433
       YYY      39.9736    XXZ      -0.5389    XYZ     -18.2609
       YYZ      -1.0522    XZZ     -20.5709    YZZ       0.0581
       ZZZ      13.2958
    Hexadecapole Moments (Debye-Ang^3)
      XXXX  -16735.1223   XXXY    -170.4894   XXYY   -3267.7097
      XYYY      36.1253   YYYY   -1939.2902   XXXZ     181.1478
      XXYZ      69.2001   XYYZ     -27.1000   YYYZ      32.8728
      XXZZ   -3243.7517   XYZZ     -56.5930   YYZZ    -544.3585
      XZZZ      27.6765   YZZZ      32.2296   ZZZZ   -1316.5877
 -----------------------------------------------------------------
 Calculating analytic gradient of the SCF energy
 Gradient of SCF Energy
            1           2           3           4           5           6
    1  -0.0561668  -0.0236855   0.0097107   0.0189381   0.0147661  -0.0087691
    2   0.0441272   0.0124202  -0.0494312  -0.0002538   0.0036918  -0.0298537
    3  -0.0096830  -0.0145547   0.0464368   0.0317537  -0.0183555   0.0398795
            7           8           9          10          11          12
    1  -0.0334759   0.0087360  -0.0061784  -0.0078548  -0.0035371   0.0162565
    2   0.0303653  -0.0156427   0.0504604  -0.0238882   0.0473225   0.0364688
    3   0.0289260  -0.0333371   0.0636058  -0.0268485   0.0010339   0.0235197
           13          14          15          16          17          18
    1   0.0029468  -0.0546681   0.1135595   0.0475559   0.0223490   0.0010599
    2  -0.0339873  -0.0113406  -0.0358737   0.0690466  -0.0335232  -0.0377796
    3   0.0252464   0.0688340   0.0361312  -0.1122095  -0.0403371   0.0372294
           19          20          21          22          23          24
    1   0.0423831  -0.0122792  -0.0388758  -0.0482660  -0.0020476  -0.0027657
    2   0.0291939   0.0317242   0.0229190  -0.0074088  -0.0825976  -0.0051576
    3  -0.0528357  -0.0391137   0.0169035   0.0531587  -0.0270001   0.0086398
           25          26          27          28          29          30
    1  -0.0033543   0.0020014   0.0057279   0.0002417   0.0055422  -0.0023127
    2  -0.0049656  -0.0132788   0.0090632  -0.0082612   0.0031243  -0.0042347
    3  -0.0038624   0.0068155   0.0038587   0.0015649   0.0117180  -0.0077360
           31          32          33          34          35          36
    1   0.0072555  -0.0128785  -0.0544112   0.0134999   0.0420590   0.0324588
    2  -0.0079644   0.0369071  -0.0086580  -0.0649328  -0.0328011   0.0232570
    3  -0.0065366  -0.0292129  -0.0231374  -0.0209910  -0.0019050   0.0279337
           37          38          39          40          41          42
    1   0.0009079  -0.0177500   0.0026713  -0.0026781  -0.0069452  -0.0073062
    2   0.0627341   0.0361681   0.0037385  -0.0088092  -0.0025492   0.0095678
    3   0.0386735  -0.0763740  -0.0047677  -0.0057767  -0.0051470  -0.0042915
           43          44          45          46          47          48
    1  -0.0039743  -0.0020559  -0.0069515   0.0011537  -0.0080551  -0.0081340
    2  -0.0077814   0.0059609  -0.0004643  -0.0003918  -0.0041168  -0.0029503
    3   0.0079156  -0.0054000   0.0106905  -0.0082936  -0.0120856  -0.0025056
           49          50          51          52          53          54
    1   0.0028801  -0.0013187   0.0012257   0.0021465   0.0027514   0.0043468
    2   0.0016649   0.0038663  -0.0076366  -0.0058106  -0.0009462  -0.0155799
    3   0.0016896  -0.0026456   0.0047625   0.0060091  -0.0024330  -0.0045448
           55          56
    1   0.0025848   0.0089794
    2  -0.0011660  -0.0037553
    3   0.0034957  -0.0045044
 Max gradient component =       1.136E-01
 RMS gradient           =       2.863E-02
 Gradient time:  CPU 34.89 s  wall 0.75 s
 Geometry Optimization Parameters
   NAtoms,    NIC,     NZ,  NCons,   NDum,   NFix, NCnnct, MaxDiis
       56     458       0       9       0       0       0       0


** CONSTRAINED OPTIMIZATION IN DELOCALIZED INTERNAL COORDINATES **
   Searching for a Minimum

   Optimization Cycle:   1

                       Coordinates (Angstroms)
     ATOM                X               Y               Z
      1  O        -2.0688553665    0.6981152324    0.6556239573
      2  C        -3.1003910851    1.2927839496    0.3775782519
      3  C        -4.3403027343    0.6633628124   -0.2182748563
      4  C        -4.1884983288   -0.7334591881   -0.8425389434
      5  C        -2.8553166550   -1.4198204225   -0.6435751965
      6  O        -1.9291262754   -0.8906787557   -1.4965686515
      7  C        -0.6253106750   -1.4592806471   -1.3352751775
      8  C         0.2579356506   -0.5246835497   -0.5151949824
      9  O         1.5829728547   -1.0691309842   -0.4116316318
     10  C         2.3651184691   -0.5207358228    0.5509881559
     11  C         3.7959173116   -1.0001543161    0.4904566630
     12  C         4.6007959093   -0.4852948579   -0.7117727015
     13  C         3.9951866644    0.6852242973   -1.4599955483
     14  O         4.4918202576    1.2401317600   -2.4295301623
     15  O        -3.2198555320    2.5944808353    0.7487035992
     16  O         2.8859448527    1.3199078967   -0.9932731640
     17  O         1.9487645414    0.2391992223    1.4187816426
     18  C         2.2999329619    2.4398385790   -1.5527566344
     19  C         4.6935341788   -0.4840932369    1.6408521046
     20  C         5.8790377608   -1.4301440462    1.8297779192
     21  C         6.6789080974   -1.1364306835    0.5765936930
     22  C         5.8628030362    0.0247351689   -0.0025724331
     23  O         5.3210193553    0.6655953329    1.1268504476
     24  H         3.7661323494   -2.1116097977    0.5540491664
     25  H         4.7757642166   -1.2885872821   -1.4603670047
     26  H         4.1545978930   -0.3591647798    2.6051308838
     27  H         6.4496967883   -1.0553352318    2.7099552871
     28  H         5.6257756936   -2.5000183290    1.9909768466
     29  H         7.6956810962   -0.8014067101    0.8794416819
     30  H         6.7515936977   -1.9762012355   -0.1482552814
     31  H         6.4951297949    0.6562261458   -0.6652245146
     32  O        -2.6700846861   -2.3713554642    0.1086826139
     33  C        -2.2170637154    3.3237574186    1.3528641925
     34  C        -5.4155509540    0.4098502903    0.8475338282
     35  C        -6.7902286120    0.3117423945    0.1881610122
     36  C        -6.6823265031   -1.0400945710   -0.4837019729
     37  C        -5.2825854147   -1.4674927482   -0.0300979145
     38  O        -5.1674559196   -0.9110111009    1.2574880191
     39  H        -4.6998438911    1.3819815434   -0.9889333703
     40  H        -4.4349494400   -0.7771581515   -1.9273352394
     41  H        -1.3277095831    3.3742004597    0.6884588422
     42  H        -5.4259690260    1.1798889752    1.6500204599
     43  H        -7.5533668584    0.2459203476    0.9962893565
     44  H        -7.0364044929    1.1600511162   -0.4862758793
     45  H        -7.4421284231   -1.7165966028   -0.0320661013
     46  H        -6.7930355882   -1.0341207567   -1.5895317567
     47  H        -5.1933642114   -2.5744919551   -0.0937260160
     48  H        -1.9356723133    2.8587643497    2.3218881578
     49  H        -2.5806028180    4.3542959373    1.5432617969
     50  H         1.4172371882    2.7303571431   -0.9469275312
     51  H         1.9663787074    2.2189936669   -2.5891249993
     52  H         3.0191949801    3.2863661214   -1.5590287703
     53  H         0.2807652404    0.4982964420   -0.9453322342
     54  H        -0.1783424431   -0.5236761561    0.5008773392
     55  H        -0.1817461213   -1.5644822763   -2.3478541253
     56  H        -0.6055372684   -2.4821897059   -0.8956771137
   Point Group: c1    Number of degrees of freedom:   162


   Energy is  -1510.151107253

              Constraints and their Current Values
                                        Value     Constraint
   Dihedral:        1   2   3   4      -16.010      -16.010
   Dihedral:        3   4   5   6      -77.451      -77.451
   Dihedral:        4   5   6   7      177.961      177.961
   Dihedral:        5   6   7   8     -100.598     -100.598
   Dihedral:        6   7   8   9     -177.208     -177.208
   Dihedral:        7   8   9  10     -164.253     -164.253
   Dihedral:        8   9  10  11     -172.288     -172.288
   Dihedral:        9  10  11  12       70.261       70.261
   Dihedral:       11  12  13  14      179.175      179.176

 Attempting to Generate Delocalized Internal Coordinates

   Using Lagrange Multiplier Algorithm


169 Hessian modes will be used to form the next step
  Hessian Eigenvalues:
    -0.977753   -0.977753   -0.977753   -0.977753   -0.977753   -0.977753
    -0.977753   -0.977753    0.045000    0.045000    0.045000    0.045000
     0.045041    0.045102    0.045211    0.045214    0.045552    0.045605
     0.048875    0.048876    0.054476    0.059918    0.060052    0.062589
     0.062663    0.066990    0.067085    0.067191    0.067803    0.070025
     0.071006    0.071922    0.073691    0.074174    0.075551    0.076203
     0.076829    0.077065    0.082436    0.082601    0.083244    0.084023
     0.084344    0.084432    0.085677    0.086291    0.086307    0.086786
     0.086790    0.087057    0.088533    0.088747    0.089017    0.089342
     0.089642    0.089950    0.093847    0.093858    0.096594    0.096649
     0.111567    0.111582    0.114597    0.114662    0.115873    0.115902
     0.116774    0.117489    0.117514    0.118216    0.119132    0.122580
     0.123613    0.130145    0.130949    0.131195    0.139460    0.140709
     0.160000    0.160000    0.160000    0.160000    0.160000    0.160000
     0.171177    0.172126    0.172150    0.172565    0.219670    0.222122
     0.239726    0.240670    0.249039    0.249147    0.249163    0.249647
     0.250000    0.250000    0.250000    0.250000    0.250000    0.250000
     0.250000    0.250000    0.258205    0.258621    0.267022    0.267486
     0.278488    0.279752    0.284620    0.284675    0.295021    0.296015
     0.298745    0.308050    0.310698    0.310876    0.313308    0.321872
     0.322144    0.322277    0.322369    0.322456    0.322534    0.322769
     0.323307    0.323335    0.323462    0.323652    0.324014    0.324194
     0.324199    0.324550    0.324577    0.324655    0.324737    0.324903
     0.325053    0.325103    0.325508    0.326035    0.326726    0.326802
     0.330513    0.368558    0.369212    0.383611    0.384722    0.401015
     0.407712    0.486893    0.492320    0.517917    0.528384    0.531846
     0.537347    0.923318    0.926272    0.941950    0.942737    1.022753
     1.022753    1.022753    1.022753    1.022753    1.022753    1.022753
     1.022753

 Minimum Search - Taking P-RFO Step
 Searching for Lamda that Maximizes Along the Constraint modes Only
 Value Taken    Lamda =   0.00022375
 Searching for Lamda that Minimizes Along All other modes
 Value Taken    Lamda =  -0.17394188
 Calculated Step too Large.  Step scaled by  0.514868
 Step Taken.  Stepsize is  0.300000

                             Maximum     Tolerance    Cnvgd?
         Gradient            0.129570       0.000300      NO
         Displacement        0.116001       0.001200      NO
         Energy change     *********       0.000001      NO


 New Cartesian Coordinates Obtained by Inverse Iteration

 Displacement from previous Coordinates is:  0.935661
 Adding empirical dispersion correction 
 ----------------------------------------------------------------
 Doing -D3(op) with
 s6 =   1.00000
 s8 =   0.78311
 a1 =   0.30000
 a2 =   4.25000
 n  =  10.00000
 -D3 energy without 3body term =     -0.0672930477 hartrees
 ----------------------------------------------------------------
             Standard Nuclear Orientation (Angstroms)
    I     Atom           X                Y                Z
 ----------------------------------------------------------------
    1      O      -2.1068314849     0.6869014939     0.6980581564
    2      C      -3.1442983898     1.2957351034     0.3968739016
    3      C      -4.3974165364     0.6701768903    -0.2186445584
    4      C      -4.2374896320    -0.7475052567    -0.8358735961
    5      C      -2.8815532993    -1.4385572781    -0.6157424292
    6      O      -1.9400072201    -0.8995101517    -1.4851452271
    7      C      -0.6159222996    -1.4585050412    -1.3168195388
    8      C       0.2747799506    -0.5038406497    -0.4946318838
    9      O       1.6091550172    -1.0643994011    -0.4026044028
   10      C       2.3959946557    -0.4930441932     0.5761245856
   11      C       3.8424262372    -0.9945491209     0.4935104832
   12      C       4.6522291845    -0.4873208104    -0.7362456825
   13      C       4.0472841721     0.6976669988    -1.4981305248
   14      O       4.5655498020     1.2369225719    -2.4903272682
   15      O      -3.3085018163     2.6195559663     0.7407311955
   16      O       2.9256596082     1.2977647587    -0.9591776897
   17      O       1.9751839846     0.2773592477     1.4525242261
   18      C       2.3468954513     2.4406541599    -1.5390476598
   19      C       4.7574254002    -0.4748958807     1.6510550747
   20      C       5.9475303496    -1.4515188793     1.8301125350
   21      C       6.7535982599    -1.1653264852     0.5508169499
   22      C       5.9417695272     0.0246735324    -0.0303701197
   23      O       5.4045171020     0.6905046016     1.1213203928
   24      H       3.8055628349    -2.1027644490     0.5550140668
   25      H       4.8172684942    -1.2923366430    -1.4806400669
   26      H       4.2223364670    -0.3339565577     2.6130929880
   27      H       6.5276782972    -1.0922364313     2.7042743083
   28      H       5.6781170512    -2.5127681371     1.9915841397
   29      H       7.7754856401    -0.8471032051     0.8355619417
   30      H       6.8073992510    -2.0044046374    -0.1696941566
   31      H       6.5698493940     0.6524701037    -0.6973450516
   32      O      -2.6849192109    -2.3936151426     0.1487878591
   33      C      -2.2657285223     3.3274002933     1.3662337283
   34      C      -5.5021869648     0.4247097442     0.8514501273
   35      C      -6.8814000209     0.3267609424     0.1530310105
   36      C      -6.7600373510    -1.0516213286    -0.5190477697
   37      C      -5.3535064601    -1.4911405109    -0.0260541540
   38      O      -5.2582138076    -0.9193658058     1.2845921381
   39      H      -4.7466054100     1.3830502405    -0.9955322226
   40      H      -4.4680941419    -0.7928419865    -1.9203923304
   41      H      -1.3600165570     3.3605267500     0.7207262726
   42      H      -5.5157311114     1.1935975131     1.6522674052
   43      H      -7.6608751104     0.2747979559     0.9395504493
   44      H      -7.1068368428     1.1691265708    -0.5286229204
   45      H      -7.5277185277    -1.7248148931    -0.0889326950
   46      H      -6.8455478232    -1.0493372120    -1.6226619965
   47      H      -5.2562791883    -2.5958975833    -0.0757662676
   48      H      -1.9960254986     2.8657476882     2.3420372256
   49      H      -2.6095258220     4.3656627975     1.5483337514
   50      H       1.4718750231     2.7354542958    -0.9248295516
   51      H       2.0016655814     2.2327459498    -2.5762011225
   52      H       3.0669162052     3.2885394265    -1.5583365103
   53      H       0.2969460134     0.5155660776    -0.9330265296
   54      H      -0.1571760856    -0.4779420900     0.5264220319
   55      H      -0.1751467192    -1.5729215609    -2.3308377598
   56      H      -0.6014924886    -2.4748622786    -0.8645392478
 ----------------------------------------------------------------
 Molecular Point Group                 C1    NOp =  1
 Largest Abelian Subgroup              C1    NOp =  1
 Nuclear Repulsion Energy =  3129.4787655521 hartrees
 There are      113 alpha and      113 beta electrons
 Applying Cartesian multipole field
    Component          Value
    ---------          -----
     (2,0,0)        1.00000E-12
     (0,2,0)        2.00000E-11
     (0,0,2)       -3.00000E-11
 Nucleus-field energy     =     0.0000000163 hartrees
 Requested basis set is STO-3G
 There are 86 shells and 176 basis functions
 A cutoff of  1.0D-12 yielded   2103 shell pairs
 There are      9909 function pairs
 Smallest overlap matrix eigenvalue = 2.02E-01
 Guess MOs from SCF MO coefficient file
 Reading MOs from coefficient file
 Reading MOs from coefficient file
 A restricted hybrid HF-DFT SCF calculation will be
 performed using Pulay DIIS extrapolation
 Exchange:     0.2000 Hartree-Fock + 0.0800 Slater + 0.7200 B88
 Correlation:  0.1900 VWN1RPA + 0.8100 LYP
 Using SG-1 standard quadrature grid
 Dispersion:   Grimme D3
 SCF converges when DIIS error is below 1.0E-08
 Geometry optimization detected.  Setting ReadMinima to 0
 Setting SaveMinima to 0
 using 48 threads for integral computing
 -------------------------------------------------------
 OpenMP Integral computing Module                
 Release: version 1.0, May 2013, Q-Chem Inc. Pittsburgh 
 -------------------------------------------------------
 -------------------------------------------------------
 OpenMP BLAS3 based DFT computing Module                
 Release: version 1.0, May 2013, Q-Chem Inc. Pittsburgh 
 -------------------------------------------------------
 ---------------------------------------
  Cycle       Energy         DIIS Error
 ---------------------------------------
    1   -1510.0553361352      3.04E-03
    2   -1510.2186492238      9.29E-04
    3   -1510.2125768720      1.52E-03
    4   -1510.2221736703      2.95E-04
    5   -1510.2225724103      4.83E-05
    6   -1510.2225828086      1.48E-05
    7   -1510.2225833797      1.04E-05
    8   -1510.2225838297      2.16E-06
    9   -1510.2225838529      4.67E-07
   10   -1510.2225838534      3.12E-07
   11   -1510.2225838539      9.60E-08
   12   -1510.2225838539      1.72E-08
   13   -1510.2225838539      8.71E-09 Convergence criterion met
 ---------------------------------------
 SCF time:  CPU 92.22 s  wall 1.93 s
 SCF   energy in the final basis set = -1510.22258385
 Total energy in the final basis set = -1510.22258385
 
 --------------------------------------------------------------
 
                    Orbital Energies (a.u.)
 --------------------------------------------------------------
 
 Alpha MOs
 -- Occupied --
-18.941 -18.937 -18.936 -18.923 -18.898 -18.894 -18.867 -18.863
-18.854 -18.844 -10.112 -10.105 -10.103 -10.095 -10.081 -10.079
-10.071 -10.069 -10.065 -10.064 -10.062 -10.059 -10.044 -10.043
-10.037 -10.030 -10.018 -10.017 -10.016 -10.013  -1.039  -1.034
 -1.024  -1.014  -1.005  -1.001  -0.947  -0.940  -0.936  -0.927
 -0.776  -0.773  -0.737  -0.734  -0.724  -0.715  -0.704  -0.679
 -0.675  -0.624  -0.603  -0.584  -0.551  -0.547  -0.537  -0.533
 -0.524  -0.515  -0.496  -0.489  -0.478  -0.465  -0.461  -0.453
 -0.446  -0.440  -0.430  -0.426  -0.423  -0.419  -0.417  -0.402
 -0.400  -0.391  -0.388  -0.375  -0.368  -0.362  -0.358  -0.354
 -0.347  -0.346  -0.341  -0.335  -0.332  -0.328  -0.322  -0.313
 -0.308  -0.306  -0.305  -0.299  -0.297  -0.288  -0.286  -0.274
 -0.270  -0.246  -0.238  -0.237  -0.235  -0.229  -0.222  -0.182
 -0.174  -0.172  -0.163  -0.154  -0.151  -0.150  -0.145  -0.141
 -0.132
 -- Virtual --
  0.103   0.109   0.115   0.128   0.225   0.247   0.261   0.265
  0.268   0.306   0.312   0.325   0.332   0.334   0.346   0.352
  0.361   0.368   0.370   0.375   0.380   0.384   0.387   0.390
  0.392   0.394   0.400   0.408   0.410   0.412   0.414   0.419
  0.421   0.423   0.430   0.433   0.435   0.436   0.440   0.449
  0.451   0.459   0.463   0.466   0.468   0.475   0.476   0.480
  0.485   0.491   0.492   0.497   0.513   0.525   0.526   0.547
  0.557   0.562   0.566   0.654   0.666   0.672   0.681
 --------------------------------------------------------------
 
          Ground-State Mulliken Net Atomic Charges

     Atom                 Charge (a.u.)
  ----------------------------------------
      1 O                    -0.225054
      2 C                     0.228509
      3 C                    -0.079913
      4 C                    -0.081566
      5 C                     0.230639
      6 O                    -0.183555
      7 C                    -0.041197
      8 C                    -0.040626
      9 O                    -0.196433
     10 C                     0.232706
     11 C                    -0.082830
     12 C                    -0.077210
     13 C                     0.225787
     14 O                    -0.231456
     15 O                    -0.199800
     16 O                    -0.196295
     17 O                    -0.229658
     18 C                    -0.102864
     19 C                     0.034956
     20 C                    -0.143171
     21 C                    -0.144323
     22 C                     0.034777
     23 O                    -0.202431
     24 H                     0.082995
     25 H                     0.090914
     26 H                     0.091069
     27 H                     0.075250
     28 H                     0.072579
     29 H                     0.076607
     30 H                     0.072880
     31 H                     0.087883
     32 O                    -0.220918
     33 C                    -0.105942
     34 C                     0.035149
     35 C                    -0.142769
     36 C                    -0.145131
     37 C                     0.036579
     38 O                    -0.198825
     39 H                     0.086976
     40 H                     0.084754
     41 H                     0.086769
     42 H                     0.086389
     43 H                     0.076191
     44 H                     0.073491
     45 H                     0.076365
     46 H                     0.071835
     47 H                     0.088643
     48 H                     0.091606
     49 H                     0.094764
     50 H                     0.094949
     51 H                     0.086417
     52 H                     0.090868
     53 H                     0.084107
     54 H                     0.107127
     55 H                     0.083167
     56 H                     0.098268
  ----------------------------------------
  Sum of atomic charges =    -0.000000

 -----------------------------------------------------------------
                    Cartesian Multipole Moments
 -----------------------------------------------------------------
    Charge (ESU x 10^10)
                 0.0000
    Dipole Moment (Debye)
         X      -1.6312      Y       0.6954      Z      -1.7904
       Tot       2.5199
    Quadrupole Moments (Debye-Ang)
        XX    -146.9190     XY     -15.4359     YY    -154.2488
        XZ       9.2980     YZ       3.7508     ZZ    -164.0627
    Octopole Moments (Debye-Ang^2)
       XXX     -55.4676    XXY     -40.4195    XYY       5.1152
       YYY      40.0069    XXZ      -4.2605    XYZ     -20.3700
       YYZ      -1.7168    XZZ     -20.1090    YZZ       0.5133
       ZZZ      12.5684
    Hexadecapole Moments (Debye-Ang^3)
      XXXX  -17153.7941   XXXY    -183.6624   XXYY   -3342.6511
      XYYY      43.9799   YYYY   -1955.5756   XXXZ     202.2830
      XXYZ      69.3419   XYYZ     -24.5636   YYYZ      32.4547
      XXZZ   -3330.8407   XYZZ     -58.0145   YYZZ    -548.2478
      XZZZ      43.7410   YZZZ      31.5627   ZZZZ   -1332.1777
 -----------------------------------------------------------------
 Calculating analytic gradient of the SCF energy
 Gradient of SCF Energy
            1           2           3           4           5           6
    1  -0.0251876  -0.0283737   0.0062044   0.0127223   0.0071008  -0.0028378
    2   0.0198189   0.0202405  -0.0332686   0.0030461   0.0064824  -0.0198170
    3  -0.0038543  -0.0164178   0.0330163   0.0157919  -0.0167930   0.0258452
            7           8           9          10          11          12
    1  -0.0246611   0.0091065  -0.0061165  -0.0031476  -0.0030479   0.0142437
    2   0.0204503  -0.0068358   0.0342012  -0.0242389   0.0280105   0.0236737
    3   0.0206230  -0.0270487   0.0437268  -0.0259064   0.0003280   0.0106538
           13          14          15          16          17          18
    1  -0.0075769  -0.0208213   0.0780897   0.0246026   0.0117925   0.0015476
    2  -0.0323868  -0.0006108  -0.0262436   0.0501838  -0.0138486  -0.0310038
    3   0.0311675   0.0278047   0.0272162  -0.0728538  -0.0184658   0.0299379
           19          20          21          22          23          24
    1   0.0247856  -0.0089402  -0.0196330  -0.0304774  -0.0020624  -0.0020785
    2   0.0237329   0.0156178   0.0125327   0.0008369  -0.0500656  -0.0030672
    3  -0.0318170  -0.0223521   0.0075920   0.0338603  -0.0158525   0.0076801
           25          26          27          28          29          30
    1  -0.0039727   0.0017110   0.0031707   0.0012941   0.0027297  -0.0012396
    2  -0.0022297  -0.0122300   0.0067385  -0.0048136   0.0017031  -0.0017522
    3  -0.0031807   0.0051156   0.0016991   0.0021648   0.0085157  -0.0052291
           31          32          33          34          35          36
    1   0.0056212  -0.0078090  -0.0413912   0.0103676   0.0237273   0.0177260
    2  -0.0078653   0.0169931  -0.0047056  -0.0410304  -0.0153010   0.0116932
    3  -0.0057046  -0.0138270  -0.0179829  -0.0081968  -0.0014805   0.0137528
           37          38          39          40          41          42
    1   0.0017643  -0.0097384   0.0026399  -0.0019181  -0.0027625  -0.0061781
    2   0.0377144   0.0206945   0.0024366  -0.0077851  -0.0007470   0.0080169
    3   0.0289400  -0.0471205  -0.0035003  -0.0031411  -0.0034851  -0.0048244
           43          44          45          46          47          48
    1  -0.0018504  -0.0022182  -0.0041446   0.0006818  -0.0065627  -0.0042324
    2  -0.0056601   0.0037054   0.0007066  -0.0011339  -0.0024876  -0.0014763
    3   0.0050132  -0.0023696   0.0074309  -0.0046531  -0.0112020  -0.0000465
           49          50          51          52          53          54
    1   0.0026965  -0.0016349  -0.0001247   0.0016179   0.0018444   0.0029430
    2   0.0019384   0.0034415  -0.0042979  -0.0019566  -0.0004371  -0.0123511
    3   0.0016929  -0.0018954   0.0015874   0.0035476  -0.0010717  -0.0018083
           55          56
    1   0.0025958   0.0074122
    2  -0.0018631  -0.0030997
    3   0.0021280  -0.0047503
 Max gradient component =       7.809E-02
 RMS gradient           =       1.853E-02
 Gradient time:  CPU 30.17 s  wall 0.64 s
 Geometry Optimization Parameters
   NAtoms,    NIC,     NZ,  NCons,   NDum,   NFix, NCnnct, MaxDiis
       56     458       0       9       0       0       0       0

 Cartesian Hessian Update
 Hessian Updated using BFGS Update


** CONSTRAINED OPTIMIZATION IN DELOCALIZED INTERNAL COORDINATES **
   Searching for a Minimum

   Optimization Cycle:   2

                       Coordinates (Angstroms)
     ATOM                X               Y               Z
      1  O        -2.1068314849    0.6869014939    0.6980581564
      2  C        -3.1442983898    1.2957351034    0.3968739016
      3  C        -4.3974165364    0.6701768903   -0.2186445584
      4  C        -4.2374896320   -0.7475052567   -0.8358735961
      5  C        -2.8815532993   -1.4385572781   -0.6157424292
      6  O        -1.9400072201   -0.8995101517   -1.4851452271
      7  C        -0.6159222996   -1.4585050412   -1.3168195388
      8  C         0.2747799506   -0.5038406497   -0.4946318838
      9  O         1.6091550172   -1.0643994011   -0.4026044028
     10  C         2.3959946557   -0.4930441932    0.5761245856
     11  C         3.8424262372   -0.9945491209    0.4935104832
     12  C         4.6522291845   -0.4873208104   -0.7362456825
     13  C         4.0472841721    0.6976669988   -1.4981305248
     14  O         4.5655498020    1.2369225719   -2.4903272682
     15  O        -3.3085018163    2.6195559663    0.7407311955
     16  O         2.9256596082    1.2977647587   -0.9591776897
     17  O         1.9751839846    0.2773592477    1.4525242261
     18  C         2.3468954513    2.4406541599   -1.5390476598
     19  C         4.7574254002   -0.4748958807    1.6510550747
     20  C         5.9475303496   -1.4515188793    1.8301125350
     21  C         6.7535982599   -1.1653264852    0.5508169499
     22  C         5.9417695272    0.0246735324   -0.0303701197
     23  O         5.4045171020    0.6905046016    1.1213203928
     24  H         3.8055628349   -2.1027644490    0.5550140668
     25  H         4.8172684942   -1.2923366430   -1.4806400669
     26  H         4.2223364670   -0.3339565577    2.6130929880
     27  H         6.5276782972   -1.0922364313    2.7042743083
     28  H         5.6781170512   -2.5127681371    1.9915841397
     29  H         7.7754856401   -0.8471032051    0.8355619417
     30  H         6.8073992510   -2.0044046374   -0.1696941566
     31  H         6.5698493940    0.6524701037   -0.6973450516
     32  O        -2.6849192109   -2.3936151426    0.1487878591
     33  C        -2.2657285223    3.3274002933    1.3662337283
     34  C        -5.5021869648    0.4247097442    0.8514501273
     35  C        -6.8814000209    0.3267609424    0.1530310105
     36  C        -6.7600373510   -1.0516213286   -0.5190477697
     37  C        -5.3535064601   -1.4911405109   -0.0260541540
     38  O        -5.2582138076   -0.9193658058    1.2845921381
     39  H        -4.7466054100    1.3830502405   -0.9955322226
     40  H        -4.4680941419   -0.7928419865   -1.9203923304
     41  H        -1.3600165570    3.3605267500    0.7207262726
     42  H        -5.5157311114    1.1935975131    1.6522674052
     43  H        -7.6608751104    0.2747979559    0.9395504493
     44  H        -7.1068368428    1.1691265708   -0.5286229204
     45  H        -7.5277185277   -1.7248148931   -0.0889326950
     46  H        -6.8455478232   -1.0493372120   -1.6226619965
     47  H        -5.2562791883   -2.5958975833   -0.0757662676
     48  H        -1.9960254986    2.8657476882    2.3420372256
     49  H        -2.6095258220    4.3656627975    1.5483337514
     50  H         1.4718750231    2.7354542958   -0.9248295516
     51  H         2.0016655814    2.2327459498   -2.5762011225
     52  H         3.0669162052    3.2885394265   -1.5583365103
     53  H         0.2969460134    0.5155660776   -0.9330265296
     54  H        -0.1571760856   -0.4779420900    0.5264220319
     55  H        -0.1751467192   -1.5729215609   -2.3308377598
     56  H        -0.6014924886   -2.4748622786   -0.8645392478
   Point Group: c1    Number of degrees of freedom:   162


   Energy is  -1510.222583854

              Constraints and their Current Values
                                        Value     Constraint
   Dihedral:        1   2   3   4      -16.017      -16.010
   Dihedral:        3   4   5   6      -77.451      -77.451
   Dihedral:        4   5   6   7      177.942      177.961
   Dihedral:        5   6   7   8     -100.605     -100.598
   Dihedral:        6   7   8   9     -177.214     -177.208
   Dihedral:        7   8   9  10     -164.229     -164.253
   Dihedral:        8   9  10  11     -172.273     -172.288
   Dihedral:        9  10  11  12       70.282       70.261
   Dihedral:       11  12  13  14      179.158      179.176
 Hessian Updated using BFGS Update

   Using Lagrange Multiplier Algorithm


157 Hessian modes will be used to form the next step
  Hessian Eigenvalues:
    -0.977753   -0.977753   -0.977753   -0.977753   -0.977753   -0.977753
    -0.977753   -0.977496    0.045000    0.045000    0.045030    0.045103
     0.045202    0.045240    0.045548    0.045606    0.048872    0.048878
     0.054474    0.059753    0.060035    0.062537    0.062675    0.066982
     0.067088    0.067171    0.067761    0.069962    0.070990    0.071921
     0.073677    0.074144    0.075560    0.076195    0.076835    0.077026
     0.082431    0.082601    0.083244    0.084016    0.084338    0.084474
     0.085672    0.086199    0.086296    0.086780    0.086828    0.087062
     0.088467    0.088746    0.089034    0.089365    0.089653    0.089988
     0.093851    0.093855    0.096597    0.096642    0.111572    0.111625
     0.114607    0.114679    0.115873    0.115902    0.116768    0.117449
     0.117517    0.118207    0.119139    0.122630    0.123619    0.130153
     0.130951    0.131237    0.139219    0.140672    0.159641    0.161367
     0.171266    0.171813    0.172170    0.172583    0.219692    0.220905
     0.229484    0.239734    0.240681    0.249049    0.249150    0.249518
     0.249649    0.256945    0.258401    0.263819    0.267270    0.267538
     0.278976    0.281689    0.284652    0.289685    0.295483    0.297649
     0.302438    0.307673    0.310593    0.312494    0.320115    0.321988
     0.322165    0.322280    0.322434    0.322469    0.322619    0.323011
     0.323331    0.323434    0.323582    0.323693    0.324051    0.324198
     0.324244    0.324537    0.324566    0.324701    0.324785    0.324979
     0.325082    0.325492    0.326035    0.326670    0.326783    0.329755
     0.331735    0.368552    0.369207    0.384112    0.400210    0.404688
     0.417129    0.472500    0.490678    0.519360    0.528323    0.533697
     0.535972    0.923789    0.928281    0.941641    1.001148    1.022753
     1.022753    1.022753    1.022753    1.022753    1.022753    1.022753
     1.027231

 Minimum Search - Taking P-RFO Step
 Searching for Lamda that Maximizes Along the Constraint modes Only
 Value Taken    Lamda =   0.00002476
 Searching for Lamda that Minimizes Along All other modes
 Value Taken    Lamda =  -0.08117964
 Calculated Step too Large.  Step scaled by  0.614878
 Step Taken.  Stepsize is  0.300000

                             Maximum     Tolerance    Cnvgd?
         Gradient            0.069812       0.000300      NO
         Displacement        0.088737       0.001200      NO
         Energy change     -0.071477       0.000001      NO


 New Cartesian Coordinates Obtained by Inverse Iteration

 Displacement from previous Coordinates is:  1.129927
 Adding empirical dispersion correction 
 ----------------------------------------------------------------
 Doing -D3(op) with
 s6 =   1.00000
 s8 =   0.78311
 a1 =   0.30000
 a2 =   4.25000
 n  =  10.00000
 -D3 energy without 3body term =     -0.0669057346 hartrees
 ----------------------------------------------------------------
             Standard Nuclear Orientation (Angstroms)
    I     Atom           X                Y                Z
 ----------------------------------------------------------------
    1      O      -2.1196203590     0.6444656688     0.7325952994
    2      C      -3.1582386638     1.2666971174     0.4289368921
    3      C      -4.4361507377     0.6666284013    -0.1993256879
    4      C      -4.2780438361    -0.7569576535    -0.8265697960
    5      C      -2.8979865208    -1.4388465711    -0.6110302431
    6      O      -1.9680074345    -0.8694695804    -1.5052753914
    7      C      -0.6313850003    -1.4283433815    -1.3287980680
    8      C       0.2597828516    -0.4604786183    -0.4987577002
    9      O       1.6001968433    -1.0456364277    -0.4154425601
   10      C       2.3764745134    -0.4477189903     0.5883579700
   11      C       3.8353193550    -0.9693644688     0.4989037420
   12      C       4.6688915865    -0.4799623513    -0.7415276922
   13      C       4.0957920566     0.7221902336    -1.5400963549
   14      O       4.6350920194     1.2437315590    -2.5375798252
   15      O      -3.3464762720     2.6102079288     0.7641630664
   16      O       2.9638003530     1.3198730491    -0.9821146147
   17      O       1.9354205529     0.3227762591     1.4643689555
   18      C       2.4698504566     2.4856469156    -1.6592575227
   19      C       4.7463467913    -0.4465948419     1.6729585337
   20      C       5.9291766985    -1.4518458762     1.8673641512
   21      C       6.7583018062    -1.1849407205     0.5809785445
   22      C       5.9713247479     0.0286879788    -0.0212175918
   23      O       5.4239856274     0.7275224522     1.1355586424
   24      H       3.7876778096    -2.0746499989     0.5542559055
   25      H       4.8368836114    -1.2935400297    -1.4726162637
   26      H       4.1975471940    -0.2767295065     2.6207100459
   27      H       6.5077408891    -1.1098496489     2.7448167762
   28      H       5.6329485922    -2.5029489877     2.0260271451
   29      H       7.7836504765    -0.8868702557     0.8609816630
   30      H       6.7990312614    -2.0292498890    -0.1290518342
   31      H       6.6069196459     0.6516051093    -0.6827962638
   32      O      -2.6653546179    -2.3993177536     0.1472041573
   33      C      -2.2218404616     3.2332415146     1.4056605632
   34      C      -5.5512261945     0.4139467792     0.8824503526
   35      C      -6.9356342451     0.3220318101     0.1616638593
   36      C      -6.8085781179    -1.0666796108    -0.5269836277
   37      C      -5.3965054946    -1.5223793327    -0.0187219618
   38      O      -5.3066026178    -0.9540561446     1.3179244812
   39      H      -4.7862482854     1.3855354268    -0.9663261872
   40      H      -4.5055508447    -0.7865016374    -1.9095003195
   41      H      -1.3210858994     3.2215825081     0.7544530216
   42      H      -5.5524673691     1.1659493492     1.6970538071
   43      H      -7.7253876147     0.2738100168     0.9328710010
   44      H      -7.1447127883     1.1672780642    -0.5162001751
   45      H      -7.5805267586    -1.7438922666    -0.1211474939
   46      H      -6.8795746123    -1.0504281888    -1.6283225922
   47      H      -5.2849030322    -2.6242792084    -0.0624514706
   48      H      -1.9689685524     2.7325736617     2.3654249746
   49      H      -2.5027178935     4.2841549007     1.6113852363
   50      H       1.5867206135     2.8399876822    -1.0929877993
   51      H       2.1625439026     2.2547425407    -2.7025291638
   52      H       3.2295685016     3.2966795228    -1.6837377599
   53      H       0.2882960032     0.5536913146    -0.9487091137
   54      H      -0.1739092527    -0.4008209332     0.5221977148
   55      H      -0.1900703616    -1.5512871875    -2.3416162400
   56      H      -0.6354963096    -2.4364296302    -0.8597091770
 ----------------------------------------------------------------
 Molecular Point Group                 C1    NOp =  1
 Largest Abelian Subgroup              C1    NOp =  1
 Nuclear Repulsion Energy =  3109.0660194969 hartrees
 There are      113 alpha and      113 beta electrons
 Applying Cartesian multipole field
    Component          Value
    ---------          -----
     (2,0,0)        1.00000E-12
     (0,2,0)        2.00000E-11
     (0,0,2)       -3.00000E-11
 Nucleus-field energy     =     0.0000000147 hartrees
 Requested basis set is STO-3G
 There are 86 shells and 176 basis functions
 A cutoff of  1.0D-12 yielded   2104 shell pairs
 There are      9916 function pairs
 Smallest overlap matrix eigenvalue = 2.07E-01
 Guess MOs from SCF MO coefficient file
 Reading MOs from coefficient file
 Reading MOs from coefficient file
 A restricted hybrid HF-DFT SCF calculation will be
 performed using Pulay DIIS extrapolation
 Exchange:     0.2000 Hartree-Fock + 0.0800 Slater + 0.7200 B88
 Correlation:  0.1900 VWN1RPA + 0.8100 LYP
 Using SG-1 standard quadrature grid
 Dispersion:   Grimme D3
 SCF converges when DIIS error is below 1.0E-08
 Geometry optimization detected.  Setting ReadMinima to 0
 Setting SaveMinima to 0
 using 48 threads for integral computing
 -------------------------------------------------------
 OpenMP Integral computing Module                
 Release: version 1.0, May 2013, Q-Chem Inc. Pittsburgh 
 -------------------------------------------------------
 -------------------------------------------------------
 OpenMP BLAS3 based DFT computing Module                
 Release: version 1.0, May 2013, Q-Chem Inc. Pittsburgh 
 -------------------------------------------------------
 ---------------------------------------
  Cycle       Energy         DIIS Error
 ---------------------------------------
    1   -1510.1134879455      2.83E-03
    2   -1510.2575670275      8.84E-04
    3   -1510.2508009674      1.54E-03
    4   -1510.2608343988      2.59E-04
    5   -1510.2611367073      4.88E-05
    6   -1510.2611466453      1.78E-05
    7   -1510.2611476040      1.10E-05
    8   -1510.2611481108      2.41E-06
    9   -1510.2611481398      4.53E-07
   10   -1510.2611481403      3.15E-07
   11   -1510.2611481407      9.04E-08
   12   -1510.2611481407      1.61E-08
   13   -1510.2611481408      7.32E-09 Convergence criterion met
 ---------------------------------------
 SCF time:  CPU 95.12 s  wall 1.99 s
 SCF   energy in the final basis set = -1510.26114814
 Total energy in the final basis set = -1510.26114814
 
 --------------------------------------------------------------
 
                    Orbital Energies (a.u.)
 --------------------------------------------------------------
 
 Alpha MOs
 -- Occupied --
-18.945 -18.941 -18.932 -18.922 -18.896 -18.891 -18.875 -18.865
-18.860 -18.852 -10.109 -10.102 -10.099 -10.093 -10.075 -10.074
-10.067 -10.066 -10.062 -10.060 -10.060 -10.056 -10.043 -10.041
-10.037 -10.031 -10.019 -10.018 -10.016 -10.013  -1.031  -1.027
 -1.015  -1.006  -0.990  -0.985  -0.945  -0.936  -0.935  -0.925
 -0.772  -0.766  -0.731  -0.728  -0.717  -0.709  -0.698  -0.673
 -0.670  -0.618  -0.600  -0.580  -0.549  -0.545  -0.536  -0.533
 -0.520  -0.511  -0.491  -0.483  -0.471  -0.460  -0.457  -0.449
 -0.441  -0.436  -0.427  -0.421  -0.419  -0.415  -0.413  -0.398
 -0.396  -0.385  -0.382  -0.370  -0.364  -0.358  -0.356  -0.350
 -0.345  -0.342  -0.338  -0.336  -0.331  -0.326  -0.322  -0.313
 -0.307  -0.305  -0.304  -0.299  -0.296  -0.288  -0.283  -0.273
 -0.268  -0.252  -0.243  -0.238  -0.237  -0.234  -0.230  -0.185
 -0.177  -0.170  -0.164  -0.156  -0.151  -0.148  -0.147  -0.145
 -0.136
 -- Virtual --
  0.097   0.105   0.112   0.121   0.223   0.245   0.259   0.260
  0.263   0.296   0.301   0.312   0.321   0.326   0.340   0.345
  0.354   0.357   0.358   0.365   0.366   0.370   0.378   0.383
  0.385   0.388   0.400   0.402   0.407   0.410   0.412   0.414
  0.418   0.420   0.422   0.423   0.428   0.432   0.434   0.439
  0.443   0.453   0.454   0.455   0.458   0.462   0.469   0.471
  0.473   0.481   0.489   0.494   0.498   0.517   0.519   0.542
  0.551   0.555   0.557   0.643   0.653   0.660   0.667
 --------------------------------------------------------------
 
          Ground-State Mulliken Net Atomic Charges

     Atom                 Charge (a.u.)
  ----------------------------------------
      1 O                    -0.217664
      2 C                     0.220734
      3 C                    -0.079568
      4 C                    -0.081042
      5 C                     0.223814
      6 O                    -0.180752
      7 C                    -0.045193
      8 C                    -0.045841
      9 O                    -0.188876
     10 C                     0.226013
     11 C                    -0.082087
     12 C                    -0.076602
     13 C                     0.218567
     14 O                    -0.226441
     15 O                    -0.184862
     16 O                    -0.182318
     17 O                    -0.223024
     18 C                    -0.112588
     19 C                     0.029789
     20 C                    -0.143851
     21 C                    -0.145021
     22 C                     0.029876
     23 O                    -0.195153
     24 H                     0.083492
     25 H                     0.089061
     26 H                     0.090421
     27 H                     0.075670
     28 H                     0.073126
     29 H                     0.076892
     30 H                     0.073486
     31 H                     0.086842
     32 O                    -0.216896
     33 C                    -0.116189
     34 C                     0.030789
     35 C                    -0.143491
     36 C                    -0.145530
     37 C                     0.031813
     38 O                    -0.191834
     39 H                     0.086856
     40 H                     0.084696
     41 H                     0.088444
     42 H                     0.085951
     43 H                     0.076969
     44 H                     0.074258
     45 H                     0.076824
     46 H                     0.072533
     47 H                     0.088335
     48 H                     0.092798
     49 H                     0.093436
     50 H                     0.093033
     51 H                     0.087980
     52 H                     0.092028
     53 H                     0.081931
     54 H                     0.107465
     55 H                     0.082543
     56 H                     0.098360
  ----------------------------------------
  Sum of atomic charges =    -0.000000

 -----------------------------------------------------------------
                    Cartesian Multipole Moments
 -----------------------------------------------------------------
    Charge (ESU x 10^10)
                 0.0000
    Dipole Moment (Debye)
         X      -1.5728      Y       0.7242      Z      -1.7672
       Tot       2.4741
    Quadrupole Moments (Debye-Ang)
        XX    -146.7549     XY     -14.8638     YY    -154.7916
        XZ       9.1568     YZ       3.2970     ZZ    -163.7743
    Octopole Moments (Debye-Ang^2)
       XXX     -59.3567    XXY     -41.4597    XYY       8.1284
       YYY      36.2189    XXZ      -6.5675    XYZ     -21.7459
       YYZ      -3.7137    XZZ     -18.4182    YZZ       1.1770
       ZZZ      11.3751
    Hexadecapole Moments (Debye-Ang^3)
      XXXX  -17319.9322   XXXY    -231.5891   XXYY   -3370.1059
      XYYY      14.6576   YYYY   -1945.4706   XXXZ     235.3342
      XXYZ      68.8839   XYYZ     -17.7714   YYYZ      36.9894
      XXZZ   -3376.9360   XYZZ     -71.1431   YYZZ    -552.3100
      XZZZ      66.2237   YZZZ      40.7335   ZZZZ   -1384.9760
 -----------------------------------------------------------------
 Calculating analytic gradient of the SCF energy
 Gradient of SCF Energy
            1           2           3           4           5           6
    1  -0.0085721  -0.0166885   0.0020383   0.0085683   0.0039658  -0.0001943
    2   0.0074842   0.0181001  -0.0206444   0.0058702   0.0050082  -0.0095392
    3  -0.0009265  -0.0125975   0.0204564   0.0054545  -0.0116062   0.0140560
            7           8           9          10          11          12
    1  -0.0188269   0.0070985  -0.0042618  -0.0019605  -0.0017224   0.0113509
    2   0.0111670   0.0010303   0.0163290  -0.0163520   0.0124013   0.0109476
    3   0.0149552  -0.0184503   0.0249929  -0.0163692  -0.0009807   0.0051536
           13          14          15          16          17          18
    1  -0.0096506  -0.0106399   0.0416293   0.0187933   0.0049357   0.0010911
    2  -0.0187553   0.0030702  -0.0164855   0.0269740  -0.0043994  -0.0187159
    3   0.0195174   0.0139914   0.0159140  -0.0432670  -0.0060908   0.0178237
           19          20          21          22          23          24
    1   0.0119721  -0.0055571  -0.0087175  -0.0171332  -0.0011596  -0.0014588
    2   0.0176067   0.0050778   0.0050864   0.0043419  -0.0242924  -0.0011950
    3  -0.0170817  -0.0127350   0.0023492   0.0194174  -0.0073049   0.0060407
           25          26          27          28          29          30
    1  -0.0038759   0.0012997   0.0015305   0.0017534   0.0005300  -0.0004911
    2  -0.0003768  -0.0103745   0.0048143  -0.0022226   0.0009385  -0.0000137
    3  -0.0025964   0.0035948  -0.0000102   0.0024336   0.0058335  -0.0031217
           31          32          33          34          35          36
    1   0.0037336  -0.0038907  -0.0250016   0.0066718   0.0119352   0.0085987
    2  -0.0069999   0.0059707  -0.0036201  -0.0228917  -0.0047688   0.0053272
    3  -0.0045497  -0.0053054  -0.0116099  -0.0017376  -0.0025390   0.0042356
           37          38          39          40          41          42
    1   0.0020215  -0.0050097   0.0017809  -0.0014868  -0.0008164  -0.0042248
    2   0.0195821   0.0096865   0.0008108  -0.0060927   0.0000875   0.0060543
    3   0.0200720  -0.0237392  -0.0024482  -0.0013429  -0.0017164  -0.0043274
           43          44          45          46          47          48
    1  -0.0002018  -0.0020013  -0.0017394   0.0002212  -0.0047644  -0.0017335
    2  -0.0041953   0.0020164   0.0012697  -0.0014519  -0.0011949  -0.0003654
    3   0.0027339  -0.0001358   0.0049533  -0.0020353  -0.0092853   0.0005995
           49          50          51          52          53          54
    1   0.0015981  -0.0007327  -0.0006041   0.0005235   0.0003057   0.0014256
    2   0.0009145   0.0020086  -0.0016579  -0.0000965  -0.0003064  -0.0082419
    3   0.0009164  -0.0011537   0.0002714   0.0017117   0.0001800   0.0002631
           55          56
    1   0.0018861   0.0058587
    2  -0.0019907  -0.0027351
    3   0.0011322  -0.0039896
 Max gradient component =       4.327E-02
 RMS gradient           =       1.059E-02
 Gradient time:  CPU 29.67 s  wall 0.63 s
 Geometry Optimization Parameters
   NAtoms,    NIC,     NZ,  NCons,   NDum,   NFix, NCnnct, MaxDiis
       56     458       0       9       0       0       0       0

 Cartesian Hessian Update
 Hessian Updated using BFGS Update


** CONSTRAINED OPTIMIZATION IN DELOCALIZED INTERNAL COORDINATES **
   Searching for a Minimum

   Optimization Cycle:   3

                       Coordinates (Angstroms)
     ATOM                X               Y               Z
      1  O        -2.1196203590    0.6444656688    0.7325952994
      2  C        -3.1582386638    1.2666971174    0.4289368921
      3  C        -4.4361507377    0.6666284013   -0.1993256879
      4  C        -4.2780438361   -0.7569576535   -0.8265697960
      5  C        -2.8979865208   -1.4388465711   -0.6110302431
      6  O        -1.9680074345   -0.8694695804   -1.5052753914
      7  C        -0.6313850003   -1.4283433815   -1.3287980680
      8  C         0.2597828516   -0.4604786183   -0.4987577002
      9  O         1.6001968433   -1.0456364277   -0.4154425601
     10  C         2.3764745134   -0.4477189903    0.5883579700
     11  C         3.8353193550   -0.9693644688    0.4989037420
     12  C         4.6688915865   -0.4799623513   -0.7415276922
     13  C         4.0957920566    0.7221902336   -1.5400963549
     14  O         4.6350920194    1.2437315590   -2.5375798252
     15  O        -3.3464762720    2.6102079288    0.7641630664
     16  O         2.9638003530    1.3198730491   -0.9821146147
     17  O         1.9354205529    0.3227762591    1.4643689555
     18  C         2.4698504566    2.4856469156   -1.6592575227
     19  C         4.7463467913   -0.4465948419    1.6729585337
     20  C         5.9291766985   -1.4518458762    1.8673641512
     21  C         6.7583018062   -1.1849407205    0.5809785445
     22  C         5.9713247479    0.0286879788   -0.0212175918
     23  O         5.4239856274    0.7275224522    1.1355586424
     24  H         3.7876778096   -2.0746499989    0.5542559055
     25  H         4.8368836114   -1.2935400297   -1.4726162637
     26  H         4.1975471940   -0.2767295065    2.6207100459
     27  H         6.5077408891   -1.1098496489    2.7448167762
     28  H         5.6329485922   -2.5029489877    2.0260271451
     29  H         7.7836504765   -0.8868702557    0.8609816630
     30  H         6.7990312614   -2.0292498890   -0.1290518342
     31  H         6.6069196459    0.6516051093   -0.6827962638
     32  O        -2.6653546179   -2.3993177536    0.1472041573
     33  C        -2.2218404616    3.2332415146    1.4056605632
     34  C        -5.5512261945    0.4139467792    0.8824503526
     35  C        -6.9356342451    0.3220318101    0.1616638593
     36  C        -6.8085781179   -1.0666796108   -0.5269836277
     37  C        -5.3965054946   -1.5223793327   -0.0187219618
     38  O        -5.3066026178   -0.9540561446    1.3179244812
     39  H        -4.7862482854    1.3855354268   -0.9663261872
     40  H        -4.5055508447   -0.7865016374   -1.9095003195
     41  H        -1.3210858994    3.2215825081    0.7544530216
     42  H        -5.5524673691    1.1659493492    1.6970538071
     43  H        -7.7253876147    0.2738100168    0.9328710010
     44  H        -7.1447127883    1.1672780642   -0.5162001751
     45  H        -7.5805267586   -1.7438922666   -0.1211474939
     46  H        -6.8795746123   -1.0504281888   -1.6283225922
     47  H        -5.2849030322   -2.6242792084   -0.0624514706
     48  H        -1.9689685524    2.7325736617    2.3654249746
     49  H        -2.5027178935    4.2841549007    1.6113852363
     50  H         1.5867206135    2.8399876822   -1.0929877993
     51  H         2.1625439026    2.2547425407   -2.7025291638
     52  H         3.2295685016    3.2966795228   -1.6837377599
     53  H         0.2882960032    0.5536913146   -0.9487091137
     54  H        -0.1739092527   -0.4008209332    0.5221977148
     55  H        -0.1900703616   -1.5512871875   -2.3416162400
     56  H        -0.6354963096   -2.4364296302   -0.8597091770
   Point Group: c1    Number of degrees of freedom:   162


   Energy is  -1510.261148141

              Constraints and their Current Values
                                        Value     Constraint
   Dihedral:        1   2   3   4      -16.018      -16.010
   Dihedral:        3   4   5   6      -77.451      -77.451
   Dihedral:        4   5   6   7      177.965      177.961
   Dihedral:        5   6   7   8     -100.601     -100.598
   Dihedral:        6   7   8   9     -177.210     -177.208
   Dihedral:        7   8   9  10     -164.249     -164.253
   Dihedral:        8   9  10  11     -172.281     -172.288
   Dihedral:        9  10  11  12       70.257       70.261
   Dihedral:       11  12  13  14      179.175      179.176
 Hessian Updated using BFGS Update

   Using Lagrange Multiplier Algorithm


160 Hessian modes will be used to form the next step
  Hessian Eigenvalues:
    -0.977753   -0.977753   -0.977753   -0.977753   -0.977753   -0.977753
    -0.977722   -0.977525    0.044977    0.045000    0.045001    0.045074
     0.045101    0.045121    0.045240    0.045480    0.045607    0.048800
     0.048881    0.054475    0.059236    0.060006    0.062674    0.062746
     0.066703    0.067079    0.067171    0.067654    0.069647    0.070700
     0.071883    0.073615    0.074148    0.075490    0.076207    0.076811
     0.077101    0.082419    0.082593    0.083295    0.084029    0.084400
     0.084483    0.085689    0.086076    0.086373    0.086791    0.086849
     0.087098    0.088469    0.088754    0.089000    0.089396    0.089674
     0.089952    0.093818    0.093864    0.096593    0.096656    0.111571
     0.111621    0.114605    0.114672    0.115873    0.115901    0.116766
     0.117470    0.117521    0.118215    0.119166    0.122624    0.123624
     0.130082    0.130912    0.131209    0.140288    0.141208    0.159676
     0.160015    0.161526    0.171252    0.172106    0.172374    0.173220
     0.219036    0.222439    0.237484    0.240176    0.240707    0.249056
     0.249195    0.249612    0.249706    0.252489    0.257492    0.262028
     0.265173    0.267270    0.267548    0.279552    0.281807    0.284723
     0.289469    0.295521    0.297634    0.302410    0.308773    0.310840
     0.312519    0.318589    0.321965    0.322161    0.322274    0.322426
     0.322449    0.322576    0.322945    0.323333    0.323425    0.323518
     0.323667    0.324030    0.324198    0.324217    0.324509    0.324567
     0.324701    0.324765    0.324972    0.325082    0.325487    0.326036
     0.326692    0.326791    0.329621    0.332514    0.368548    0.369050
     0.383734    0.390145    0.403058    0.408296    0.461290    0.489891
     0.514583    0.524442    0.531665    0.536714    0.923954    0.929906
     0.943311    1.004756    1.022753    1.022753    1.022753    1.022753
     1.022753    1.022753    1.022962    1.025794

 Minimum Search - Taking P-RFO Step
 Searching for Lamda that Maximizes Along the Constraint modes Only
 Value Taken    Lamda =   0.00002609
 Searching for Lamda that Minimizes Along All other modes
 Value Taken    Lamda =  -0.03396142
 Calculated Step too Large.  Step scaled by  0.718669
 Step Taken.  Stepsize is  0.300000

                             Maximum     Tolerance    Cnvgd?
         Gradient            0.038925       0.000300      NO
         Displacement        0.078830       0.001200      NO
         Energy change     -0.038564       0.000001      NO


 New Cartesian Coordinates Obtained by Inverse Iteration

 Displacement from previous Coordinates is:  0.948076
 Adding empirical dispersion correction 
 ----------------------------------------------------------------
 Doing -D3(op) with
 s6 =   1.00000
 s8 =   0.78311
 a1 =   0.30000
 a2 =   4.25000
 n  =  10.00000
 -D3 energy without 3body term =     -0.0669608627 hartrees
 ----------------------------------------------------------------
             Standard Nuclear Orientation (Angstroms)
    I     Atom           X                Y                Z
 ----------------------------------------------------------------
    1      O      -2.1666584802     0.6123876202     0.8406227815
    2      C      -3.1798584371     1.2534652553     0.4850222125
    3      C      -4.4552893198     0.6831414934    -0.1998090043
    4      C      -4.2967748274    -0.7579472056    -0.8130427796
    5      C      -2.9047132580    -1.4425096544    -0.5799304345
    6      O      -1.9688567598    -0.8681098026    -1.4950326554
    7      C      -0.6158306270    -1.4220360280    -1.3117897114
    8      C       0.2839925766    -0.4421185733    -0.4900441353
    9      O       1.6302048509    -1.0460122558    -0.4162349694
   10      C       2.4055119095    -0.4200926688     0.5977623811
   11      C       3.8715160936    -0.9565983227     0.5004171647
   12      C       4.6956604612    -0.4810079104    -0.7561852702
   13      C       4.0939569727     0.7147356174    -1.5657083813
   14      O       4.6101574903     1.2373873015    -2.5787942414
   15      O      -3.3728718379     2.6253748909     0.7839397309
   16      O       2.9364041876     1.2511834133    -0.9497324648
   17      O       1.9537704805     0.3565879616     1.4654124905
   18      C       2.4261530378     2.4142069341    -1.6739586064
   19      C       4.7862174959    -0.4197682085     1.6750574082
   20      C       5.9749440559    -1.4315547286     1.8718675854
   21      C       6.8008870696    -1.1757898707     0.5657136980
   22      C       6.0126197190     0.0438664811    -0.0478003442
   23      O       5.4673772554     0.7630732304     1.1172431693
   24      H       3.8256697319    -2.0606359327     0.5513242137
   25      H       4.8748719728    -1.3008528329    -1.4757935412
   26      H       4.2315645275    -0.2130057170     2.6111891729
   27      H       6.5611767664    -1.1005804595     2.7460103385
   28      H       5.6653415960    -2.4770486708     2.0307538874
   29      H       7.8324490821    -0.8830384306     0.8204825601
   30      H       6.8275971931    -2.0290582119    -0.1315897849
   31      H       6.6312490439     0.6797521694    -0.7116751154
   32      O      -2.6606069509    -2.3996973279     0.1831017156
   33      C      -2.2115095932     3.1797935662     1.4839836799
   34      C      -5.6075024690     0.4444810846     0.8643659378
[...]
     15  O        -3.0010175675    2.4390698486    0.9126926665
     16  O         2.8575195383    1.2773000453   -1.1043526571
     17  O         1.7917742801    0.4055576827    1.4133736861
     18  C         2.3615003546    2.4018250706   -1.9284958823
     19  C         4.6646600577   -0.2995646485    1.7169380182
     20  C         5.8567484319   -1.3042111031    1.9499071760
     21  C         6.7344740357   -1.0158826172    0.6743841647
     22  C         5.9376370748    0.1779192922    0.0110560411
     23  O         5.3392789404    0.8961009674    1.1584569284
     24  H         3.7677162268   -1.9617894978    0.5336419113
     25  H         4.9038619385   -1.2431847538   -1.3932728578
     26  H         4.0713941498   -0.0270871022    2.6114799988
     27  H         6.3984270851   -1.0529797167    2.8758843641
     28  H         5.5184348492   -2.3508958214    2.0091040949
     29  H         7.7532909821   -0.6958466678    0.9444390687
     30  H         6.8055755746   -1.8858008944    0.0018080378
     31  H         6.5480426739    0.8643989232   -0.6079811513
     32  O        -2.6937059092   -2.4784789845    0.1153321206
     33  C        -1.7829985149    2.7560241212    1.6992482019
     34  C        -5.6026998105    0.5394365809    0.8428024989
     35  C        -6.9253294544    0.4819160355   -0.0210264124
     36  C        -6.8550983996   -0.9828764599   -0.5933128048
     37  C        -5.4779215034   -1.4719271424    0.0018221703
     38  O        -5.4426257575   -0.8428298526    1.3435598671
     39  H        -4.5395119983    1.4958540019   -0.8908892668
     40  H        -4.5166629943   -0.6930808423   -1.8706887923
     41  H        -0.8643208592    2.3962911403    1.1923927641
     42  H        -5.6180325322    1.2618338226    1.6822406106
     43  H        -7.8097258321    0.6254496459    0.6199499629
     44  H        -6.9352196081    1.2477059912   -0.8132192209
     45  H        -7.6813074497   -1.6041276310   -0.2126077374
     46  H        -6.8679556693   -1.0119814690   -1.6946104574
     47  H        -5.3482555511   -2.5681739653    0.0883436120
     48  H        -1.8253336629    2.3024253250    2.7103987766
     49  H        -1.7565182857    3.8574746040    1.7876649633
     50  H         1.4744062222    2.7968305674   -1.3999986771
     51  H         2.0694486195    2.0627647566   -2.9437662019
     52  H         3.1246161072    3.2002113794   -2.0273965585
     53  H         0.2465041669    0.4737763838   -1.0958603062
     54  H        -0.2544982035   -0.3313607144    0.4308547402
     55  H        -0.2523806261   -1.6702685510   -2.3965570708
     56  H        -0.7580845703   -2.4757334361   -0.8426821658
   Point Group: c1    Number of degrees of freedom:   162


   Energy is  -1510.285962765

              Constraints and their Current Values
                                        Value     Constraint
   Dihedral:        1   2   3   4      -16.010      -16.010
   Dihedral:        3   4   5   6      -77.451      -77.451
   Dihedral:        4   5   6   7      177.961      177.961
   Dihedral:        5   6   7   8     -100.598     -100.598
   Dihedral:        6   7   8   9     -177.208     -177.208
   Dihedral:        7   8   9  10     -164.253     -164.253
   Dihedral:        8   9  10  11     -172.288     -172.288
   Dihedral:        9  10  11  12       70.261       70.261
   Dihedral:       11  12  13  14      179.176      179.176
 Hessian Updated using BFGS Update

153 Hessian modes will be used to form the next step
  Hessian Eigenvalues:
     0.002909    0.005023    0.011333    0.023328    0.044717    0.045015
     0.045066    0.045244    0.045644    0.046218    0.047429    0.048497
     0.049658    0.054813    0.060010    0.062413    0.063638    0.065791
     0.066897    0.067194    0.067462    0.069441    0.071878    0.072780
     0.073855    0.074474    0.076051    0.076498    0.077939    0.078779
     0.082310    0.082598    0.083461    0.084040    0.084439    0.084846
     0.085770    0.085869    0.086440    0.086915    0.087750    0.087996
     0.089122    0.089336    0.089669    0.090124    0.092694    0.094024
     0.094276    0.094956    0.096672    0.096921    0.111593    0.111690
     0.114644    0.114800    0.115782    0.115904    0.117552    0.117849
     0.118400    0.120153    0.122909    0.124189    0.126185    0.130238
     0.131590    0.132518    0.157138    0.158849    0.160000    0.160054
     0.160138    0.160289    0.160509    0.162746    0.172148    0.172698
     0.200616    0.204779    0.219170    0.226620    0.239195    0.239984
     0.245324    0.249293    0.249567    0.249996    0.250078    0.250786
     0.252073    0.253201    0.262000    0.267064    0.267132    0.268840
     0.275883    0.282092    0.284184    0.287806    0.296295    0.296767
     0.298441    0.303462    0.310189    0.312096    0.316296    0.321711
     0.321946    0.322192    0.322410    0.322440    0.322534    0.322903
     0.323379    0.323473    0.323612    0.323735    0.324065    0.324110
     0.324270    0.324565    0.324606    0.324758    0.324858    0.325076
     0.325249    0.325447    0.325595    0.326668    0.326759    0.328454
     0.330710    0.337778    0.356781    0.364721    0.368773    0.368864
     0.385402    0.415418    0.423469    0.457628    0.467782    0.489275
     0.514763    0.530099    0.551334    0.599279    0.617557    0.925048
     0.933180    0.946104    1.013128

 Minimum Search - Taking Simple RFO Step
 Searching for Lamda that Minimizes Along All modes
 Value Taken    Lamda =  -0.00000126
 Step Taken.  Stepsize is  0.014921

                             Maximum     Tolerance    Cnvgd?
         Gradient           0.000053      0.000300     YES
         Displacement       0.005688      0.001200      NO
         Energy change      0.000001      0.000001     YES

 Final energy is   -1510.28596276457     


 ******************************
 **  OPTIMIZATION CONVERGED  **
 ******************************

                       Coordinates (Angstroms)
     ATOM                X               Y               Z
      1  O        -2.1985986580    0.2179105184    1.0525849102
      2  C        -3.0630340093    1.0373932991    0.6625772180
      3  C        -4.3627704005    0.7034880183   -0.1424302797
      4  C        -4.3110856022   -0.7436207614   -0.7864303529
      5  C        -2.9320912324   -1.4745530753   -0.5885519311
      6  O        -2.0138737452   -0.9026589268   -1.5398636576
      7  C        -0.6705817001   -1.5084951178   -1.3822349502
      8  C         0.2110921139   -0.5029467680   -0.5653672448
      9  O         1.5790336270   -1.0587374090   -0.4540400730
     10  C         2.3025557490   -0.3673701755    0.5755197588
     11  C         3.7933771081   -0.8567380822    0.5131199833
     12  C         4.6508318228   -0.3909050044   -0.7370446950
     13  C         4.0753758184    0.7589895841   -1.6417147954
     14  O         4.6396771713    1.2413276596   -2.6483161042
     15  O        -3.0010175675    2.4390698486    0.9126926665
     16  O         2.8575195383    1.2773000453   -1.1043526571
     17  O         1.7917742801    0.4055576827    1.4133736861
     18  C         2.3615003546    2.4018250706   -1.9284958823
     19  C         4.6646600577   -0.2995646485    1.7169380182
     20  C         5.8567484319   -1.3042111031    1.9499071760
     21  C         6.7344740357   -1.0158826172    0.6743841647
     22  C         5.9376370748    0.1779192922    0.0110560411
     23  O         5.3392789404    0.8961009674    1.1584569284
     24  H         3.7677162268   -1.9617894978    0.5336419113
     25  H         4.9038619385   -1.2431847538   -1.3932728578
     26  H         4.0713941498   -0.0270871022    2.6114799988
     27  H         6.3984270851   -1.0529797167    2.8758843641
     28  H         5.5184348492   -2.3508958214    2.0091040949
     29  H         7.7532909821   -0.6958466678    0.9444390687
     30  H         6.8055755746   -1.8858008944    0.0018080378
     31  H         6.5480426739    0.8643989232   -0.6079811513
     32  O        -2.6937059092   -2.4784789845    0.1153321206
     33  C        -1.7829985149    2.7560241212    1.6992482019
     34  C        -5.6026998105    0.5394365809    0.8428024989
     35  C        -6.9253294544    0.4819160355   -0.0210264124
     36  C        -6.8550983996   -0.9828764599   -0.5933128048
     37  C        -5.4779215034   -1.4719271424    0.0018221703
     38  O        -5.4426257575   -0.8428298526    1.3435598671
     39  H        -4.5395119983    1.4958540019   -0.8908892668
     40  H        -4.5166629943   -0.6930808423   -1.8706887923
     41  H        -0.8643208592    2.3962911403    1.1923927641
     42  H        -5.6180325322    1.2618338226    1.6822406106
     43  H        -7.8097258321    0.6254496459    0.6199499629
     44  H        -6.9352196081    1.2477059912   -0.8132192209
     45  H        -7.6813074497   -1.6041276310   -0.2126077374
     46  H        -6.8679556693   -1.0119814690   -1.6946104574
     47  H        -5.3482555511   -2.5681739653    0.0883436120
     48  H        -1.8253336629    2.3024253250    2.7103987766
     49  H        -1.7565182857    3.8574746040    1.7876649633
     50  H         1.4744062222    2.7968305674   -1.3999986771
     51  H         2.0694486195    2.0627647566   -2.9437662019
     52  H         3.1246161072    3.2002113794   -2.0273965585
     53  H         0.2465041669    0.4737763838   -1.0958603062
     54  H        -0.2544982035   -0.3313607144    0.4308547402
     55  H        -0.2523806261   -1.6702685510   -2.3965570708
     56  H        -0.7580845703   -2.4757334361   -0.8426821658

Z-matrix Print:
$molecule
0 1
O 
C  1 1.435781
O  2 1.249125 1 124.951022
C  1 1.480730 2 109.798296 3 12.251623 0
H  4 1.112054 1 109.640568 2 76.241730 0
H  4 1.112957 1 112.150519 2 -43.416851 0
C  4 1.567083 1 108.548469 2 -164.253037 0
H  7 1.109014 4 110.989664 1 -59.570802 0
H  7 1.111001 4 110.475009 1 63.102235 0
O  7 1.481998 4 107.643531 1 -177.207967 0
C  10 1.440549 7 110.195206 4 -100.598048 0
O  11 1.249059 10 124.720971 7 -10.645794 0
C  2 1.570326 1 107.448864 3 175.460425 0
H  13 1.105540 2 106.781539 1 -51.684379 0
C  11 1.573227 10 106.930004 7 177.960952 0
H  15 1.104732 11 107.927670 10 45.557117 0
C  15 1.584781 11 113.685782 10 -77.451044 0
H  17 1.104207 15 112.645356 11 118.577458 0
C  17 1.564878 15 112.135243 11 -5.063154 0
O  19 1.253358 17 126.398680 15 -16.010051 0
O  19 1.425167 17 109.650420 15 164.658725 0
C  21 1.484150 19 109.801412 17 178.890067 0
H  22 1.105311 21 105.954195 19 175.669312 0
H  22 1.109040 21 111.377968 19 -65.207219 0
H  22 1.109179 21 111.610323 19 56.098814 0
C  15 1.585332 11 111.664364 10 168.874419 0
H  26 1.107274 15 114.047202 11 -31.597018 0
O  26 1.482319 15 103.742821 11 88.397671 0
C  28 1.478865 26 95.025887 15 56.156592 0
H  29 1.107587 28 110.762203 26 179.585321 0
C  26 1.577965 15 108.207416 11 -162.309913 0
H  31 1.101595 26 110.453705 15 169.021243 0
H  31 1.101757 26 112.271373 15 47.427939 0
C  31 1.574186 26 100.965210 15 -72.958098 0
H  34 1.101639 31 111.627894 26 -119.650119 0
H  34 1.101863 31 112.688850 26 117.698438 0
C  13 1.585920 2 116.941542 1 70.261033 0
H  37 1.105007 13 111.431816 2 -112.368271 0
C  37 1.572207 13 118.068742 2 13.231357 0
O  39 1.250733 37 125.451658 13 179.176045 0
O  39 1.428488 37 111.159636 13 4.134488 0
C  41 1.479799 39 110.609289 37 177.247965 0
H  42 1.105565 41 105.916416 39 -175.236923 0
H  42 1.108850 41 111.477907 39 -55.932400 0
H  42 1.109518 41 111.446182 39 65.636498 0
C  13 1.587058 2 112.435897 1 -172.986398 0
H  46 1.107436 13 113.889941 2 24.021631 0
O  46 1.482103 13 104.317107 2 -96.495878 0
C  48 1.479982 46 94.858042 13 -54.735263 0
H  49 1.107726 48 110.812733 46 -179.051285 0
C  46 1.576282 13 107.669996 2 154.496297 0
H  51 1.101594 46 112.412147 13 -49.064319 0
H  51 1.101802 46 110.529296 13 -170.861743 0
C  51 1.574959 46 100.666388 13 71.296305 0
H  54 1.101517 51 111.721432 46 121.871160 0
H  54 1.101895 51 112.691252 46 -115.502361 0
$end

 
 --------------------------------------------------------------
 
                    Orbital Energies (a.u.)
 --------------------------------------------------------------
 
 Alpha MOs
 -- Occupied --
-18.946 -18.943 -18.919 -18.918 -18.889 -18.888 -18.884 -18.874
-18.866 -18.862 -10.109 -10.102 -10.094 -10.093 -10.069 -10.068
-10.063 -10.060 -10.059 -10.058 -10.054 -10.054 -10.042 -10.039
-10.036 -10.032 -10.022 -10.020 -10.019 -10.017  -1.022  -1.016
 -1.002  -0.997  -0.972  -0.968  -0.945  -0.938  -0.930  -0.924
 -0.765  -0.760  -0.726  -0.722  -0.710  -0.703  -0.690  -0.667
 -0.665  -0.612  -0.597  -0.576  -0.546  -0.542  -0.537  -0.535
 -0.513  -0.509  -0.484  -0.477  -0.463  -0.457  -0.454  -0.444
 -0.435  -0.431  -0.423  -0.416  -0.415  -0.413  -0.410  -0.393
 -0.393  -0.380  -0.377  -0.365  -0.362  -0.358  -0.353  -0.345
 -0.342  -0.338  -0.335  -0.331  -0.329  -0.326  -0.320  -0.313
 -0.308  -0.305  -0.305  -0.302  -0.297  -0.292  -0.279  -0.274
 -0.268  -0.260  -0.244  -0.242  -0.239  -0.235  -0.232  -0.187
 -0.182  -0.168  -0.163  -0.161  -0.155  -0.148  -0.146  -0.143
 -0.142
 -- Virtual --
  0.088   0.098   0.113   0.114   0.218   0.238   0.246   0.251
  0.254   0.281   0.283   0.294   0.306   0.315   0.328   0.331
  0.332   0.342   0.344   0.352   0.354   0.363   0.370   0.372
  0.377   0.382   0.394   0.397   0.400   0.406   0.410   0.413
  0.415   0.418   0.419   0.420   0.424   0.425   0.429   0.430
  0.431   0.435   0.437   0.442   0.444   0.449   0.452   0.465
  0.469   0.474   0.485   0.493   0.497   0.506   0.507   0.539
  0.544   0.550   0.556   0.635   0.638   0.653   0.657
 --------------------------------------------------------------
 
          Ground-State Mulliken Net Atomic Charges

     Atom                 Charge (a.u.)
  ----------------------------------------
      1 O                    -0.207441
      2 C                     0.216281
      3 C                    -0.078025
      4 C                    -0.080541
      5 C                     0.216576
      6 O                    -0.182523
      7 C                    -0.053062
      8 C                    -0.055557
      9 O                    -0.180166
     10 C                     0.221788
     11 C                    -0.081043
     12 C                    -0.076900
     13 C                     0.212384
     14 O                    -0.216001
     15 O                    -0.167008
     16 O                    -0.165706
     17 O                    -0.218929
     18 C                    -0.125745
     19 C                     0.023829
     20 C                    -0.143078
     21 C                    -0.144616
     22 C                     0.024714
     23 O                    -0.191334
     24 H                     0.083604
     25 H                     0.086456
     26 H                     0.090091
     27 H                     0.077660
     28 H                     0.073497
     29 H                     0.078071
     30 H                     0.073562
     31 H                     0.084991
     32 O                    -0.214154
     33 C                    -0.129156
     34 C                     0.025491
     35 C                    -0.143765
     36 C                    -0.143783
     37 C                     0.025005
     38 O                    -0.188043
     39 H                     0.087402
     40 H                     0.084821
     41 H                     0.096376
     42 H                     0.084135
     43 H                     0.078612
     44 H                     0.073791
     45 H                     0.078593
     46 H                     0.073492
     47 H                     0.090334
     48 H                     0.093180
     49 H                     0.092365
     50 H                     0.091635
     51 H                     0.089106
     52 H                     0.094159
     53 H                     0.075066
     54 H                     0.105900
     55 H                     0.083688
     56 H                     0.099921
  ----------------------------------------
  Sum of atomic charges =     0.000000

 -----------------------------------------------------------------
                    Cartesian Multipole Moments
 -----------------------------------------------------------------
    Charge (ESU x 10^10)
                 0.0000
    Dipole Moment (Debye)
         X      -1.1714      Y       0.9217      Z      -1.6981
       Tot       2.2595
    Quadrupole Moments (Debye-Ang)
        XX    -146.4375     XY     -14.6477     YY    -157.5326
        XZ       9.7289     YZ       2.8101     ZZ    -162.9625
    Octopole Moments (Debye-Ang^2)
       XXX     -50.4188    XXY     -36.0018    XYY      13.3230
       YYY      26.6860    XXZ     -10.9404    XYZ     -21.6257
       YYZ      -7.1454    XZZ     -13.5839    YZZ       4.0074
       ZZZ       8.7611
    Hexadecapole Moments (Debye-Ang^3)
      XXXX  -17016.6946   XXXY    -387.7498   XXYY   -3303.6073
      XYYY     -98.1374   YYYY   -1783.7427   XXXZ     273.5441
      XXYZ      56.8075   XYYZ     -19.7903   YYYZ      12.9632
      XXZZ   -3379.5572   XYZZ    -110.9911   YYZZ    -542.1136
      XZZZ      68.2209   YZZZ      34.6885   ZZZZ   -1543.7774
 -----------------------------------------------------------------
Archival summary:
1\1\vega02.cac.cornell.edu\OPT\ProcedureUnspecified\STO-3G\102026\jj585\MonJan1504:10:252018MonJan1504:10:252018\0\\#,OPT,ProcedureUnspecified,STO-3G,\\0,1\O\C,1,1.43578\O,2,1.24913,1,124.951\C,1,1.48073,2,109.798,3,12.2516,0\H,4,1.11205,1,109.641,2,76.2417,0\H,4,1.11296,1,112.151,2,-43.4169,0\C,4,1.56708,1,108.548,2,-164.253,0\H,7,1.10901,4,110.99,1,-59.5708,0\H,7,1.111,4,110.475,1,63.1022,0\O,7,1.482,4,107.644,1,-177.208,0\C,10,1.44055,7,110.195,4,-100.598,0\O,11,1.24906,10,124.721,7,-10.6458,0\C,2,1.57033,1,107.449,3,175.46,0\H,13,1.10554,2,106.782,1,-51.6844,0\C,11,1.57323,10,106.93,7,177.961,0\H,15,1.10473,11,107.928,10,45.5571,0\C,15,1.58478,11,113.686,10,-77.451,0\H,17,1.10421,15,112.645,11,118.577,0\C,17,1.56488,15,112.135,11,-5.06315,0\O,19,1.25336,17,126.399,15,-16.0101,0\O,19,1.42517,17,109.65,15,164.659,0\C,21,1.48415,19,109.801,17,178.89,0\H,22,1.10531,21,105.954,19,175.669,0\H,22,1.10904,21,111.378,19,-65.2072,0\H,22,1.10918,21,111.61,19,56.0988,0\C,15,1.58533,11,111.664,10,168.874,0\H,26,1.10727,15,114.047,11,-31.597,0\O,26,1.48232,15,103.743,11,88.3977,0\C,28,1.47887,26,95.0259,15,56.1566,0\H,29,1.10759,28,110.762,26,179.585,0\C,26,1.57796,15,108.207,11,-162.31,0\H,31,1.10159,26,110.454,15,169.021,0\H,31,1.10176,26,112.271,15,47.4279,0\C,31,1.57419,26,100.965,15,-72.9581,0\H,34,1.10164,31,111.628,26,-119.65,0\H,34,1.10186,31,112.689,26,117.698,0\C,13,1.58592,2,116.942,1,70.261,0\H,37,1.10501,13,111.432,2,-112.368,0\C,37,1.57221,13,118.069,2,13.2314,0\O,39,1.25073,37,125.452,13,179.176,0\O,39,1.42849,37,111.16,13,4.13449,0\C,41,1.4798,39,110.609,37,177.248,0\H,42,1.10557,41,105.916,39,-175.237,0\H,42,1.10885,41,111.478,39,-55.9324,0\H,42,1.10952,41,111.446,39,65.6365,0\C,13,1.58706,2,112.436,1,-172.986,0\H,46,1.10744,13,113.89,2,24.0216,0\O,46,1.4821,13,104.317,2,-96.4959,0\C,48,1.47998,46,94.858,13,-54.7353,0\H,49,1.10773,48,110.813,46,-179.051,0\C,46,1.57628,13,107.67,2,154.496,0\H,51,1.10159,46,112.412,13,-49.0643,0\H,51,1.1018,46,110.529,13,-170.862,0\C,51,1.57496,46,100.666,13,71.2963,0\H,54,1.10152,51,111.721,46,121.871,0\H,54,1.10189,51,112.691,46,-115.502,0\\\@

 Total job time:  51.26s(wall), 2437.50s(cpu) 
 Mon Jan 15 04:10:25 2018

        *************************************************************
        *                                                           *
        *  Thank you very much for using Q-Chem.  Have a nice day.  *
        *                                                           *
        *************************************************************


0 sent ACK to 0 
now end server 0 ... 
