mFile = /opt/software/qchem/qchem-5.0.1//bin/mpi/machines
Process 0 of 1 is on vega02.cac.cornell.edu - thread support 0
initial socket setup ...start
initial socket setup ...done 
now start server 0 ... 
vega02.cac.cornell.edu 10.84.3
Q-Chem Developer Version! Running on 10.84.3.*
                  Welcome to Q-Chem
     A Quantum Leap Into The Future Of Chemistry


 Q-Chem 5.0, Q-Chem, Inc., Pleasanton, CA (2017)

 Yihan Shao,  Zhengting Gan,  E. Epifanovsky,  A. T. B. Gilbert,  M. Wormit,  
 J. Kussmann,  A. W. Lange,  A. Behn,  Jia Deng,  Xintian Feng,  D. Ghosh,  
 M. Goldey,  P. R. Horn,  L. D. Jacobson,  I. Kaliman,  T. Kus,  A. Landau,  
 Jie Liu,  E. I. Proynov,  R. M. Richard,  R. P. Steele,  E. J. Sundstrom,  
 H. L. Woodcock III,  P. M. Zimmerman,  D. Zuev,  B. Albrecht,  E. Alguire,  
 S. A. Baeppler,  Z. Benda,  Y. A. Bernard,  E. J. Berquist,  K. B. Bravaya,  
 D. Casanova,  Chun-Min Chang,  Yunqing Chen,  A. Chien,  K. D. Closser,  
 M. P. Coons,  S. Dasgupta,  M. Diedenhofen,  Hainam Do,  R. G. Edgar,  
 Po-Tung Fang,  S. Fatehi,  Qingguo Feng,  Qinghui Ge,  A. Ghysels,  
 J. Gomes,  J. Gonthier,  A. Gunina,  M. W. D. Hanson-Heine,  
 P. H. P. Harbach,  A. W. Hauser,  J. E. Herr,  E. G. Hohenstein,  
 Z. C. Holden,  Kerwin Hui,  T.-C. Jagau,  Hyunjun Ji,  B. Kaduk,  
 K. Khistyaev,  Jaehoon Kim,  P. Klunzinger,  K. Koh,  D. Kosenkov,  
 T. Kowalczyk,  C. M. Krauter,  A. Kunitsa,  Ka Un Lao,  A. Laurent,  
 K. V. Lawler,  Joonho Lee,  D. Lefrancois,  S. Lehtola,  D. S. Levine,  
 Yi-Pei Li,  You-Sheng Lin,  Fenglai Liu,  E. Livshits,  A. Luenser,  
 P. Manohar,  E. Mansoor,  S. F. Manzer,  Shan-Ping Mao,  Yuezhi Mao,  
 N. Mardirossian,  A. V. Marenich,  L. A. Martinez-Martinez,  S. A. Maurer,  
 N. J. Mayhall,  S. C. McKenzie,  J.-M. Mewes,  A. F. Morrison,  K. Nanda,  
 T. S. Nguyen-Beck,  R. Olivares-Amaya,  J. A. Parkhill,  T. M. Perrine,  
 F. Plasser,  S. Prager,  A. Prociuk,  D. R. Rehn,  F. Rob,  M. Schneider,  
 N. Sergueev,  S. M. Sharada,  S. Sharma,  D. W. Small,  T. Stauch,  
 T. Stein,  Yu-Chuan Su,  A. J. W. Thom,  T. Tsuchimochi,  L. Vogt,  
 O. Vydrov,  M. A. Watson,  J. Wenzel,  M. de Wergifosse,  T. A. Wesolowski,  
 A. White,  J. Witte,  A. Yamada,  Jun Yang,  K. Yao,  S. Yeganeh,  
 S. R. Yost,  Zhi-Qiang You,  A. Zech,  Igor Ying Zhang,  Xing Zhang,  
 Yan Zhao,  Ying Zhu,  B. R. Brooks,  G. K. L. Chan,  C. J. Cramer,  
 M. S. Gordon,  W. J. Hehre,  A. Klamt,  M. W. Schmidt,  C. D. Sherrill,  
 D. G. Truhlar,  A. Aspuru-Guzik,  R. Baer,  A. T. Bell,  N. A. Besley,  
 Jeng-Da Chai,  A. Dreuw,  B. D. Dunietz,  T. R. Furlani,  Chao-Ping Hsu,  
 Yousung Jung,  Jing Kong,  D. S. Lambrecht,  WanZhen Liang,  C. Ochsenfeld,  
 V. A. Rassolov,  L. V. Slipchenko,  J. E. Subotnik,  T. Van Voorhis,  
 J. M. Herbert,  A. I. Krylov,  P. M. W. Gill,  M. Head-Gordon

 Contributors to earlier versions of Q-Chem not listed above: 
 R. D. Adamson,  B. Austin,  J. Baker,  G. J. O. Beran,  K. Brandhorst,  
 S. T. Brown,  E. F. C. Byrd,  A. K. Chakraborty,  C.-L. Cheng,  
 Siu Hung Chien,  D. M. Chipman,  D. L. Crittenden,  H. Dachsel,  
 R. A. DiStasio Jr.,  R. J. Doerksen,  A. D. Dutoi,  L. Fusti-Molnar,  
 W. A. Goddard III,  A. Golubeva-Zadorozhnaya,  S. R. Gwaltney,  G. Hawkins,  
 A. Heyden,  S. Hirata,  G. Kedziora,  F. J. Keil,  C. Kelley,  Jihan Kim,  
 R. A. King,  R. Z. Khaliullin,  P. P. Korambath,  W. Kurlancheek,  
 A. M. Lee,  M. S. Lee,  S. V. Levchenko,  Ching Yeh Lin,  D. Liotard,  
 R. C. Lochan,  I. Lotan,  P. E. Maslen,  N. Nair,  D. P. O'Neill,  
 D. Neuhauser,  E. Neuscamman,  C. M. Oana,  R. Olson,  B. Peters,  
 R. Peverati,  P. A. Pieniazek,  Y. M. Rhee,  J. Ritchie,  M. A. Rohrdanz,  
 E. Rosta,  N. J. Russ,  H. F. Schaefer III,  N. E. Schultz,  N. Shenvi,  
 A. C. Simmonett,  A. Sodt,  D. Stuck,  K. S. Thanthiriwatte,  V. Vanovschi,  
 Tao Wang,  A. Warshel,  C. F. Williams,  Q. Wu,  X. Xu,  W. Zhang

 Please cite Q-Chem as follows:
 Y. Shao et al., Mol. Phys. 113, 184-215 (2015)
 DOI: 10.1080/00268976.2014.952696

 Q-Chem 5.0.1 for Intel X86 EM64T Linux

 Parts of Q-Chem use Armadillo 5.200.1 (Boston Tea Smuggler).
 http://arma.sourceforge.net/

 Q-Chem begins on Mon Jan 15 04:43:20 2018  

Host: vega02.cac.cornell.edu
0

     Scratch files written to /scratch/jj585/SOT1001/0669c.save//
 Parallel job on  1  processors

Checking the input file for inconsistencies... 	...done.

--------------------------------------------------------------
User input:
--------------------------------------------------------------
$molecule
0  1
O -3.94934 -3.66094 2.70899
C -3.26408 -4.56952 2.26188
C -3.36658 -6.02376 2.66595
C -2.27333 -6.57303 3.59705
C -1.29943 -5.56331 4.16282
O -0.02166 -5.91652 3.83424
C 0.82949 -6.07539 4.97422
C 2.29312 -6.00129 4.55179
O 3.12546 -6.58512 5.56629
C 4.18409 -7.30047 5.1116
C 3.97565 -8.79237 5.21861
C 4.53958 -9.61039 4.04768
C 5.51786 -8.88519 3.14558
O 6.71979 -8.78006 3.34276
O -2.25666 -4.26898 1.40157
O 4.9637 -8.20812 2.10622
O 5.28004 -6.77886 4.97021
C 5.67733 -7.44184 1.20901
C 4.73593 -9.41932 6.40455
C 4.06063 -10.72846 6.80984
C 4.41509 -11.60434 5.62559
C 5.34191 -10.65604 4.8541
O 5.94519 -9.87363 5.85526
H 2.88714 -8.97747 5.37259
H 3.76876 -10.09619 3.40963
H 4.82016 -8.73995 7.28102
H 4.60313 -11.10515 7.70676
H 2.97594 -10.66207 7.04213
H 4.97204 -12.49146 6.00066
H 3.55607 -11.92748 4.99848
H 6.03704 -11.23718 4.20792
O -1.59099 -4.61683 4.8821
C -1.96769 -2.99566 0.95808
C -4.60679 -6.28994 3.55325
C -4.99242 -7.76842 3.49107
C -3.88112 -8.38437 4.31319
C -3.12849 -7.12384 4.74844
O -4.13759 -6.15288 4.87193
H -3.484 -6.60808 1.72586
H -1.6979 -7.38312 3.092
H -1.7071 -2.34138 1.81742
H -5.48499 -5.66502 3.27901
H -5.94937 -7.88687 4.04833
H -5.11171 -8.18018 2.46587
H -4.33349 -8.88399 5.19875
H -3.22587 -9.09847 3.76897
H -2.52727 -7.32639 5.66272
H -2.83918 -2.57289 0.41391
H -1.10114 -3.03922 0.26694
H 4.97821 -7.00658 0.46588
H 6.42123 -8.07126 0.67528
H 6.19574 -6.6148 1.73969
H 2.39835 -6.57962 3.60257
H 2.58185 -4.94778 4.34931
H 0.62447 -7.08569 5.39292
H 0.65806 -5.3173 5.77227
$end

$opt
CONSTRAINT
tors           1           2           3           4    -104.211
tors           3           4           5           6    -123.158
tors           4           5           6           7    -123.158
tors           5           6           7           8    -161.053
tors           6           7           8           9    -161.053
tors           7           8           9          10    +142.105
tors           8           9          10          11    -104.211
tors           9          10          11          12    +142.105
tors          11          12          13          14     +85.263
ENDCONSTRAINT
$end

$rem
JOBTYPE                   OPT
METHOD                    B3LYP
DFT_D                     d3_op
BASIS                     STO-3G
GEOM_OPT_MAX_CYCLES       100
GEOM_OPT_TOL_GRADIENT     300
GEOM_OPT_TOL_DISPLACEMENT 1200
GEOM_OPT_TOL_ENERGY       100
SYMMETRY                  False
THRESH                    12
SCF_CONVERGENCE           8
MAX_SUB_FILE_NUM          128
MEM_STATIC                400
MEM_TOTAL                 4000
$end
--------------------------------------------------------------
 Adding empirical dispersion correction 
 ----------------------------------------------------------------
 Doing -D3(op) with
 s6 =   1.00000
 s8 =   0.78311
 a1 =   0.30000
 a2 =   4.25000
 n  =  10.00000
 -D3 energy without 3body term =     -0.0647712010 hartrees
 ----------------------------------------------------------------
             Standard Nuclear Orientation (Angstroms)
    I     Atom           X                Y                Z
 ----------------------------------------------------------------
    1      O      -6.1042814993     1.2617023618     0.5040336570
    2      C      -5.1943506054     1.1886429482    -0.3094123010
    3      C      -4.6609127302    -0.0915940216    -0.9135895322
    4      C      -3.3144352283    -0.6110106298    -0.3834527298
    5      C      -2.7380447684     0.1099792397     0.8149040731
    6      O      -1.4881693156     0.5748541591     0.5197414818
    7      C      -0.4825959313     0.0970533055     1.4196186472
    8      C       0.7558008755     0.9839743095     1.3428386133
    9      O       1.8910414579     0.2869117032     1.8796720488
   10      C       3.0639480689     0.4969252526     1.2320992835
   11      C       3.4714375863    -0.6670885859     0.3604984226
   12      C       4.1278224983    -0.2790098164    -0.9724698989
   13      C       4.5999640723     1.1567988006    -1.0832271016
   14      O       5.6808741378     1.5791587083    -0.6987618459
   15      O      -4.5241181244     2.3209084252    -0.6472228323
   16      O       3.6775409881     2.0420914971    -1.5427690423
   17      O       3.8358294478     1.3703954143     1.5987374433
   18      C       3.8938760318     3.3987958909    -1.6610523299
   19      C       4.5835561897    -1.5277634311     0.9929355241
   20      C       4.5400568816    -2.9351636704     0.4000864789
   21      C       5.0265998437    -2.6606184890    -1.0081594577
   22      C       5.3845795063    -1.1738085014    -0.8868678899
   23      O       5.7776003522    -1.0223182542     0.4551525391
   24      H       2.5771540816    -1.3162565589     0.2133120560
   25      H       3.5212014719    -0.5187197784    -1.8734820960
   26      H       4.5263354541    -1.5734926887     2.1026528634
   27      H       5.3136549479    -3.5324904588     0.9343278401
   28      H       3.5629956869    -3.4599510118     0.4698599729
   29      H       5.9342344561    -3.2774557655    -1.1913639516
   30      H       4.2781040683    -2.8309990806    -1.8121036724
   31      H       6.1462662446    -0.8970235276    -1.6495614063
   32      O      -3.2642912400     0.1955002169     1.9166963203
   33      C      -4.8235030474     3.5756150644    -0.1597694695
   34      C      -5.5520798465    -1.3086661945    -0.5659828241
   35      C      -5.3361088557    -2.4286853277    -1.5845080481
   36      C      -3.9635208003    -2.9190846226    -1.1773545772
   37      C      -3.7053866607    -2.0336654254     0.0450324202
   38      O      -4.9822344715    -1.8455254360     0.6023105592
   39      H      -4.6803653434     0.0451162851    -2.0180887014
   40      H      -2.5513274133    -0.6243895910    -1.1958125402
   41      H      -4.7132167106     3.5927259572     0.9456710958
   42      H      -6.6345462514    -1.0589853825    -0.5121887868
   43      H      -6.0765978185    -3.2298839813    -1.3607241658
   44      H      -5.4371586109    -2.1226204037    -2.6479574597
   45      H      -4.0479785161    -3.9842781055    -0.8663802807
   46      H      -3.1710899407    -2.8115132218    -1.9493315894
   47      H      -2.9436411312    -2.5000440872     0.7088355547
   48      H      -5.8614273764     3.8570373584    -0.4388122291
   49      H      -4.1220653879     4.3136554308    -0.5999540934
   50      H       2.9780663707     3.8794148219    -2.0620016368
   51      H       4.7354697599     3.5924078253    -2.3600937270
   52      H       4.1221770412     3.8379698032    -0.6663813913
   53      H       0.9350186732     1.2179478369     0.2659472911
   54      H       0.5777577888     1.9400058687     1.8800078607
   55      H      -0.2130329471    -0.9302197636     1.0878132530
   56      H      -0.8145409417     0.0528552814     2.4820834890
 ----------------------------------------------------------------
 Molecular Point Group                 C1    NOp =  1
 Largest Abelian Subgroup              C1    NOp =  1
 Nuclear Repulsion Energy =  3060.5342212247 hartrees
 There are      113 alpha and      113 beta electrons
 Requested basis set is STO-3G
 There are 86 shells and 176 basis functions

 Total QAlloc Memory Limit   4000 MB
 Mega-Array Size       392 MB
 MEM_STATIC part       400 MB
 A cutoff of  1.0D-12 yielded   2029 shell pairs
 There are      9304 function pairs
 
 -------------------------------------------------------
 OpenMP Integral Computing Module                       
 Release: version 1.0, May 2013, Q-Chem Inc. Pittsburgh 
 -------------------------------------------------------
 Integral Job Info:
 Integral job number is                      11
 Integral operator is                         1
 short-range coefficients                     0
 long-range coefficients              100000000
 Omega coefficients                           0
 if combine SR and LR in K                    0
 Integral screening is                        0
 Integral computing path is                   2
 max size of driver memory is            800000
 size of driver memory is                 45569
 size of scratch memory is              1046100
 max col of scratch BK array                289
 max len of scratch array in speh3           22
 max len of scratch index in speh4            8
 max int batch size is                      520
 min int batch size is                       52
 fixed nKL is                                52
 max L of basis functions is                  1
 order of int derivative is                   0
 number of shells is                         86
 number of basis is                         176
 number of cartesian basis is               176
 number of contracted shell pairs          2029
 number of primitive shell pairs          10590
 maxK2 (contraction) of shell pair            9
 max number of K2 of shell pair               1
 max number of CS2 of shell pair            290
 max number of PS2 of shell pair           1176
 mem total for path MDJ                   49782
 -------------------------------------------------------
 Smallest overlap matrix eigenvalue = 1.93E-01

 Scale SEOQF with 1.000000e-02/1.000000e-01/1.000000e-01

 Standard Electronic Orientation quadrupole field applied
 Nucleus-field energy     =     0.0000000387 hartrees
 Guess from superposition of atomic densities
 Warning:  Energy on first SCF cycle will be non-variational
 A restricted hybrid HF-DFT SCF calculation will be
 performed using Pulay DIIS extrapolation
 Exchange:     0.2000 Hartree-Fock + 0.0800 Slater + 0.7200 B88
 Correlation:  0.1900 VWN1RPA + 0.8100 LYP
 Using SG-1 standard quadrature grid
 Dispersion:   Grimme D3
 SCF converges when DIIS error is below 1.0E-08
 using 48 threads for integral computing
 -------------------------------------------------------
 OpenMP Integral computing Module                
 Release: version 1.0, May 2013, Q-Chem Inc. Pittsburgh 
 -------------------------------------------------------
 -------------------------------------------------------
 OpenMP BLAS3 based DFT computing Module                
 Release: version 1.0, May 2013, Q-Chem Inc. Pittsburgh 
 -------------------------------------------------------
 ---------------------------------------
  Cycle       Energy         DIIS Error
 ---------------------------------------
    1   -1509.4647718715      8.30E-02
    2   -1509.5310410140      1.08E-02
    3   -1507.2900163614      2.67E-02
    4   -1510.0549371478      3.57E-03
    5   -1510.1039554788      1.38E-03
    6   -1510.1110081047      5.57E-04
    7   -1510.1123225900      1.22E-04
    8   -1510.1123805445      3.77E-05
    9   -1510.1123849018      2.06E-05
   10   -1510.1123867059      3.43E-06
   11   -1510.1123867601      7.21E-07
   12   -1510.1123867625      1.59E-07
   13   -1510.1123867626      9.38E-08
   14   -1510.1123867625      3.06E-08
   15   -1510.1123867625      7.16E-09 Convergence criterion met
 ---------------------------------------
 SCF time:  CPU 117.24 s  wall 2.49 s
 SCF   energy in the final basis set = -1510.11238676
 Total energy in the final basis set = -1510.11238676
 
 --------------------------------------------------------------
 
                    Orbital Energies (a.u.)
 --------------------------------------------------------------
 
 Alpha MOs
 -- Occupied --
-18.932 -18.930 -18.928 -18.917 -18.903 -18.903 -18.896 -18.889
-18.857 -18.856 -10.123 -10.120 -10.110 -10.108 -10.090 -10.089
-10.081 -10.080 -10.075 -10.073 -10.069 -10.068 -10.044 -10.042
-10.040 -10.039 -10.022 -10.020 -10.019 -10.019  -1.048  -1.046
 -1.042  -1.040  -1.027  -1.027  -0.965  -0.959  -0.946  -0.944
 -0.787  -0.786  -0.749  -0.746  -0.738  -0.727  -0.721  -0.683
 -0.682  -0.631  -0.611  -0.594  -0.560  -0.558  -0.542  -0.541
 -0.533  -0.526  -0.505  -0.491  -0.488  -0.476  -0.468  -0.466
 -0.460  -0.451  -0.447  -0.430  -0.430  -0.428  -0.426  -0.418
 -0.412  -0.403  -0.392  -0.389  -0.383  -0.379  -0.368  -0.366
 -0.361  -0.351  -0.349  -0.343  -0.339  -0.330  -0.328  -0.321
 -0.315  -0.314  -0.310  -0.304  -0.301  -0.295  -0.292  -0.283
 -0.281  -0.249  -0.239  -0.239  -0.237  -0.226  -0.225  -0.178
 -0.174  -0.172  -0.171  -0.163  -0.158  -0.156  -0.155  -0.140
 -0.138
 -- Virtual --
  0.075   0.086   0.117   0.118   0.224   0.238   0.251   0.289
  0.295   0.318   0.325   0.330   0.335   0.339   0.343   0.351
  0.357   0.373   0.384   0.388   0.389   0.390   0.392   0.397
  0.399   0.403   0.403   0.406   0.411   0.414   0.416   0.426
  0.427   0.429   0.436   0.437   0.439   0.443   0.448   0.449
  0.451   0.460   0.464   0.469   0.470   0.479   0.482   0.485
  0.486   0.487   0.493   0.521   0.521   0.544   0.548   0.553
  0.556   0.574   0.577   0.669   0.678   0.697   0.697
 --------------------------------------------------------------
 
          Ground-State Mulliken Net Atomic Charges

     Atom                 Charge (a.u.)
  ----------------------------------------
      1 O                    -0.228730
      2 C                     0.235606
      3 C                    -0.081230
      4 C                    -0.083657
      5 C                     0.240853
      6 O                    -0.206123
      7 C                    -0.034534
      8 C                    -0.029650
      9 O                    -0.221417
     10 C                     0.247388
     11 C                    -0.087930
     12 C                    -0.082217
     13 C                     0.235795
     14 O                    -0.222915
     15 O                    -0.214836
     16 O                    -0.218042
     17 O                    -0.190351
     18 C                    -0.099145
     19 C                     0.041512
     20 C                    -0.141372
     21 C                    -0.144852
     22 C                     0.044183
     23 O                    -0.201585
     24 H                     0.079554
     25 H                     0.084162
     26 H                     0.086395
     27 H                     0.077156
     28 H                     0.071448
     29 H                     0.077369
     30 H                     0.070567
     31 H                     0.086050
     32 O                    -0.202730
     33 C                    -0.098223
     34 C                     0.042345
     35 C                    -0.142951
     36 C                    -0.143392
     37 C                     0.040747
     38 O                    -0.203871
     39 H                     0.085330
     40 H                     0.084709
     41 H                     0.089258
     42 H                     0.090973
     43 H                     0.076647
     44 H                     0.072085
     45 H                     0.076508
     46 H                     0.071062
     47 H                     0.080172
     48 H                     0.085999
     49 H                     0.093353
     50 H                     0.091701
     51 H                     0.086003
     52 H                     0.090855
     53 H                     0.085417
     54 H                     0.087588
     55 H                     0.077565
     56 H                     0.093397
  ----------------------------------------
  Sum of atomic charges =    -0.000000

 -----------------------------------------------------------------
                    Cartesian Multipole Moments
 -----------------------------------------------------------------
    Charge (ESU x 10^10)
                -0.0000
    Dipole Moment (Debye)
         X      -0.8965      Y      -1.5470      Z      -4.4735
       Tot       4.8176
    Quadrupole Moments (Debye-Ang)
        XX    -196.7864     XY      -9.7094     YY    -146.7388
        XZ       5.6050     YZ      -1.5503     ZZ    -161.8243
    Octopole Moments (Debye-Ang^2)
       XXX     -85.4584    XXY     -37.6803    XYY     -11.4762
       YYY      74.1911    XXZ    -128.0940    XYZ     -20.2950
       YYZ      -4.5779    XZZ      20.1883    YZZ      11.5801
       ZZZ       5.3448
    Hexadecapole Moments (Debye-Ang^3)
      XXXX  -19259.5911   XXXY    -288.0923   XXYY   -3286.3395
      XYYY     -37.0943   YYYY   -3244.1535   XXXZ     190.9487
      XXYZ     -39.1939   XYYZ     -36.8032   YYYZ     -69.4160
      XXZZ   -3135.8512   XYZZ       5.3094   YYZZ    -781.3214
      XZZZ     -30.9044   YZZZ     -32.5150   ZZZZ   -1304.0527
 -----------------------------------------------------------------
 Calculating analytic gradient of the SCF energy
 Gradient of SCF Energy
            1           2           3           4           5           6
    1   0.0572137   0.0108392   0.0027805  -0.0263376   0.0194985  -0.0424171
    2   0.0072460  -0.0076541  -0.0049097  -0.0116539   0.0113364  -0.0344978
    3  -0.0417917  -0.0279363   0.0480682   0.0497371   0.0016396   0.0371549
            7           8           9          10          11          12
    1  -0.0007956  -0.0082745   0.0577203  -0.0277474   0.0454483   0.0236126
    2   0.0249975  -0.0295924   0.0296667   0.0075006   0.0218056   0.0164334
    3  -0.0289980   0.0277097  -0.0471371   0.0077292   0.0197809   0.0436016
           13          14          15          16          17          18
    1  -0.0140846  -0.0674780  -0.0880436   0.1028737  -0.0393889  -0.0310581
    2  -0.0205776  -0.0113805   0.0319318   0.0636926  -0.0526202  -0.0498971
    3  -0.0180859  -0.0173379   0.0813776   0.0306172  -0.0087137  -0.0040123
           19          20          21          22          23          24
    1   0.0320467   0.0126905  -0.0009734  -0.0258723  -0.0716345  -0.0045300
    2   0.0196806   0.0468625   0.0284542  -0.0061361  -0.0317552  -0.0081829
    3  -0.0598898  -0.0221755   0.0370530   0.0713741  -0.0363154   0.0029175
           25          26          27          28          29          30
    1   0.0024444  -0.0088567   0.0111686  -0.0062980   0.0077517  -0.0057010
    2   0.0005053  -0.0091179  -0.0005353  -0.0052696  -0.0076337   0.0028899
    3  -0.0085598   0.0028377   0.0019064  -0.0004255   0.0078489  -0.0064843
           31          32          33          34          35          36
    1  -0.0036591   0.0240116   0.0298575   0.0625503   0.0311089  -0.0291323
    2  -0.0054335  -0.0051215  -0.0393329  -0.0260319   0.0181703   0.0356627
    3  -0.0120033  -0.0487079  -0.0321977   0.0310113   0.0366810   0.0213415
           37          38          39          40          41          42
    1  -0.0617017   0.0322573  -0.0094081   0.0042485   0.0043955  -0.0051549
    2   0.0293676   0.0146392   0.0010961  -0.0017038  -0.0070208  -0.0019466
    3  -0.0125133  -0.0789411  -0.0049524  -0.0074857  -0.0033886  -0.0140957
           43          44          45          46          47          48
    1  -0.0023222  -0.0007160  -0.0095139   0.0069096   0.0101791   0.0027082
    2  -0.0084040   0.0013720  -0.0078660   0.0027499  -0.0040230  -0.0070662
    3   0.0079143  -0.0080413   0.0031793  -0.0042050  -0.0076448  -0.0052741
           49          50          51          52          53          54
    1  -0.0010008   0.0008672  -0.0028171  -0.0040241   0.0028672   0.0000800
    2   0.0030495   0.0033525  -0.0086377  -0.0077138  -0.0039521  -0.0031589
    3   0.0014733  -0.0000166  -0.0013037   0.0008704  -0.0017701  -0.0005125
           55          56
    1  -0.0042510   0.0050629
    2   0.0037238   0.0026400
    3  -0.0048887   0.0019809
 Max gradient component =       1.029E-01
 RMS gradient           =       2.812E-02
 Gradient time:  CPU 33.35 s  wall 0.73 s
 Geometry Optimization Parameters
   NAtoms,    NIC,     NZ,  NCons,   NDum,   NFix, NCnnct, MaxDiis
       56     458       0       9       0       0       0       0


** CONSTRAINED OPTIMIZATION IN DELOCALIZED INTERNAL COORDINATES **
   Searching for a Minimum

   Optimization Cycle:   1

                       Coordinates (Angstroms)
     ATOM                X               Y               Z
      1  O        -6.1042814993    1.2617023618    0.5040336570
      2  C        -5.1943506054    1.1886429482   -0.3094123010
      3  C        -4.6609127302   -0.0915940216   -0.9135895322
      4  C        -3.3144352283   -0.6110106298   -0.3834527298
      5  C        -2.7380447684    0.1099792397    0.8149040731
      6  O        -1.4881693156    0.5748541591    0.5197414818
      7  C        -0.4825959313    0.0970533055    1.4196186472
      8  C         0.7558008755    0.9839743095    1.3428386133
      9  O         1.8910414579    0.2869117032    1.8796720488
     10  C         3.0639480689    0.4969252526    1.2320992835
     11  C         3.4714375863   -0.6670885859    0.3604984226
     12  C         4.1278224983   -0.2790098164   -0.9724698989
     13  C         4.5999640723    1.1567988006   -1.0832271016
     14  O         5.6808741378    1.5791587083   -0.6987618459
     15  O        -4.5241181244    2.3209084252   -0.6472228323
     16  O         3.6775409881    2.0420914971   -1.5427690423
     17  O         3.8358294478    1.3703954143    1.5987374433
     18  C         3.8938760318    3.3987958909   -1.6610523299
     19  C         4.5835561897   -1.5277634311    0.9929355241
     20  C         4.5400568816   -2.9351636704    0.4000864789
     21  C         5.0265998437   -2.6606184890   -1.0081594577
     22  C         5.3845795063   -1.1738085014   -0.8868678899
     23  O         5.7776003522   -1.0223182542    0.4551525391
     24  H         2.5771540816   -1.3162565589    0.2133120560
     25  H         3.5212014719   -0.5187197784   -1.8734820960
     26  H         4.5263354541   -1.5734926887    2.1026528634
     27  H         5.3136549479   -3.5324904588    0.9343278401
     28  H         3.5629956869   -3.4599510118    0.4698599729
     29  H         5.9342344561   -3.2774557655   -1.1913639516
     30  H         4.2781040683   -2.8309990806   -1.8121036724
     31  H         6.1462662446   -0.8970235276   -1.6495614063
     32  O        -3.2642912400    0.1955002169    1.9166963203
     33  C        -4.8235030474    3.5756150644   -0.1597694695
     34  C        -5.5520798465   -1.3086661945   -0.5659828241
     35  C        -5.3361088557   -2.4286853277   -1.5845080481
     36  C        -3.9635208003   -2.9190846226   -1.1773545772
     37  C        -3.7053866607   -2.0336654254    0.0450324202
     38  O        -4.9822344715   -1.8455254360    0.6023105592
     39  H        -4.6803653434    0.0451162851   -2.0180887014
     40  H        -2.5513274133   -0.6243895910   -1.1958125402
     41  H        -4.7132167106    3.5927259572    0.9456710958
     42  H        -6.6345462514   -1.0589853825   -0.5121887868
     43  H        -6.0765978185   -3.2298839813   -1.3607241658
     44  H        -5.4371586109   -2.1226204037   -2.6479574597
     45  H        -4.0479785161   -3.9842781055   -0.8663802807
     46  H        -3.1710899407   -2.8115132218   -1.9493315894
     47  H        -2.9436411312   -2.5000440872    0.7088355547
     48  H        -5.8614273764    3.8570373584   -0.4388122291
     49  H        -4.1220653879    4.3136554308   -0.5999540934
     50  H         2.9780663707    3.8794148219   -2.0620016368
     51  H         4.7354697599    3.5924078253   -2.3600937270
     52  H         4.1221770412    3.8379698032   -0.6663813913
     53  H         0.9350186732    1.2179478369    0.2659472911
     54  H         0.5777577888    1.9400058687    1.8800078607
     55  H        -0.2130329471   -0.9302197636    1.0878132530
     56  H        -0.8145409417    0.0528552814    2.4820834890
   Point Group: c1    Number of degrees of freedom:   162


   Energy is  -1510.112386763

              Constraints and their Current Values
                                        Value     Constraint
   Dihedral:        1   2   3   4     -104.211     -104.211
   Dihedral:        3   4   5   6     -123.158     -123.158
   Dihedral:        4   5   6   7     -123.158     -123.158
   Dihedral:        5   6   7   8     -161.053     -161.053
   Dihedral:        6   7   8   9     -161.053     -161.053
   Dihedral:        7   8   9  10      142.106      142.105
   Dihedral:        8   9  10  11     -104.210     -104.211
   Dihedral:        9  10  11  12      142.105      142.105
   Dihedral:       11  12  13  14       85.263       85.263

 Attempting to Generate Delocalized Internal Coordinates

   Using Lagrange Multiplier Algorithm


169 Hessian modes will be used to form the next step
  Hessian Eigenvalues:
    -0.977753   -0.977753   -0.977753   -0.977753   -0.977753   -0.977753
    -0.977753   -0.977753    0.045000    0.045000    0.045000    0.045000
     0.045089    0.045102    0.045160    0.045564    0.045606    0.046395
     0.048889    0.048902    0.054613    0.060032    0.060045    0.062899
     0.063039    0.067022    0.067023    0.067106    0.067125    0.070406
     0.071210    0.072075    0.073314    0.073317    0.075975    0.075978
     0.076796    0.076896    0.082550    0.082621    0.084295    0.084382
     0.084493    0.084551    0.086176    0.086457    0.086497    0.086680
     0.086881    0.087514    0.088654    0.088830    0.089109    0.089179
     0.089792    0.089881    0.093934    0.094009    0.096616    0.096635
     0.111466    0.111592    0.114654    0.114658    0.115905    0.115908
     0.116308    0.117158    0.117633    0.118619    0.118726    0.122592
     0.122879    0.129550    0.130418    0.130901    0.138977    0.139100
     0.160000    0.160000    0.160000    0.160000    0.160000    0.160000
     0.171226    0.171794    0.172000    0.172068    0.220809    0.220925
     0.237118    0.240137    0.240603    0.249188    0.249323    0.249569
     0.250000    0.250000    0.250000    0.250000    0.250000    0.250000
     0.250000    0.250000    0.258190    0.258734    0.266919    0.267283
     0.278763    0.279780    0.282213    0.283950    0.294975    0.295726
     0.298738    0.308044    0.310698    0.310856    0.313317    0.319221
     0.320949    0.321128    0.321813    0.321955    0.322116    0.322742
     0.322981    0.322982    0.323018    0.323183    0.323275    0.323548
     0.323692    0.323753    0.324337    0.324401    0.324660    0.324711
     0.324880    0.324895    0.324923    0.324930    0.324979    0.326774
     0.326783    0.369517    0.370472    0.384934    0.386198    0.401021
     0.407716    0.492929    0.492990    0.517916    0.532321    0.532646
     0.537316    0.936293    0.941950    0.942731    0.945222    1.022753
     1.022753    1.022753    1.022753    1.022753    1.022753    1.022753
     1.022753

 Minimum Search - Taking P-RFO Step
 Searching for Lamda that Maximizes Along the Constraint modes Only
 Value Taken    Lamda =   0.00067498
 Searching for Lamda that Minimizes Along All other modes
 Value Taken    Lamda =  -0.16867274
 Calculated Step too Large.  Step scaled by  0.529653
 Step Taken.  Stepsize is  0.300000

                             Maximum     Tolerance    Cnvgd?
         Gradient            0.130521       0.000300      NO
         Displacement        0.120170       0.001200      NO
         Energy change     *********       0.000001      NO


 New Cartesian Coordinates Obtained by Inverse Iteration

 Displacement from previous Coordinates is:  0.834516
 Adding empirical dispersion correction 
 ----------------------------------------------------------------
 Doing -D3(op) with
 s6 =   1.00000
 s8 =   0.78311
 a1 =   0.30000
 a2 =   4.25000
 n  =  10.00000
 -D3 energy without 3body term =     -0.0643800046 hartrees
 ----------------------------------------------------------------
             Standard Nuclear Orientation (Angstroms)
    I     Atom           X                Y                Z
 ----------------------------------------------------------------
    1      O      -6.1541816708     1.2900006024     0.5213545285
    2      C      -5.2361874716     1.2037537927    -0.3082997862
    3      C      -4.7153300499    -0.0956827972    -0.9301906805
    4      C      -3.3563714609    -0.6299558165    -0.3915622211
    5      C      -2.7715032405     0.1109870446     0.8220767707
    6      O      -1.4913086088     0.5817154957     0.5306614523
    7      C      -0.4810951006     0.1031290535     1.4509589484
    8      C       0.7648871522     1.0106459267     1.3649967306
    9      O       1.9085127693     0.3105887214     1.9164263647
   10      C       3.1072035463     0.5266168453     1.2493650665
   11      C       3.5186795245    -0.6648801117     0.3713146505
   12      C       4.1784189408    -0.2813113598    -0.9840412263
   13      C       4.6446999865     1.1772623603    -1.0954374712
   14      O       5.7357179887     1.6201556657    -0.7068850287
   15      O      -4.5065497040     2.3126811959    -0.6819441602
   16      O       3.6607763142     2.0223405159    -1.5661692506
   17      O       3.8861560105     1.4238846723     1.5981166680
   18      C       3.8999827348     3.4054257614    -1.6697966140
   19      C       4.6540394072    -1.5305622964     1.0147874540
   20      C       4.5969078092    -2.9583105380     0.4137235293
   21      C       5.0828914097    -2.6821480675    -1.0218667141
   22      C       5.4592263977    -1.1772662778    -0.9052424394
   23      O       5.8700562407    -1.0172740599     0.4591483740
   24      H       2.6276283615    -1.3126473763     0.2333325243
   25      H       3.5673264381    -0.5281662435    -1.8761965333
   26      H       4.6094700376    -1.5627577253     2.1234819592
   27      H       5.3634279593    -3.5609945025     0.9414743436
   28      H       3.6201551098    -3.4726850806     0.4925115546
   29      H       5.9810270020    -3.2990701441    -1.2190839156
   30      H       4.3291226114    -2.8498487090    -1.8150177188
   31      H       6.2175724516    -0.8959539581    -1.6659670433
   32      O      -3.3114589953     0.2086863667     1.9316457994
   33      C      -4.8175736840     3.5805508122    -0.1556378841
   34      C      -5.6381127654    -1.3121444435    -0.5791504838
   35      C      -5.4195677551    -2.4413500907    -1.6204711558
   36      C      -4.0297611796    -2.9548279217    -1.2019444870
   37      C      -3.7672638196    -2.0700672957     0.0477366499
   38      O      -5.0691995505    -1.8684392426     0.6135848881
   39      H      -4.7265788493     0.0403541941    -2.0318975016
   40      H      -2.5922147865    -0.6503052049    -1.1961900561
   41      H      -4.7097100425     3.5926955830     0.9518296291
   42      H      -6.7139053474    -1.0459248109    -0.5172760646
   43      H      -6.1675666556    -3.2329818497    -1.4143356499
   44      H      -5.5105547460    -2.1249996507    -2.6769772309
   45      H      -4.1164570392    -4.0175722267    -0.9019905172
   46      H      -3.2359485431    -2.8475950860    -1.9658845886
   47      H      -3.0189798187    -2.5397822464     0.7205300385
   48      H      -5.8552143972     3.8828458979    -0.4203321688
   49      H      -4.1124756506     4.3191432911    -0.5878243208
   50      H       2.9846755078     3.8882404095    -2.0680849026
   51      H       4.7437264762     3.6170129572    -2.3635632363
   52      H       4.1310821885     3.8476562958    -0.6751612334
   53      H       0.9428549681     1.2382858373     0.2873371870
   54      H       0.5811560081     1.9729792541     1.8924162591
   55      H      -0.1987132511    -0.9267264218     1.1323355332
   56      H      -0.8256546995     0.0607109561     2.5093065623
 ----------------------------------------------------------------
 Molecular Point Group                 C1    NOp =  1
 Largest Abelian Subgroup              C1    NOp =  1
 Nuclear Repulsion Energy =  3026.3966065697 hartrees
 There are      113 alpha and      113 beta electrons
 Applying Cartesian multipole field
    Component          Value
    ---------          -----
     (2,0,0)        1.00000E-12
     (0,2,0)        2.00000E-11
     (0,0,2)       -3.00000E-11
 Nucleus-field energy     =     0.0000000389 hartrees
 Requested basis set is STO-3G
 There are 86 shells and 176 basis functions
 A cutoff of  1.0D-12 yielded   2011 shell pairs
 There are      9235 function pairs
 Smallest overlap matrix eigenvalue = 2.02E-01
 Guess MOs from SCF MO coefficient file
 Reading MOs from coefficient file
 Reading MOs from coefficient file
 A restricted hybrid HF-DFT SCF calculation will be
 performed using Pulay DIIS extrapolation
 Exchange:     0.2000 Hartree-Fock + 0.0800 Slater + 0.7200 B88
 Correlation:  0.1900 VWN1RPA + 0.8100 LYP
 Using SG-1 standard quadrature grid
 Dispersion:   Grimme D3
 SCF converges when DIIS error is below 1.0E-08
 Geometry optimization detected.  Setting ReadMinima to 0
 Setting SaveMinima to 0
 using 48 threads for integral computing
 -------------------------------------------------------
 OpenMP Integral computing Module                
 Release: version 1.0, May 2013, Q-Chem Inc. Pittsburgh 
 -------------------------------------------------------
 -------------------------------------------------------
 OpenMP BLAS3 based DFT computing Module                
 Release: version 1.0, May 2013, Q-Chem Inc. Pittsburgh 
 -------------------------------------------------------
 ---------------------------------------
  Cycle       Energy         DIIS Error
 ---------------------------------------
    1   -1510.0036850010      3.16E-03
    2   -1510.1788458888      9.64E-04
    3   -1510.1718444756      1.62E-03
    4   -1510.1826002753      3.10E-04
    5   -1510.1830366237      5.55E-05
    6   -1510.1830495684      2.19E-05
    7   -1510.1830513184      1.05E-05
    8   -1510.1830517983      2.00E-06
    9   -1510.1830518155      9.32E-07
   10   -1510.1830518186      4.15E-07
   11   -1510.1830518193      7.33E-08
   12   -1510.1830518194      1.60E-08
   13   -1510.1830518194      1.18E-08
   14   -1510.1830518193      4.56E-09 Convergence criterion met
 ---------------------------------------
 SCF time:  CPU 95.23 s  wall 1.99 s
 SCF   energy in the final basis set = -1510.18305182
 Total energy in the final basis set = -1510.18305182
 
 --------------------------------------------------------------
 
                    Orbital Energies (a.u.)
 --------------------------------------------------------------
 
 Alpha MOs
 -- Occupied --
-18.934 -18.932 -18.926 -18.913 -18.901 -18.901 -18.898 -18.890
-18.861 -18.860 -10.117 -10.114 -10.105 -10.103 -10.087 -10.085
-10.076 -10.076 -10.072 -10.070 -10.066 -10.065 -10.043 -10.042
-10.040 -10.040 -10.022 -10.021 -10.020 -10.019  -1.033  -1.032
 -1.029  -1.025  -1.006  -1.006  -0.956  -0.950  -0.940  -0.938
 -0.778  -0.777  -0.740  -0.737  -0.729  -0.719  -0.712  -0.677
 -0.676  -0.624  -0.607  -0.590  -0.556  -0.554  -0.541  -0.540
 -0.528  -0.521  -0.498  -0.485  -0.480  -0.468  -0.462  -0.461
 -0.454  -0.444  -0.441  -0.424  -0.423  -0.422  -0.421  -0.410
 -0.406  -0.397  -0.386  -0.381  -0.376  -0.373  -0.364  -0.361
 -0.356  -0.348  -0.346  -0.341  -0.340  -0.331  -0.329  -0.318
 -0.313  -0.310  -0.308  -0.303  -0.299  -0.290  -0.288  -0.280
 -0.278  -0.247  -0.239  -0.239  -0.237  -0.233  -0.233  -0.175
 -0.174  -0.173  -0.170  -0.162  -0.157  -0.154  -0.153  -0.143
 -0.141
 -- Virtual --
  0.070   0.081   0.110   0.111   0.217   0.236   0.246   0.280
  0.285   0.301   0.312   0.316   0.324   0.334   0.340   0.346
  0.348   0.366   0.375   0.377   0.377   0.378   0.382   0.384
  0.393   0.394   0.396   0.399   0.400   0.407   0.411   0.418
  0.422   0.422   0.426   0.429   0.432   0.434   0.436   0.438
  0.441   0.446   0.449   0.458   0.461   0.462   0.468   0.472
  0.481   0.483   0.484   0.489   0.493   0.524   0.527   0.543
  0.544   0.558   0.560   0.644   0.654   0.672   0.672
 --------------------------------------------------------------
 
          Ground-State Mulliken Net Atomic Charges

     Atom                 Charge (a.u.)
  ----------------------------------------
      1 O                    -0.219846
      2 C                     0.223339
      3 C                    -0.080075
      4 C                    -0.081510
      5 C                     0.228952
      6 O                    -0.201383
      7 C                    -0.037279
      8 C                    -0.033170
      9 O                    -0.215186
     10 C                     0.234767
     11 C                    -0.085627
     12 C                    -0.080949
     13 C                     0.223523
     14 O                    -0.214154
     15 O                    -0.200766
     16 O                    -0.204312
     17 O                    -0.182959
     18 C                    -0.107693
     19 C                     0.036383
     20 C                    -0.142492
     21 C                    -0.145595
     22 C                     0.038407
     23 O                    -0.192450
     24 H                     0.080213
     25 H                     0.083966
     26 H                     0.086197
     27 H                     0.077497
     28 H                     0.072353
     29 H                     0.077385
     30 H                     0.071269
     31 H                     0.085919
     32 O                    -0.196239
     33 C                    -0.106710
     34 C                     0.036888
     35 C                    -0.143947
     36 C                    -0.144230
     37 C                     0.035535
     38 O                    -0.194645
     39 H                     0.084953
     40 H                     0.085098
     41 H                     0.089722
     42 H                     0.090490
     43 H                     0.076715
     44 H                     0.072663
     45 H                     0.076939
     46 H                     0.071953
     47 H                     0.080478
     48 H                     0.086344
     49 H                     0.092968
     50 H                     0.091298
     51 H                     0.086344
     52 H                     0.091156
     53 H                     0.085501
     54 H                     0.086577
     55 H                     0.077157
     56 H                     0.092269
  ----------------------------------------
  Sum of atomic charges =    -0.000000

 -----------------------------------------------------------------
                    Cartesian Multipole Moments
 -----------------------------------------------------------------
    Charge (ESU x 10^10)
                -0.0000
    Dipole Moment (Debye)
         X      -0.8794      Y      -1.5325      Z      -4.4350
       Tot       4.7740
    Quadrupole Moments (Debye-Ang)
        XX    -195.8625     XY      -9.8038     YY    -146.2488
        XZ       5.6065     YZ      -1.4810     ZZ    -161.7133
    Octopole Moments (Debye-Ang^2)
       XXX     -88.9898    XXY     -36.7811    XYY     -11.4362
       YYY      74.1602    XXZ    -129.9934    XYZ     -21.2788
       YYZ      -5.2026    XZZ      20.5500    YZZ      10.4979
       ZZZ       5.5259
    Hexadecapole Moments (Debye-Ang^3)
      XXXX  -19638.4375   XXXY    -311.5485   XXYY   -3350.9213
      XYYY     -56.8292   YYYY   -3276.0952   XXXZ     185.9385
      XXYZ     -36.2599   XYYZ     -41.6905   YYYZ     -75.3611
      XXZZ   -3198.2556   XYZZ       1.3722   YYZZ    -792.5958
      XZZZ     -39.2501   YZZZ     -38.4086   ZZZZ   -1337.6050
 -----------------------------------------------------------------
 Calculating analytic gradient of the SCF energy
 Gradient of SCF Energy
            1           2           3           4           5           6
    1   0.0254985   0.0172908   0.0054569  -0.0154195   0.0131450  -0.0251184
    2   0.0025944  -0.0044980  -0.0000451  -0.0089727   0.0105363  -0.0210505
    3  -0.0155109  -0.0328711   0.0297452   0.0311505  -0.0072684   0.0273380
            7           8           9          10          11          12
    1   0.0002757  -0.0061880   0.0349608  -0.0257554   0.0275803   0.0094114
    2   0.0163414  -0.0199476   0.0207003   0.0001534   0.0121920   0.0131097
    3  -0.0211174   0.0228522  -0.0311827  -0.0009132   0.0120951   0.0274417
           13          14          15          16          17          18
    1  -0.0215797  -0.0294678  -0.0594216   0.0697259  -0.0152684  -0.0240942
    2  -0.0193955  -0.0042258   0.0225346   0.0447355  -0.0265352  -0.0370371
    3  -0.0217332  -0.0034043   0.0566132   0.0216458   0.0000368  -0.0038873
           19          20          21          22          23          24
    1   0.0228061   0.0040336  -0.0002410  -0.0110630  -0.0419318  -0.0019733
    2   0.0147796   0.0253018   0.0150740  -0.0009131  -0.0189937  -0.0057574
    3  -0.0340155  -0.0111219   0.0168909   0.0458135  -0.0219773   0.0031361
           25          26          27          28          29          30
    1   0.0031860  -0.0080868   0.0072942  -0.0026848   0.0043863  -0.0026280
    2   0.0003949  -0.0077872   0.0007841  -0.0043598  -0.0046745   0.0023171
    3  -0.0063749   0.0015936   0.0008492   0.0004342   0.0062375  -0.0042958
           31          32          33          34          35          36
    1  -0.0042958   0.0111587   0.0227672   0.0356685   0.0161739  -0.0128917
    2  -0.0048865  -0.0036219  -0.0286345  -0.0155762   0.0118588   0.0184885
    3  -0.0098664  -0.0228853  -0.0251746   0.0249817   0.0175352   0.0112334
           37          38          39          40          41          42
    1  -0.0384887   0.0187886  -0.0084176   0.0021570   0.0027762  -0.0034717
    2   0.0171903   0.0087043   0.0002861  -0.0011739  -0.0031779  -0.0014283
    3  -0.0037470  -0.0468970  -0.0031520  -0.0042171  -0.0006429  -0.0124868
           43          44          45          46          47          48
    1  -0.0009378  -0.0014372  -0.0070772   0.0045751   0.0084255   0.0004124
    2  -0.0047121  -0.0002943  -0.0041932   0.0010040  -0.0028805  -0.0028615
    3   0.0059191  -0.0046848   0.0017576  -0.0016473  -0.0074450  -0.0033217
           49          50          51          52          53          54
    1  -0.0007110   0.0004903  -0.0008499  -0.0023324   0.0027384  -0.0001663
    2   0.0032668   0.0034950  -0.0039731  -0.0031139  -0.0028716  -0.0011818
    3   0.0012965  -0.0002014  -0.0018030   0.0014319  -0.0013575  -0.0008273
           55          56
    1  -0.0030993   0.0039145
    2   0.0017613   0.0011699
    3  -0.0037765   0.0017789
 Max gradient component =       6.973E-02
 RMS gradient           =       1.780E-02
 Gradient time:  CPU 29.37 s  wall 0.62 s
 Geometry Optimization Parameters
   NAtoms,    NIC,     NZ,  NCons,   NDum,   NFix, NCnnct, MaxDiis
       56     458       0       9       0       0       0       0

 Cartesian Hessian Update
 Hessian Updated using BFGS Update


** CONSTRAINED OPTIMIZATION IN DELOCALIZED INTERNAL COORDINATES **
   Searching for a Minimum

   Optimization Cycle:   2

                       Coordinates (Angstroms)
     ATOM                X               Y               Z
      1  O        -6.1541816708    1.2900006024    0.5213545285
      2  C        -5.2361874716    1.2037537927   -0.3082997862
      3  C        -4.7153300499   -0.0956827972   -0.9301906805
      4  C        -3.3563714609   -0.6299558165   -0.3915622211
      5  C        -2.7715032405    0.1109870446    0.8220767707
      6  O        -1.4913086088    0.5817154957    0.5306614523
      7  C        -0.4810951006    0.1031290535    1.4509589484
      8  C         0.7648871522    1.0106459267    1.3649967306
      9  O         1.9085127693    0.3105887214    1.9164263647
     10  C         3.1072035463    0.5266168453    1.2493650665
     11  C         3.5186795245   -0.6648801117    0.3713146505
     12  C         4.1784189408   -0.2813113598   -0.9840412263
     13  C         4.6446999865    1.1772623603   -1.0954374712
     14  O         5.7357179887    1.6201556657   -0.7068850287
     15  O        -4.5065497040    2.3126811959   -0.6819441602
     16  O         3.6607763142    2.0223405159   -1.5661692506
     17  O         3.8861560105    1.4238846723    1.5981166680
     18  C         3.8999827348    3.4054257614   -1.6697966140
     19  C         4.6540394072   -1.5305622964    1.0147874540
     20  C         4.5969078092   -2.9583105380    0.4137235293
     21  C         5.0828914097   -2.6821480675   -1.0218667141
     22  C         5.4592263977   -1.1772662778   -0.9052424394
     23  O         5.8700562407   -1.0172740599    0.4591483740
     24  H         2.6276283615   -1.3126473763    0.2333325243
     25  H         3.5673264381   -0.5281662435   -1.8761965333
     26  H         4.6094700376   -1.5627577253    2.1234819592
     27  H         5.3634279593   -3.5609945025    0.9414743436
     28  H         3.6201551098   -3.4726850806    0.4925115546
     29  H         5.9810270020   -3.2990701441   -1.2190839156
     30  H         4.3291226114   -2.8498487090   -1.8150177188
     31  H         6.2175724516   -0.8959539581   -1.6659670433
     32  O        -3.3114589953    0.2086863667    1.9316457994
     33  C        -4.8175736840    3.5805508122   -0.1556378841
     34  C        -5.6381127654   -1.3121444435   -0.5791504838
     35  C        -5.4195677551   -2.4413500907   -1.6204711558
     36  C        -4.0297611796   -2.9548279217   -1.2019444870
     37  C        -3.7672638196   -2.0700672957    0.0477366499
     38  O        -5.0691995505   -1.8684392426    0.6135848881
     39  H        -4.7265788493    0.0403541941   -2.0318975016
     40  H        -2.5922147865   -0.6503052049   -1.1961900561
     41  H        -4.7097100425    3.5926955830    0.9518296291
     42  H        -6.7139053474   -1.0459248109   -0.5172760646
     43  H        -6.1675666556   -3.2329818497   -1.4143356499
     44  H        -5.5105547460   -2.1249996507   -2.6769772309
     45  H        -4.1164570392   -4.0175722267   -0.9019905172
     46  H        -3.2359485431   -2.8475950860   -1.9658845886
     47  H        -3.0189798187   -2.5397822464    0.7205300385
     48  H        -5.8552143972    3.8828458979   -0.4203321688
     49  H        -4.1124756506    4.3191432911   -0.5878243208
     50  H         2.9846755078    3.8882404095   -2.0680849026
     51  H         4.7437264762    3.6170129572   -2.3635632363
     52  H         4.1310821885    3.8476562958   -0.6751612334
     53  H         0.9428549681    1.2382858373    0.2873371870
     54  H         0.5811560081    1.9729792541    1.8924162591
     55  H        -0.1987132511   -0.9267264218    1.1323355332
     56  H        -0.8256546995    0.0607109561    2.5093065623
   Point Group: c1    Number of degrees of freedom:   162


   Energy is  -1510.183051819

              Constraints and their Current Values
                                        Value     Constraint
   Dihedral:        1   2   3   4     -104.174     -104.211
   Dihedral:        3   4   5   6     -123.157     -123.158
   Dihedral:        4   5   6   7     -123.110     -123.158
   Dihedral:        5   6   7   8     -161.043     -161.053
   Dihedral:        6   7   8   9     -161.026     -161.053
   Dihedral:        7   8   9  10      142.100      142.105
   Dihedral:        8   9  10  11     -104.224     -104.211
   Dihedral:        9  10  11  12      142.144      142.105
   Dihedral:       11  12  13  14       85.263       85.263
 Hessian Updated using BFGS Update

   Using Lagrange Multiplier Algorithm


157 Hessian modes will be used to form the next step
  Hessian Eigenvalues:
    -0.977753   -0.977753   -0.977753   -0.977753   -0.977753   -0.977753
    -0.977753   -0.977465    0.044999    0.045000    0.045088    0.045101
     0.045159    0.045562    0.045606    0.046404    0.048888    0.048903
     0.054603    0.059909    0.060039    0.062901    0.063041    0.067015
     0.067024    0.067096    0.067125    0.070405    0.071201    0.072040
     0.073314    0.073317    0.075931    0.075977    0.076728    0.076858
     0.082548    0.082621    0.084292    0.084372    0.084479    0.084574
     0.086177    0.086458    0.086515    0.086682    0.086863    0.087507
     0.088592    0.088832    0.089096    0.089201    0.089818    0.089914
     0.093932    0.094007    0.096616    0.096631    0.111491    0.111627
     0.114656    0.114687    0.115905    0.115908    0.116305    0.117147
     0.117604    0.118594    0.118717    0.122589    0.122891    0.129573
     0.130436    0.130958    0.138990    0.139085    0.159605    0.161535
     0.171307    0.171818    0.171887    0.172047    0.219221    0.220864
     0.229733    0.237200    0.240164    0.240703    0.249192    0.249389
     0.249643    0.253758    0.258417    0.260396    0.267028    0.267334
     0.279135    0.280880    0.283172    0.288603    0.295311    0.297362
     0.301220    0.308356    0.310540    0.312191    0.319209    0.319842
     0.321013    0.321432    0.321810    0.322026    0.322440    0.322751
     0.322980    0.323013    0.323097    0.323204    0.323500    0.323646
     0.323723    0.323820    0.324356    0.324430    0.324644    0.324697
     0.324886    0.324908    0.324927    0.324974    0.326708    0.326779
     0.330392    0.369474    0.370453    0.385557    0.400471    0.406121
     0.420367    0.477464    0.492959    0.520434    0.526864    0.532491
     0.539937    0.936539    0.942323    0.944428    0.992364    1.022753
     1.022753    1.022753    1.022753    1.022753    1.022753    1.022753
     1.026366

 Minimum Search - Taking P-RFO Step
 Searching for Lamda that Maximizes Along the Constraint modes Only
 Value Taken    Lamda =   0.00002513
 Searching for Lamda that Minimizes Along All other modes
 Value Taken    Lamda =  -0.07644777
 Calculated Step too Large.  Step scaled by  0.640457
 Step Taken.  Stepsize is  0.300000

                             Maximum     Tolerance    Cnvgd?
         Gradient            0.075735       0.000300      NO
         Displacement        0.110505       0.001200      NO
         Energy change     -0.070665       0.000001      NO


 New Cartesian Coordinates Obtained by Inverse Iteration

 Displacement from previous Coordinates is:  0.585288
 Adding empirical dispersion correction 
 ----------------------------------------------------------------
 Doing -D3(op) with
 s6 =   1.00000
 s8 =   0.78311
 a1 =   0.30000
 a2 =   4.25000
 n  =  10.00000
 -D3 energy without 3body term =     -0.0644847379 hartrees
 ----------------------------------------------------------------
             Standard Nuclear Orientation (Angstroms)
    I     Atom           X                Y                Z
 ----------------------------------------------------------------
    1      O      -6.1357434414     1.3326435352     0.5341902076
    2      C      -5.2264269993     1.2181609688    -0.3120852549
    3      C      -4.7258497821    -0.0992889279    -0.9547011091
    4      C      -3.3562251914    -0.6384174748    -0.4154837108
    5      C      -2.7681691769     0.1335305141     0.7977384766
    6      O      -1.4674745353     0.6104935746     0.4950054472
    7      C      -0.4774894650     0.1263195826     1.4552840268
    8      C       0.7810093660     1.0396138060     1.3661455491
    9      O       1.9120163489     0.3252378623     1.9577903856
   10      C       3.1259686880     0.5467190394     1.2633514798
   11      C       3.5311439716    -0.6708088698     0.3868033235
   12      C       4.1761079226    -0.2948768873    -0.9911274674
   13      C       4.6224562527     1.1879726821    -1.1033847428
   14      O       5.7088642797     1.6695521381    -0.7260992836
   15      O      -4.4445528597     2.3018311453    -0.7301910921
   16      O       3.5706839778     1.9840520880    -1.5771117754
   17      O       3.8975696963     1.4741552699     1.5757117558
   18      C       3.8702990921     3.3887439981    -1.6454334994
   19      C       4.6921628314    -1.5309416887     1.0317668531
   20      C       4.6192616782    -2.9729230033     0.4291121613
   21      C       5.0868563638    -2.7004435279    -1.0303513082
   22      C       5.4781252830    -1.1837026468    -0.9290931509
   23      O       5.9189627604    -1.0099703466     0.4487305785
   24      H       2.6417224474    -1.3185015474     0.2670051345
   25      H       3.5495644404    -0.5518214190    -1.8662305920
   26      H       4.6757883134    -1.5397759960     2.1399923725
   27      H       5.3834911664    -3.5826424657     0.9441289024
   28      H       3.6408230364    -3.4739818595     0.5256165744
   29      H       5.9744233678    -3.3182577388    -1.2510678466
   30      H       4.3172122100    -2.8690276509    -1.8031410086
   31      H       6.2296166749    -0.8931703427    -1.6901154879
   32      O      -3.3111064239     0.2564561966     1.9120244890
   33      C      -4.8015167932     3.5613465880    -0.1350058441
   34      C      -5.6693835412    -1.3108730264    -0.5893417387
   35      C      -5.4490311326    -2.4498329208    -1.6412586252
   36      C      -4.0458463315    -2.9730128642    -1.2178079132
   37      C      -3.7761007346    -2.0862928596     0.0469707961
   38      O      -5.0954875951    -1.8745467376     0.6255003176
   39      H      -4.7299153188     0.0328941804    -2.0541360852
   40      H      -2.5928519516    -0.6675613103    -1.2161063309
   41      H      -4.6916575989     3.5363838105     0.9708779855
   42      H      -6.7379338944    -1.0298458357    -0.5052726180
   43      H      -6.1992341876    -3.2374506863    -1.4482339105
   44      H      -5.5335359306    -2.1257884414    -2.6925269352
   45      H      -4.1257105324    -4.0340149567    -0.9233630580
   46      H      -3.2561803663    -2.8628352863    -1.9808353327
   47      H      -3.0399771881    -2.5489014623     0.7348486025
   48      H      -5.8469517055     3.8493093835    -0.3793248334
   49      H      -4.1131943109     4.3241299930    -0.5472994349
   50      H       2.9664737014     3.8978136730    -2.0322763324
   51      H       4.7207695083     3.5945385739    -2.3306894354
   52      H       4.1168616953     3.8017201262    -0.6432094029
   53      H       0.9715826979     1.2482142296     0.2881633549
   54      H       0.5954778798     2.0133038996     1.8732151026
   55      H      -0.1867378298    -0.9103320989     1.1654673370
   56      H      -0.8530683646     0.1008219736     2.5028951276
 ----------------------------------------------------------------
 Molecular Point Group                 C1    NOp =  1
 Largest Abelian Subgroup              C1    NOp =  1
 Nuclear Repulsion Energy =  3012.9498540873 hartrees
 There are      113 alpha and      113 beta electrons
 Applying Cartesian multipole field
    Component          Value
    ---------          -----
     (2,0,0)        1.00000E-12
     (0,2,0)        2.00000E-11
     (0,0,2)       -3.00000E-11
 Nucleus-field energy     =     0.0000000389 hartrees
 Requested basis set is STO-3G
 There are 86 shells and 176 basis functions
 A cutoff of  1.0D-12 yielded   2008 shell pairs
 There are      9229 function pairs
 Smallest overlap matrix eigenvalue = 2.07E-01
 Guess MOs from SCF MO coefficient file
 Reading MOs from coefficient file
 Reading MOs from coefficient file
 A restricted hybrid HF-DFT SCF calculation will be
 performed using Pulay DIIS extrapolation
 Exchange:     0.2000 Hartree-Fock + 0.0800 Slater + 0.7200 B88
 Correlation:  0.1900 VWN1RPA + 0.8100 LYP
 Using SG-1 standard quadrature grid
 Dispersion:   Grimme D3
 SCF converges when DIIS error is below 1.0E-08
 Geometry optimization detected.  Setting ReadMinima to 0
 Setting SaveMinima to 0
 using 48 threads for integral computing
 -------------------------------------------------------
 OpenMP Integral computing Module                
 Release: version 1.0, May 2013, Q-Chem Inc. Pittsburgh 
 -------------------------------------------------------
 -------------------------------------------------------
 OpenMP BLAS3 based DFT computing Module                
 Release: version 1.0, May 2013, Q-Chem Inc. Pittsburgh 
 -------------------------------------------------------
 ---------------------------------------
  Cycle       Energy         DIIS Error
 ---------------------------------------
    1   -1510.0674347863      2.91E-03
    2   -1510.2167274860      9.09E-04
    3   -1510.2092442894      1.62E-03
    4   -1510.2201191876      2.76E-04
    5   -1510.2204608393      5.42E-05
    6   -1510.2204733585      2.02E-05
    7   -1510.2204746983      1.19E-05
    8   -1510.2204752971      2.55E-06
    9   -1510.2204753259      1.06E-06
   10   -1510.2204753300      4.81E-07
   11   -1510.2204753311      8.74E-08
   12   -1510.2204753311      2.09E-08
   13   -1510.2204753311      1.20E-08
   14   -1510.2204753312      5.27E-09 Convergence criterion met
 ---------------------------------------
 SCF time:  CPU 98.56 s  wall 2.06 s
 SCF   energy in the final basis set = -1510.22047533
 Total energy in the final basis set = -1510.22047533
 
 --------------------------------------------------------------
 
                    Orbital Energies (a.u.)
 --------------------------------------------------------------
 
 Alpha MOs
 -- Occupied --
-18.937 -18.934 -18.922 -18.908 -18.902 -18.900 -18.899 -18.892
-18.868 -18.867 -10.114 -10.110 -10.101 -10.099 -10.082 -10.080
-10.070 -10.069 -10.069 -10.068 -10.064 -10.062 -10.042 -10.041
-10.040 -10.040 -10.023 -10.022 -10.021 -10.020  -1.025  -1.024
 -1.020  -1.016  -0.991  -0.991  -0.951  -0.944  -0.938  -0.936
 -0.773  -0.772  -0.734  -0.731  -0.722  -0.714  -0.706  -0.670
 -0.669  -0.618  -0.603  -0.587  -0.554  -0.553  -0.540  -0.539
 -0.524  -0.517  -0.491  -0.478  -0.472  -0.462  -0.459  -0.458
 -0.450  -0.440  -0.438  -0.420  -0.418  -0.417  -0.417  -0.404
 -0.402  -0.390  -0.380  -0.374  -0.370  -0.369  -0.360  -0.358
 -0.350  -0.346  -0.343  -0.342  -0.339  -0.333  -0.331  -0.316
 -0.312  -0.309  -0.308  -0.303  -0.297  -0.288  -0.286  -0.278
 -0.276  -0.248  -0.246  -0.245  -0.240  -0.239  -0.238  -0.177
 -0.176  -0.172  -0.168  -0.162  -0.157  -0.152  -0.152  -0.146
 -0.144
 -- Virtual --
  0.067   0.078   0.105   0.107   0.214   0.235   0.244   0.273
  0.277   0.289   0.301   0.303   0.313   0.324   0.332   0.342
  0.343   0.357   0.358   0.362   0.368   0.370   0.372   0.373
  0.383   0.387   0.390   0.394   0.400   0.406   0.409   0.413
  0.415   0.416   0.422   0.423   0.423   0.427   0.433   0.435
  0.436   0.441   0.442   0.445   0.448   0.451   0.461   0.464
  0.466   0.468   0.478   0.483   0.485   0.514   0.515   0.539
  0.540   0.550   0.552   0.630   0.640   0.658   0.660
 --------------------------------------------------------------
 
          Ground-State Mulliken Net Atomic Charges

     Atom                 Charge (a.u.)
  ----------------------------------------
      1 O                    -0.213071
      2 C                     0.215169
      3 C                    -0.079842
      4 C                    -0.080619
      5 C                     0.220903
      6 O                    -0.196185
      7 C                    -0.040985
      8 C                    -0.038004
      9 O                    -0.209131
     10 C                     0.226775
     11 C                    -0.084524
     12 C                    -0.080658
     13 C                     0.215335
     14 O                    -0.207641
     15 O                    -0.186102
     16 O                    -0.190237
     17 O                    -0.178518
     18 C                    -0.118221
     19 C                     0.032026
     20 C                    -0.143167
     21 C                    -0.146068
     22 C                     0.033042
     23 O                    -0.185584
     24 H                     0.081094
     25 H                     0.084036
     26 H                     0.086074
     27 H                     0.078085
     28 H                     0.073250
     29 H                     0.077638
     30 H                     0.072003
     31 H                     0.085685
     32 O                    -0.192265
     33 C                    -0.117146
     34 C                     0.031776
     35 C                    -0.144572
     36 C                    -0.144773
     37 C                     0.031097
     38 O                    -0.187657
     39 H                     0.084876
     40 H                     0.085579
     41 H                     0.091032
     42 H                     0.089818
     43 H                     0.077108
     44 H                     0.073304
     45 H                     0.077412
     46 H                     0.072743
     47 H                     0.080631
     48 H                     0.087345
     49 H                     0.091654
     50 H                     0.089942
     51 H                     0.087320
     52 H                     0.092494
     53 H                     0.085666
     54 H                     0.085707
     55 H                     0.076412
     56 H                     0.091939
  ----------------------------------------
  Sum of atomic charges =    -0.000000

 -----------------------------------------------------------------
                    Cartesian Multipole Moments
 -----------------------------------------------------------------
    Charge (ESU x 10^10)
                -0.0000
    Dipole Moment (Debye)
         X      -0.8664      Y      -1.6732      Z      -4.3193
       Tot       4.7124
    Quadrupole Moments (Debye-Ang)
        XX    -193.5645     XY      -9.7192     YY    -146.6474
        XZ       5.6696     YZ      -1.1664     ZZ    -161.7057
    Octopole Moments (Debye-Ang^2)
       XXX     -92.0532    XXY     -37.1415    XYY     -10.9694
       YYY      69.5329    XXZ    -126.1388    XYZ     -21.1585
       YYZ      -4.1176    XZZ      20.2857    YZZ       8.6090
       ZZZ       7.8086
    Hexadecapole Moments (Debye-Ang^3)
      XXXX  -19560.4439   XXXY    -308.5645   XXYY   -3366.8667
      XYYY     -58.0132   YYYY   -3296.7209   XXXZ     169.9611
      XXYZ     -32.3279   XYYZ     -46.0445   YYYZ     -80.8410
      XXZZ   -3196.4570   XYZZ       2.5943   YYZZ    -798.4990
      XZZZ     -53.3675   YZZZ     -46.8612   ZZZZ   -1350.3370
 -----------------------------------------------------------------
 Calculating analytic gradient of the SCF energy
 Gradient of SCF Energy
            1           2           3           4           5           6
    1   0.0106747   0.0098545   0.0087520  -0.0073648   0.0085214  -0.0137610
    2   0.0010053   0.0007238   0.0022867  -0.0070298   0.0085105  -0.0093354
    3  -0.0034783  -0.0236738   0.0150484   0.0174870  -0.0089160   0.0169079
            7           8           9          10          11          12
    1  -0.0011555  -0.0034782   0.0207572  -0.0213658   0.0148667  -0.0020458
    2   0.0066050  -0.0100395   0.0118063  -0.0006091   0.0051461   0.0085659
    3  -0.0132341   0.0152444  -0.0178642  -0.0064713   0.0063422   0.0157802
           13          14          15          16          17          18
    1  -0.0129070  -0.0120951  -0.0309270   0.0369904  -0.0035081  -0.0124343
    2  -0.0106592  -0.0004448   0.0110693   0.0235579  -0.0124689  -0.0228614
    3  -0.0184338   0.0029476   0.0312691   0.0128024   0.0041465  -0.0020899
           19          20          21          22          23          24
    1   0.0146268  -0.0014612  -0.0010787  -0.0020599  -0.0196759  -0.0000382
    2   0.0102090   0.0121747   0.0065154   0.0011952  -0.0097549  -0.0039101
    3  -0.0171077  -0.0055179   0.0055736   0.0263777  -0.0103542   0.0027424
           25          26          27          28          29          30
    1   0.0031862  -0.0065235   0.0044926  -0.0002694   0.0021651  -0.0005946
    2  -0.0000290  -0.0057655   0.0016852  -0.0033490  -0.0023139   0.0017409
    3  -0.0042161   0.0007299  -0.0001929   0.0009950   0.0047321  -0.0024233
           31          32          33          34          35          36
    1  -0.0043463   0.0041988   0.0119566   0.0176516   0.0082255  -0.0040230
    2  -0.0036940  -0.0022791  -0.0180891  -0.0077612   0.0077727   0.0087829
    3  -0.0071944  -0.0082249  -0.0147471   0.0178423   0.0052736   0.0041071
           37          38          39          40          41          42
    1  -0.0217818   0.0087503  -0.0064288   0.0008832   0.0013884  -0.0019196
    2   0.0084115   0.0035144  -0.0009024  -0.0006958  -0.0009718  -0.0007898
    3   0.0007003  -0.0227747  -0.0016396  -0.0019927   0.0000606  -0.0097255
           43          44          45          46          47          48
    1   0.0002793  -0.0018507  -0.0050328   0.0026517   0.0063008  -0.0001316
    2  -0.0021834  -0.0012237  -0.0014929  -0.0000623  -0.0015331  -0.0008062
    3   0.0043791  -0.0021736   0.0010262   0.0000225  -0.0061680  -0.0015690
           49          50          51          52          53          54
    1  -0.0004469   0.0003488  -0.0002126  -0.0011408   0.0019994  -0.0004255
    2   0.0016377   0.0017910  -0.0013464  -0.0008301  -0.0018496  -0.0000101
    3   0.0007331  -0.0000465  -0.0011448   0.0008384  -0.0006999  -0.0011408
           55          56
    1  -0.0017896   0.0027519
    2   0.0006844  -0.0003003
    3  -0.0023913   0.0014961
 Max gradient component =       3.699E-02
 RMS gradient           =       9.857E-03
 Gradient time:  CPU 30.61 s  wall 0.65 s
 Geometry Optimization Parameters
   NAtoms,    NIC,     NZ,  NCons,   NDum,   NFix, NCnnct, MaxDiis
       56     458       0       9       0       0       0       0

 Cartesian Hessian Update
 Hessian Updated using BFGS Update


** CONSTRAINED OPTIMIZATION IN DELOCALIZED INTERNAL COORDINATES **
   Searching for a Minimum

   Optimization Cycle:   3

                       Coordinates (Angstroms)
     ATOM                X               Y               Z
      1  O        -6.1357434414    1.3326435352    0.5341902076
      2  C        -5.2264269993    1.2181609688   -0.3120852549
      3  C        -4.7258497821   -0.0992889279   -0.9547011091
      4  C        -3.3562251914   -0.6384174748   -0.4154837108
      5  C        -2.7681691769    0.1335305141    0.7977384766
      6  O        -1.4674745353    0.6104935746    0.4950054472
      7  C        -0.4774894650    0.1263195826    1.4552840268
      8  C         0.7810093660    1.0396138060    1.3661455491
      9  O         1.9120163489    0.3252378623    1.9577903856
     10  C         3.1259686880    0.5467190394    1.2633514798
     11  C         3.5311439716   -0.6708088698    0.3868033235
     12  C         4.1761079226   -0.2948768873   -0.9911274674
     13  C         4.6224562527    1.1879726821   -1.1033847428
     14  O         5.7088642797    1.6695521381   -0.7260992836
     15  O        -4.4445528597    2.3018311453   -0.7301910921
     16  O         3.5706839778    1.9840520880   -1.5771117754
     17  O         3.8975696963    1.4741552699    1.5757117558
     18  C         3.8702990921    3.3887439981   -1.6454334994
     19  C         4.6921628314   -1.5309416887    1.0317668531
     20  C         4.6192616782   -2.9729230033    0.4291121613
     21  C         5.0868563638   -2.7004435279   -1.0303513082
     22  C         5.4781252830   -1.1837026468   -0.9290931509
     23  O         5.9189627604   -1.0099703466    0.4487305785
     24  H         2.6417224474   -1.3185015474    0.2670051345
     25  H         3.5495644404   -0.5518214190   -1.8662305920
     26  H         4.6757883134   -1.5397759960    2.1399923725
     27  H         5.3834911664   -3.5826424657    0.9441289024
     28  H         3.6408230364   -3.4739818595    0.5256165744
     29  H         5.9744233678   -3.3182577388   -1.2510678466
     30  H         4.3172122100   -2.8690276509   -1.8031410086
     31  H         6.2296166749   -0.8931703427   -1.6901154879
     32  O        -3.3111064239    0.2564561966    1.9120244890
     33  C        -4.8015167932    3.5613465880   -0.1350058441
     34  C        -5.6693835412   -1.3108730264   -0.5893417387
     35  C        -5.4490311326   -2.4498329208   -1.6412586252
     36  C        -4.0458463315   -2.9730128642   -1.2178079132
     37  C        -3.7761007346   -2.0862928596    0.0469707961
     38  O        -5.0954875951   -1.8745467376    0.6255003176
     39  H        -4.7299153188    0.0328941804   -2.0541360852
     40  H        -2.5928519516   -0.6675613103   -1.2161063309
     41  H        -4.6916575989    3.5363838105    0.9708779855
     42  H        -6.7379338944   -1.0298458357   -0.5052726180
     43  H        -6.1992341876   -3.2374506863   -1.4482339105
     44  H        -5.5335359306   -2.1257884414   -2.6925269352
     45  H        -4.1257105324   -4.0340149567   -0.9233630580
     46  H        -3.2561803663   -2.8628352863   -1.9808353327
     47  H        -3.0399771881   -2.5489014623    0.7348486025
     48  H        -5.8469517055    3.8493093835   -0.3793248334
     49  H        -4.1131943109    4.3241299930   -0.5472994349
     50  H         2.9664737014    3.8978136730   -2.0322763324
     51  H         4.7207695083    3.5945385739   -2.3306894354
     52  H         4.1168616953    3.8017201262   -0.6432094029
     53  H         0.9715826979    1.2482142296    0.2881633549
     54  H         0.5954778798    2.0133038996    1.8732151026
     55  H        -0.1867378298   -0.9103320989    1.1654673370
     56  H        -0.8530683646    0.1008219736    2.5028951276
   Point Group: c1    Number of degrees of freedom:   162


   Energy is  -1510.220475331

              Constraints and their Current Values
                                        Value     Constraint
   Dihedral:        1   2   3   4     -104.210     -104.211
   Dihedral:        3   4   5   6     -123.156     -123.158
   Dihedral:        4   5   6   7     -123.143     -123.158
   Dihedral:        5   6   7   8     -161.054     -161.053
   Dihedral:        6   7   8   9     -161.047     -161.053
   Dihedral:        7   8   9  10      142.102      142.105
   Dihedral:        8   9  10  11     -104.213     -104.211
   Dihedral:        9  10  11  12      142.108      142.105
   Dihedral:       11  12  13  14       85.263       85.263
 Hessian Updated using BFGS Update

   Using Lagrange Multiplier Algorithm


160 Hessian modes will be used to form the next step
  Hessian Eigenvalues:
    -0.977753   -0.977753   -0.977753   -0.977753   -0.977753   -0.977753
    -0.977751   -0.977394    0.044974    0.045000    0.045000    0.045081
     0.045102    0.045146    0.045548    0.045601    0.046193    0.048881
     0.048903    0.054567    0.059270    0.060039    0.062901    0.063039
     0.066979    0.067023    0.067075    0.067125    0.070408    0.071165
     0.071939    0.073313    0.073320    0.075792    0.075978    0.076556
     0.076838    0.082547    0.082625    0.084266    0.084382    0.084475
     0.084579    0.086169    0.086460    0.086513    0.086675    0.086891
     0.087533    0.088535    0.088835    0.089126    0.089209    0.089816
     0.089933    0.093898    0.093990    0.096615    0.096625    0.111488
     0.111623    0.114656    0.114673    0.115905    0.115908    0.116297
     0.117089    0.117592    0.118568    0.118716    0.122587    0.122895
     0.129584    0.130429    0.130964    0.138938    0.139013    0.159901
     0.160012    0.161452    0.171404    0.171796    0.172009    0.172398
     0.220843    0.221257    0.235962    0.238907    0.240397    0.240934
     0.249196    0.249391    0.249642    0.252490    0.256955    0.258453
     0.260363    0.267022    0.267333    0.279132    0.280937    0.283176
     0.288803    0.295314    0.297462    0.301584    0.308302    0.310490
     0.312130    0.319067    0.319331    0.321005    0.321329    0.321799
     0.322024    0.322394    0.322728    0.322982    0.323013    0.323093
     0.323204    0.323501    0.323593    0.323717    0.323794    0.324348
     0.324402    0.324625    0.324695    0.324886    0.324908    0.324927
     0.324975    0.326741    0.326779    0.331817    0.369259    0.370338
     0.385559    0.393552    0.405263    0.407506    0.457190    0.492960
     0.513340    0.524913    0.532489    0.538114    0.936750    0.942324
     0.944428    1.001252    1.022753    1.022753    1.022753    1.022753
     1.022753    1.022753    1.022761    1.028458

 Minimum Search - Taking P-RFO Step
 Searching for Lamda that Maximizes Along the Constraint modes Only
 Value Taken    Lamda =   0.00000132
 Searching for Lamda that Minimizes Along All other modes
 Value Taken    Lamda =  -0.02920240
 Calculated Step too Large.  Step scaled by  0.780475
 Step Taken.  Stepsize is  0.300000

                             Maximum     Tolerance    Cnvgd?
         Gradient            0.034995       0.000300      NO
         Displacement        0.094161       0.001200      NO
         Energy change     -0.037424       0.000001      NO


 New Cartesian Coordinates Obtained by Inverse Iteration

 Displacement from previous Coordinates is:  0.803203
 Adding empirical dispersion correction 
 ----------------------------------------------------------------
 Doing -D3(op) with
 s6 =   1.00000
 s8 =   0.78311
 a1 =   0.30000
 a2 =   4.25000
 n  =  10.00000
 -D3 energy without 3body term =     -0.0646955643 hartrees
 ----------------------------------------------------------------
             Standard Nuclear Orientation (Angstroms)
    I     Atom           X                Y                Z
 ----------------------------------------------------------------
    1      O      -6.0932027465     1.3687050272     0.5434472920
    2      C      -5.1958918425     1.2300450873    -0.3151849340
    3      C      -4.7276369608    -0.1009527120    -0.9855645074
    4      C      -3.3540647615    -0.6537326951    -0.4413300708
    5      C      -2.7660238706     0.1457891049     0.7708479663
    6      O      -1.4418098571     0.6228805795     0.4657947929
    7      C      -0.4704683014     0.1375579194     1.4641465552
    8      C       0.8013690374     1.0498548021     1.3776271850
    9      O       1.9207656300     0.3249928866     2.0092472793
   10      C       3.1445498406     0.5586880704     1.2839026506
   11      C       3.5443566834    -0.6793162527     0.4093544062
   12      C       4.1681413203    -0.3111118910    -0.9927055595
   13      C       4.5800460889     1.1953095080    -1.1108935649
   14      O       5.6538261596     1.7204100973    -0.7489836754
   15      O      -4.3631695408     2.2922129378    -0.7639083403
   16      O       3.4634243603     1.9381891615    -1.5907221253
   17      O       3.8904751474     1.5279322165     1.5392276316
   18      C       3.7698451340     3.3718511041    -1.6368130508
   19      C       4.7340901632    -1.5256564040     1.0502592598
   20      C       4.6577899286    -2.9807572368     0.4539244532
   21      C       5.0989826198    -2.7137372527    -1.0273027195
   22      C       5.4899119450    -1.1854652305    -0.9503515130
   23      O       5.9584977155    -0.9915134225     0.4338401466
   24      H       2.6557532968    -1.3281928072     0.3110847728
   25      H       3.5199954418    -0.5801514798    -1.8458753287
   26      H       4.7549971264    -1.5021111024     2.1573763584
   27      H       5.4223789963    -3.5953596693     0.9584304704
   28      H       3.6777880722    -3.4709915263     0.5693742287
   29      H       5.9794619136    -3.3277609465    -1.2762448598
   30      H       4.3098420704    -2.8926732958    -1.7753468443
   31      H       6.2365529628    -0.8796183594    -1.7087186447
   32      O      -3.3173995134     0.2993124627     1.8810712233
   33      C      -4.7234555213     3.5540540519    -0.1079617279
[...]
     15  O        -4.4044376183    2.3050434250   -0.5165095835
     16  O         3.3930453755    1.7877018387   -1.7763186239
     17  O         3.8047844644    1.6994480255    1.3292583070
     18  C         3.6604096828    3.2383863812   -1.9060844593
     19  C         4.7000402718   -1.5381902992    1.1219919942
     20  C         4.5568464899   -3.0022426916    0.5481838340
     21  C         5.0494895815   -2.7892000096   -0.9316821811
     22  C         5.4562929388   -1.2619930421   -0.9072428919
     23  O         5.9328143104   -1.0402898356    0.4784251243
     24  H         2.6137208363   -1.2573877752    0.3888656229
     25  H         3.4443431216   -0.6893284823   -1.7620734279
     26  H         4.7759483416   -1.4644657155    2.2243102973
     27  H         5.2164466487   -3.6928984086    1.0976235657
     28  H         3.5225405890   -3.3768909339    0.6078863176
     29  H         5.9226770765   -3.4193232423   -1.1635447845
     30  H         4.2610722312   -2.9920201993   -1.6742283737
     31  H         6.2388281922   -0.9671267347   -1.6327144531
     32  O        -3.3131575606    0.4961333607    1.8138337374
     33  C        -4.7951823820    3.4552996500    0.3302052443
     34  C        -5.6305583759   -1.3058466894   -0.8466604232
     35  C        -5.2220306450   -2.4187910883   -1.8908111169
     36  C        -3.8896566735   -2.9635159831   -1.2533707144
     37  C        -3.7727503999   -2.0484424182    0.0286895819
     38  O        -5.1756320039   -1.8590159248    0.4517697560
     39  H        -4.5796236193    0.2453139971   -2.1024135036
     40  H        -2.5482253318   -0.6572563075   -1.2382694106
     41  H        -4.7036629628    3.2109285209    1.4084043976
     42  H        -6.7098820018   -1.0637666013   -0.8010652890
     43  H        -5.9952959819   -3.2018065369   -1.9420449066
     44  H        -5.0718573079   -2.0049298348   -2.9009080774
     45  H        -3.9831689924   -4.0219216687   -0.9622932371
     46  H        -3.0210370777   -2.8548558903   -1.9220430388
     47  H        -3.1705242982   -2.4680830537    0.8578024691
     48  H        -5.8372159020    3.7773524453    0.1281117136
     49  H        -4.0984636924    4.2742959314    0.0737043387
     50  H         2.7317700520    3.6873775756   -2.3039156566
     51  H         4.4977915227    3.4396731826   -2.6050859314
     52  H         3.9049782301    3.6919283920   -0.9237701013
     53  H         1.0514990300    1.2952608907    0.2766035616
     54  H         0.6534192494    2.1330190563    1.8177134492
     55  H        -0.1725062982   -0.8195001545    1.2849517639
     56  H        -0.8990653019    0.3209499441    2.4812854049
   Point Group: c1    Number of degrees of freedom:   162


   Energy is  -1510.243401046

              Constraints and their Current Values
                                        Value     Constraint
   Dihedral:        1   2   3   4     -104.211     -104.211
   Dihedral:        3   4   5   6     -123.158     -123.158
   Dihedral:        4   5   6   7     -123.158     -123.158
   Dihedral:        5   6   7   8     -161.053     -161.053
   Dihedral:        6   7   8   9     -161.053     -161.053
   Dihedral:        7   8   9  10      142.105      142.105
   Dihedral:        8   9  10  11     -104.211     -104.211
   Dihedral:        9  10  11  12      142.105      142.105
   Dihedral:       11  12  13  14       85.263       85.263
 Hessian Updated using BFGS Update

153 Hessian modes will be used to form the next step
  Hessian Eigenvalues:
     0.002740    0.006766    0.013658    0.024339    0.044322    0.045007
     0.045080    0.045120    0.045182    0.045374    0.045601    0.046180
     0.048979    0.054955    0.059712    0.060131    0.062926    0.064169
     0.066869    0.067074    0.067161    0.069299    0.070431    0.071097
     0.073190    0.073415    0.074176    0.076187    0.076236    0.077117
     0.082389    0.082501    0.083924    0.084382    0.084422    0.084606
     0.085930    0.086387    0.086567    0.086711    0.086887    0.087807
     0.088705    0.088892    0.089272    0.089620    0.089864    0.091631
     0.093985    0.094021    0.096583    0.096681    0.111502    0.111608
     0.114673    0.114870    0.115564    0.115900    0.115909    0.117527
     0.117763    0.118934    0.120048    0.122586    0.123040    0.129182
     0.129641    0.130993    0.139300    0.149766    0.159987    0.160000
     0.160014    0.160258    0.161728    0.162045    0.171387    0.171613
     0.173116    0.179418    0.220779    0.223009    0.235874    0.238906
     0.240554    0.243066    0.249061    0.249291    0.249635    0.249934
     0.250051    0.250468    0.252133    0.254451    0.257018    0.260043
     0.266274    0.267224    0.274752    0.280292    0.280698    0.285905
     0.295333    0.296850    0.297214    0.299999    0.304496    0.308762
     0.310929    0.317170    0.319691    0.320552    0.321229    0.321858
     0.321987    0.322074    0.322589    0.322809    0.323044    0.323119
     0.323221    0.323279    0.323615    0.323737    0.323850    0.324208
     0.324390    0.324575    0.324695    0.324894    0.324908    0.324969
     0.325218    0.325670    0.326821    0.327456    0.334892    0.368613
     0.369773    0.387480    0.401498    0.410514    0.440912    0.464746
     0.494369    0.510735    0.524937    0.532658    0.539526    0.937012
     0.942321    0.944510    1.022275

 Minimum Search - Taking Simple RFO Step
 Searching for Lamda that Minimizes Along All modes
 Value Taken    Lamda =   0.00000000
 Step Taken.  Stepsize is  0.004864

                             Maximum     Tolerance    Cnvgd?
         Gradient           0.000063      0.000300     YES
         Displacement       0.001514      0.001200      NO
         Energy change     -0.000000      0.000001     YES

 Final energy is   -1510.24340104579     


 ******************************
 **  OPTIMIZATION CONVERGED  **
 ******************************

                       Coordinates (Angstroms)
     ATOM                X               Y               Z
      1  O        -6.1790339281    1.1906159375    0.5979034982
      2  C        -5.2372495735    1.1765176171   -0.2214053868
      3  C        -4.6913336749   -0.0460272228   -1.0427668252
      4  C        -3.3229641847   -0.5981176608   -0.4539241370
      5  C        -2.7406773010    0.2537336035    0.7301256202
      6  O        -1.3948190160    0.7029981611    0.4173032443
      7  C        -0.4545021367    0.2437923207    1.4650743282
      8  C         0.8337286959    1.1363531068    1.3557846197
      9  O         1.9329272354    0.4187560893    2.0496964602
     10  C         3.1645610300    0.6295047370    1.2905657611
     11  C         3.5380845348   -0.6588397266    0.4704736882
     12  C         4.1439650819   -0.3728288199   -0.9683496470
     13  C         4.5330375304    1.1316260076   -1.2019950830
     14  O         5.5973943666    1.7090107071   -0.8990252553
     15  O        -4.4044376183    2.3050434250   -0.5165095835
     16  O         3.3930453755    1.7877018387   -1.7763186239
     17  O         3.8047844644    1.6994480255    1.3292583070
     18  C         3.6604096828    3.2383863812   -1.9060844593
     19  C         4.7000402718   -1.5381902992    1.1219919942
     20  C         4.5568464899   -3.0022426916    0.5481838340
     21  C         5.0494895815   -2.7892000096   -0.9316821811
     22  C         5.4562929388   -1.2619930421   -0.9072428919
     23  O         5.9328143104   -1.0402898356    0.4784251243
     24  H         2.6137208363   -1.2573877752    0.3888656229
     25  H         3.4443431216   -0.6893284823   -1.7620734279
     26  H         4.7759483416   -1.4644657155    2.2243102973
     27  H         5.2164466487   -3.6928984086    1.0976235657
     28  H         3.5225405890   -3.3768909339    0.6078863176
     29  H         5.9226770765   -3.4193232423   -1.1635447845
     30  H         4.2610722312   -2.9920201993   -1.6742283737
     31  H         6.2388281922   -0.9671267347   -1.6327144531
     32  O        -3.3131575606    0.4961333607    1.8138337374
     33  C        -4.7951823820    3.4552996500    0.3302052443
     34  C        -5.6305583759   -1.3058466894   -0.8466604232
     35  C        -5.2220306450   -2.4187910883   -1.8908111169
     36  C        -3.8896566735   -2.9635159831   -1.2533707144
     37  C        -3.7727503999   -2.0484424182    0.0286895819
     38  O        -5.1756320039   -1.8590159248    0.4517697560
     39  H        -4.5796236193    0.2453139971   -2.1024135036
     40  H        -2.5482253318   -0.6572563075   -1.2382694106
     41  H        -4.7036629628    3.2109285209    1.4084043976
     42  H        -6.7098820018   -1.0637666013   -0.8010652890
     43  H        -5.9952959819   -3.2018065369   -1.9420449066
     44  H        -5.0718573079   -2.0049298348   -2.9009080774
     45  H        -3.9831689924   -4.0219216687   -0.9622932371
     46  H        -3.0210370777   -2.8548558903   -1.9220430388
     47  H        -3.1705242982   -2.4680830537    0.8578024691
     48  H        -5.8372159020    3.7773524453    0.1281117136
     49  H        -4.0984636924    4.2742959314    0.0737043387
     50  H         2.7317700520    3.6873775756   -2.3039156566
     51  H         4.4977915227    3.4396731826   -2.6050859314
     52  H         3.9049782301    3.6919283920   -0.9237701013
     53  H         1.0514990300    1.2952608907    0.2766035616
     54  H         0.6534192494    2.1330190563    1.8177134492
     55  H        -0.1725062982   -0.8195001545    1.2849517639
     56  H        -0.8990653019    0.3209499441    2.4812854049

Z-matrix Print:
$molecule
0 1
O 
C  1 1.452939
O  2 1.249366 1 123.450022
C  1 1.480841 2 109.874832 3 55.006037 0
H  4 1.111879 1 111.793707 2 -39.695269 0
H  4 1.114700 1 110.005090 2 80.744605 0
C  2 1.570568 1 110.415136 3 -178.164073 0
H  7 1.104045 2 107.726866 1 0.752688 0
C  4 1.571034 1 107.174609 2 -161.052981 0
H  9 1.112343 4 108.010362 1 -39.831307 0
H  9 1.113208 4 110.302413 1 77.801165 0
O  9 1.484822 4 107.454341 1 -161.053008 0
C  12 1.462059 9 108.137796 4 142.104947 0
O  13 1.247462 12 122.674351 9 76.396173 0
C  13 1.572228 12 110.661505 9 -104.210984 0
H  15 1.104250 13 106.489749 12 19.624827 0
C  15 1.587169 13 114.575095 12 142.104971 0
H  17 1.104373 15 110.981146 13 -111.435262 0
C  17 1.571417 15 113.692386 13 11.770764 0
O  19 1.248206 17 128.162638 15 85.263033 0
O  19 1.435223 17 107.486494 15 -91.389792 0
C  21 1.480813 19 109.845122 17 174.928852 0
H  22 1.105547 21 106.125139 19 -177.238052 0
H  22 1.109201 21 111.672956 19 63.510389 0
H  22 1.109259 21 111.269524 19 -57.904339 0
C  17 1.586364 15 100.362179 13 128.831794 0
H  26 1.107076 17 114.218237 15 -159.101433 0
O  26 1.481992 17 102.601127 15 -39.837009 0
C  28 1.477097 26 95.082841 17 58.767601 0
H  29 1.107386 28 110.735433 26 -178.842754 0
C  29 1.578990 28 103.291017 26 56.996349 0
H  31 1.101687 29 112.380798 28 -157.978685 0
H  31 1.101799 29 110.224806 28 80.511429 0
C  31 1.574194 29 100.822250 28 -37.382837 0
H  34 1.101486 31 111.626351 29 120.675648 0
H  34 1.101868 31 112.623978 29 -116.760814 0
C  7 1.588702 2 114.222118 1 -123.158012 0
H  37 1.104631 7 111.106373 2 117.656944 0
C  37 1.570756 7 112.086702 2 -5.033040 0
O  39 1.248368 37 127.891805 7 -104.211052 0
O  39 1.433259 37 107.651144 7 72.565970 0
C  41 1.480776 39 109.911717 37 -174.639184 0
H  42 1.105425 41 106.052667 39 178.368929 0
H  42 1.109231 41 111.669195 39 -62.349783 0
H  42 1.109327 41 111.276684 39 59.154308 0
C  37 1.583586 7 100.864311 2 -122.460519 0
H  46 1.107078 37 114.165385 7 156.755384 0
O  46 1.482860 37 102.900036 7 37.398306 0
C  48 1.477483 46 95.070964 37 -57.872747 0
H  49 1.107340 48 110.522272 46 179.598232 0
C  49 1.579464 48 103.676121 46 -56.212550 0
H  51 1.101558 49 112.161063 48 155.788189 0
H  51 1.101677 49 110.390735 48 -82.716924 0
C  51 1.574254 49 101.002215 48 35.431536 0
H  54 1.101670 51 111.527796 49 -118.195975 0
H  54 1.101875 51 112.693745 49 119.269428 0
$end

 
 --------------------------------------------------------------
 
                    Orbital Energies (a.u.)
 --------------------------------------------------------------
 
 Alpha MOs
 -- Occupied --
-18.932 -18.930 -18.914 -18.911 -18.901 -18.896 -18.894 -18.892
-18.877 -18.875 -10.113 -10.107 -10.098 -10.097 -10.075 -10.074
-10.067 -10.067 -10.063 -10.062 -10.062 -10.061 -10.042 -10.041
-10.041 -10.040 -10.025 -10.025 -10.024 -10.024  -1.015  -1.013
 -1.007  -1.005  -0.975  -0.974  -0.945  -0.937  -0.935  -0.933
 -0.767  -0.766  -0.728  -0.726  -0.715  -0.709  -0.699  -0.662
 -0.661  -0.611  -0.601  -0.583  -0.552  -0.550  -0.543  -0.542
 -0.519  -0.513  -0.483  -0.471  -0.464  -0.456  -0.455  -0.453
 -0.445  -0.436  -0.433  -0.415  -0.414  -0.411  -0.410  -0.399
 -0.397  -0.381  -0.377  -0.368  -0.365  -0.362  -0.356  -0.353
 -0.347  -0.344  -0.341  -0.336  -0.335  -0.333  -0.332  -0.316
 -0.313  -0.311  -0.310  -0.304  -0.293  -0.285  -0.284  -0.279
 -0.278  -0.255  -0.253  -0.250  -0.246  -0.238  -0.238  -0.177
 -0.177  -0.168  -0.166  -0.164  -0.158  -0.150  -0.150  -0.148
 -0.148
 -- Virtual --
  0.064   0.074   0.103   0.103   0.208   0.230   0.239   0.261
  0.263   0.269   0.281   0.284   0.296   0.313   0.319   0.330
  0.330   0.342   0.343   0.344   0.357   0.358   0.360   0.369
  0.372   0.380   0.382   0.389   0.396   0.399   0.403   0.407
  0.412   0.415   0.415   0.417   0.423   0.425   0.426   0.426
  0.430   0.433   0.433   0.434   0.435   0.444   0.444   0.450
  0.461   0.462   0.477   0.480   0.482   0.498   0.501   0.537
  0.537   0.546   0.547   0.625   0.632   0.651   0.655
 --------------------------------------------------------------
 
          Ground-State Mulliken Net Atomic Charges

     Atom                 Charge (a.u.)
  ----------------------------------------
      1 O                    -0.204430
      2 C                     0.210482
      3 C                    -0.078545
      4 C                    -0.080778
      5 C                     0.214777
      6 O                    -0.190345
      7 C                    -0.046568
      8 C                    -0.047412
      9 O                    -0.200056
     10 C                     0.220429
     11 C                    -0.082449
     12 C                    -0.080466
     13 C                     0.209537
     14 O                    -0.201697
     15 O                    -0.173718
     16 O                    -0.176971
     17 O                    -0.175239
     18 C                    -0.130155
     19 C                     0.026784
     20 C                    -0.142446
     21 C                    -0.144963
     22 C                     0.026522
     23 O                    -0.182711
     24 H                     0.081966
     25 H                     0.084383
     26 H                     0.086185
     27 H                     0.079570
     28 H                     0.073484
     29 H                     0.079158
     30 H                     0.073036
     31 H                     0.086970
     32 O                    -0.190892
     33 C                    -0.129072
     34 C                     0.025544
     35 C                    -0.144357
     36 C                    -0.143285
     37 C                     0.025505
     38 O                    -0.183662
     39 H                     0.085532
     40 H                     0.085021
     41 H                     0.093609
     42 H                     0.089542
     43 H                     0.079043
     44 H                     0.073733
     45 H                     0.078691
     46 H                     0.073132
     47 H                     0.081840
     48 H                     0.087976
     49 H                     0.089850
     50 H                     0.088352
     51 H                     0.087800
     52 H                     0.094277
     53 H                     0.086284
     54 H                     0.084716
     55 H                     0.076089
     56 H                     0.090399
  ----------------------------------------
  Sum of atomic charges =     0.000000

 -----------------------------------------------------------------
                    Cartesian Multipole Moments
 -----------------------------------------------------------------
    Charge (ESU x 10^10)
                 0.0000
    Dipole Moment (Debye)
         X      -0.6466      Y      -2.0199      Z      -3.7314
       Tot       4.2920
    Quadrupole Moments (Debye-Ang)
        XX    -192.6908     XY     -10.8380     YY    -148.3397
        XZ       6.2469     YZ      -0.1980     ZZ    -160.0073
    Octopole Moments (Debye-Ang^2)
       XXX     -67.4533    XXY     -36.7065    XYY     -12.0784
       YYY      55.2954    XXZ    -105.5269    XYZ     -22.4201
       YYZ       1.0074    XZZ      17.7789    YZZ       7.5703
       ZZZ      17.3780
    Hexadecapole Moments (Debye-Ang^3)
      XXXX  -19176.7614   XXXY    -284.5942   XXYY   -3325.5847
      XYYY      -4.3363   YYYY   -3272.4655   XXXZ     209.0462
      XXYZ      -2.5055   XYYZ     -56.9943   YYYZ    -111.5308
      XXZZ   -3114.3110   XYZZ      38.6259   YYZZ    -798.0714
      XZZZ     -43.7006   YZZZ    -103.1202   ZZZZ   -1450.4564
 -----------------------------------------------------------------
Archival summary:
1\1\vega02.cac.cornell.edu\OPT\ProcedureUnspecified\STO-3G\102026\jj585\MonJan1504:44:112018MonJan1504:44:112018\0\\#,OPT,ProcedureUnspecified,STO-3G,\\0,1\O\C,1,1.45294\O,2,1.24937,1,123.45\C,1,1.48084,2,109.875,3,55.006,0\H,4,1.11188,1,111.794,2,-39.6953,0\H,4,1.1147,1,110.005,2,80.7446,0\C,2,1.57057,1,110.415,3,-178.164,0\H,7,1.10404,2,107.727,1,0.752688,0\C,4,1.57103,1,107.175,2,-161.053,0\H,9,1.11234,4,108.01,1,-39.8313,0\H,9,1.11321,4,110.302,1,77.8012,0\O,9,1.48482,4,107.454,1,-161.053,0\C,12,1.46206,9,108.138,4,142.105,0\O,13,1.24746,12,122.674,9,76.3962,0\C,13,1.57223,12,110.662,9,-104.211,0\H,15,1.10425,13,106.49,12,19.6248,0\C,15,1.58717,13,114.575,12,142.105,0\H,17,1.10437,15,110.981,13,-111.435,0\C,17,1.57142,15,113.692,13,11.7708,0\O,19,1.24821,17,128.163,15,85.263,0\O,19,1.43522,17,107.486,15,-91.3898,0\C,21,1.48081,19,109.845,17,174.929,0\H,22,1.10555,21,106.125,19,-177.238,0\H,22,1.1092,21,111.673,19,63.5104,0\H,22,1.10926,21,111.27,19,-57.9043,0\C,17,1.58636,15,100.362,13,128.832,0\H,26,1.10708,17,114.218,15,-159.101,0\O,26,1.48199,17,102.601,15,-39.837,0\C,28,1.4771,26,95.0828,17,58.7676,0\H,29,1.10739,28,110.735,26,-178.843,0\C,29,1.57899,28,103.291,26,56.9963,0\H,31,1.10169,29,112.381,28,-157.979,0\H,31,1.1018,29,110.225,28,80.5114,0\C,31,1.57419,29,100.822,28,-37.3828,0\H,34,1.10149,31,111.626,29,120.676,0\H,34,1.10187,31,112.624,29,-116.761,0\C,7,1.5887,2,114.222,1,-123.158,0\H,37,1.10463,7,111.106,2,117.657,0\C,37,1.57076,7,112.087,2,-5.03304,0\O,39,1.24837,37,127.892,7,-104.211,0\O,39,1.43326,37,107.651,7,72.566,0\C,41,1.48078,39,109.912,37,-174.639,0\H,42,1.10543,41,106.053,39,178.369,0\H,42,1.10923,41,111.669,39,-62.3498,0\H,42,1.10933,41,111.277,39,59.1543,0\C,37,1.58359,7,100.864,2,-122.461,0\H,46,1.10708,37,114.165,7,156.755,0\O,46,1.48286,37,102.9,7,37.3983,0\C,48,1.47748,46,95.071,37,-57.8727,0\H,49,1.10734,48,110.522,46,179.598,0\C,49,1.57946,48,103.676,46,-56.2125,0\H,51,1.10156,49,112.161,48,155.788,0\H,51,1.10168,49,110.391,48,-82.7169,0\C,51,1.57425,49,101.002,48,35.4315,0\H,54,1.10167,51,111.528,49,-118.196,0\H,54,1.10188,51,112.694,49,119.269,0\\\@

 Total job time:  50.50s(wall), 2399.82s(cpu) 
 Mon Jan 15 04:44:11 2018

        *************************************************************
        *                                                           *
        *  Thank you very much for using Q-Chem.  Have a nice day.  *
        *                                                           *
        *************************************************************


0 sent ACK to 0 
now end server 0 ... 
