mFile = /opt/software/qchem/qchem-5.0.1//bin/mpi/machines
Process 0 of 1 is on vega02.cac.cornell.edu - thread support 0
initial socket setup ...start
initial socket setup ...done 
now start server 0 ... 
vega02.cac.cornell.edu 10.84.3
Q-Chem Developer Version! Running on 10.84.3.*
                  Welcome to Q-Chem
     A Quantum Leap Into The Future Of Chemistry


 Q-Chem 5.0, Q-Chem, Inc., Pleasanton, CA (2017)

 Yihan Shao,  Zhengting Gan,  E. Epifanovsky,  A. T. B. Gilbert,  M. Wormit,  
 J. Kussmann,  A. W. Lange,  A. Behn,  Jia Deng,  Xintian Feng,  D. Ghosh,  
 M. Goldey,  P. R. Horn,  L. D. Jacobson,  I. Kaliman,  T. Kus,  A. Landau,  
 Jie Liu,  E. I. Proynov,  R. M. Richard,  R. P. Steele,  E. J. Sundstrom,  
 H. L. Woodcock III,  P. M. Zimmerman,  D. Zuev,  B. Albrecht,  E. Alguire,  
 S. A. Baeppler,  Z. Benda,  Y. A. Bernard,  E. J. Berquist,  K. B. Bravaya,  
 D. Casanova,  Chun-Min Chang,  Yunqing Chen,  A. Chien,  K. D. Closser,  
 M. P. Coons,  S. Dasgupta,  M. Diedenhofen,  Hainam Do,  R. G. Edgar,  
 Po-Tung Fang,  S. Fatehi,  Qingguo Feng,  Qinghui Ge,  A. Ghysels,  
 J. Gomes,  J. Gonthier,  A. Gunina,  M. W. D. Hanson-Heine,  
 P. H. P. Harbach,  A. W. Hauser,  J. E. Herr,  E. G. Hohenstein,  
 Z. C. Holden,  Kerwin Hui,  T.-C. Jagau,  Hyunjun Ji,  B. Kaduk,  
 K. Khistyaev,  Jaehoon Kim,  P. Klunzinger,  K. Koh,  D. Kosenkov,  
 T. Kowalczyk,  C. M. Krauter,  A. Kunitsa,  Ka Un Lao,  A. Laurent,  
 K. V. Lawler,  Joonho Lee,  D. Lefrancois,  S. Lehtola,  D. S. Levine,  
 Yi-Pei Li,  You-Sheng Lin,  Fenglai Liu,  E. Livshits,  A. Luenser,  
 P. Manohar,  E. Mansoor,  S. F. Manzer,  Shan-Ping Mao,  Yuezhi Mao,  
 N. Mardirossian,  A. V. Marenich,  L. A. Martinez-Martinez,  S. A. Maurer,  
 N. J. Mayhall,  S. C. McKenzie,  J.-M. Mewes,  A. F. Morrison,  K. Nanda,  
 T. S. Nguyen-Beck,  R. Olivares-Amaya,  J. A. Parkhill,  T. M. Perrine,  
 F. Plasser,  S. Prager,  A. Prociuk,  D. R. Rehn,  F. Rob,  M. Schneider,  
 N. Sergueev,  S. M. Sharada,  S. Sharma,  D. W. Small,  T. Stauch,  
 T. Stein,  Yu-Chuan Su,  A. J. W. Thom,  T. Tsuchimochi,  L. Vogt,  
 O. Vydrov,  M. A. Watson,  J. Wenzel,  M. de Wergifosse,  T. A. Wesolowski,  
 A. White,  J. Witte,  A. Yamada,  Jun Yang,  K. Yao,  S. Yeganeh,  
 S. R. Yost,  Zhi-Qiang You,  A. Zech,  Igor Ying Zhang,  Xing Zhang,  
 Yan Zhao,  Ying Zhu,  B. R. Brooks,  G. K. L. Chan,  C. J. Cramer,  
 M. S. Gordon,  W. J. Hehre,  A. Klamt,  M. W. Schmidt,  C. D. Sherrill,  
 D. G. Truhlar,  A. Aspuru-Guzik,  R. Baer,  A. T. Bell,  N. A. Besley,  
 Jeng-Da Chai,  A. Dreuw,  B. D. Dunietz,  T. R. Furlani,  Chao-Ping Hsu,  
 Yousung Jung,  Jing Kong,  D. S. Lambrecht,  WanZhen Liang,  C. Ochsenfeld,  
 V. A. Rassolov,  L. V. Slipchenko,  J. E. Subotnik,  T. Van Voorhis,  
 J. M. Herbert,  A. I. Krylov,  P. M. W. Gill,  M. Head-Gordon

 Contributors to earlier versions of Q-Chem not listed above: 
 R. D. Adamson,  B. Austin,  J. Baker,  G. J. O. Beran,  K. Brandhorst,  
 S. T. Brown,  E. F. C. Byrd,  A. K. Chakraborty,  C.-L. Cheng,  
 Siu Hung Chien,  D. M. Chipman,  D. L. Crittenden,  H. Dachsel,  
 R. A. DiStasio Jr.,  R. J. Doerksen,  A. D. Dutoi,  L. Fusti-Molnar,  
 W. A. Goddard III,  A. Golubeva-Zadorozhnaya,  S. R. Gwaltney,  G. Hawkins,  
 A. Heyden,  S. Hirata,  G. Kedziora,  F. J. Keil,  C. Kelley,  Jihan Kim,  
 R. A. King,  R. Z. Khaliullin,  P. P. Korambath,  W. Kurlancheek,  
 A. M. Lee,  M. S. Lee,  S. V. Levchenko,  Ching Yeh Lin,  D. Liotard,  
 R. C. Lochan,  I. Lotan,  P. E. Maslen,  N. Nair,  D. P. O'Neill,  
 D. Neuhauser,  E. Neuscamman,  C. M. Oana,  R. Olson,  B. Peters,  
 R. Peverati,  P. A. Pieniazek,  Y. M. Rhee,  J. Ritchie,  M. A. Rohrdanz,  
 E. Rosta,  N. J. Russ,  H. F. Schaefer III,  N. E. Schultz,  N. Shenvi,  
 A. C. Simmonett,  A. Sodt,  D. Stuck,  K. S. Thanthiriwatte,  V. Vanovschi,  
 Tao Wang,  A. Warshel,  C. F. Williams,  Q. Wu,  X. Xu,  W. Zhang

 Please cite Q-Chem as follows:
 Y. Shao et al., Mol. Phys. 113, 184-215 (2015)
 DOI: 10.1080/00268976.2014.952696

 Q-Chem 5.0.1 for Intel X86 EM64T Linux

 Parts of Q-Chem use Armadillo 5.200.1 (Boston Tea Smuggler).
 http://arma.sourceforge.net/

 Q-Chem begins on Mon Jan 15 05:12:57 2018  

Host: vega02.cac.cornell.edu
0

     Scratch files written to /scratch/jj585/SOT1001/0677c.save//
 Parallel job on  1  processors

Checking the input file for inconsistencies... 	...done.

--------------------------------------------------------------
User input:
--------------------------------------------------------------
$molecule
0  1
O -3.94934 -3.66094 2.70899
C -3.26408 -4.56952 2.26188
C -3.36658 -6.02376 2.66595
C -4.77372 -6.64113 2.71769
C -5.90468 -5.78727 2.1886
O -7.098 -6.2511 2.66429
C -7.24283 -7.66939 2.5349
C -8.68022 -8.0193 2.16398
O -9.36957 -8.53799 3.3123
C -9.91772 -7.60768 4.13279
C -9.80203 -7.97067 5.59413
C -8.72741 -7.19562 6.37052
C -8.18738 -5.9537 5.69029
O -7.89497 -4.90812 6.25226
O -2.41179 -4.27224 1.24369
O -8.53846 -5.65582 4.42074
O -10.74355 -6.80563 3.71278
C -8.66689 -4.38109 3.87148
C -11.05522 -7.62519 6.42888
C -11.10611 -8.51364 7.67042
C -9.94904 -7.94857 8.46756
C -9.56773 -6.75267 7.58596
O -10.77871 -6.36421 6.98494
H -9.64938 -9.07313 5.65656
H -7.85134 -7.82397 6.64088
H -12.00591 -7.71286 5.85883
H -12.05559 -8.26907 8.19911
H -11.06479 -9.60879 7.48671
H -10.33538 -7.61405 9.45586
H -9.08608 -8.63563 8.60551
H -9.05887 -5.97757 8.19981
O -5.84284 -4.73903 1.57042
C -2.23188 -3.01031 0.71653
C -2.54502 -6.98648 1.80124
C -2.14946 -8.20622 2.61966
C -3.48978 -8.87187 2.7701
C -4.36662 -7.94892 1.90357
O -3.49109 -7.48807 0.90714
H -2.93963 -6.01254 3.69532
H -5.0139 -6.86806 3.78273
H -1.86323 -2.31658 1.5021
H -1.63115 -6.54356 1.35081
H -1.50209 -8.84058 1.97187
H -1.61811 -7.98849 3.57119
H -3.41149 -9.89033 2.32491
H -3.87282 -8.95094 3.81049
H -5.10791 -8.64687 1.50462
H -3.18836 -2.6306 0.29778
H -1.48035 -3.06025 -0.09781
H -8.99187 -4.46643 2.81402
H -7.69548 -3.84243 3.90663
H -9.43789 -3.80379 4.42508
H -9.22845 -7.22424 1.60885
H -8.66106 -8.90085 1.47815
H -6.77731 -8.3077 3.31782
H -6.88155 -7.87448 1.51468
$end

$opt
CONSTRAINT
tors           1           2           3           4     +47.368
tors           3           4           5           6    -161.053
tors           4           5           6           7     -47.368
tors           5           6           7           8    -142.105
tors           6           7           8           9    -104.211
tors           7           8           9          10     +85.263
tors           8           9          10          11    -142.105
tors           9          10          11          12    +104.211
tors          11          12          13          14    +142.105
ENDCONSTRAINT
$end

$rem
JOBTYPE                   OPT
METHOD                    B3LYP
DFT_D                     d3_op
BASIS                     STO-3G
GEOM_OPT_MAX_CYCLES       100
GEOM_OPT_TOL_GRADIENT     300
GEOM_OPT_TOL_DISPLACEMENT 1200
GEOM_OPT_TOL_ENERGY       100
SYMMETRY                  False
THRESH                    12
SCF_CONVERGENCE           8
MAX_SUB_FILE_NUM          128
MEM_STATIC                400
MEM_TOTAL                 4000
$end
--------------------------------------------------------------
 Adding empirical dispersion correction 
 ----------------------------------------------------------------
 Doing -D3(op) with
 s6 =   1.00000
 s8 =   0.78311
 a1 =   0.30000
 a2 =   4.25000
 n  =  10.00000
 -D3 energy without 3body term =     -0.0728877048 hartrees
 ----------------------------------------------------------------
             Standard Nuclear Orientation (Angstroms)
    I     Atom           X                Y                Z
 ----------------------------------------------------------------
    1      O       3.4710036589    -2.2898948868    -0.5852465267
    2      C       4.1047726948    -1.2453695686    -0.6333079962
    3      C       3.5304431613     0.1122187162    -0.9734438929
    4      C       2.2320930909     0.5245158486    -0.2605877409
    5      C       1.7492107206    -0.3899153988     0.8433704827
    6      O       0.4262415855    -0.1587977583     1.0919045268
    7      C       0.1118470568     1.2319133199     1.2197434978
    8      C      -0.9331445541     1.4363510453     2.3116713417
    9      O      -2.2158171476     1.6947572129     1.7193379632
   10      C      -2.9345304375     0.5952673322     1.3821107876
   11      C      -3.6962966027     0.7640936707     0.0891024780
   12      C      -3.0883675322     0.0380943517    -1.1198802816
   13      C      -2.0455957147    -1.0148355125    -0.8025851853
   14      O      -1.9133083896    -2.0802236791    -1.3873924556
   15      O       5.4095100187    -1.2829451676    -0.2489473471
   16      O      -1.5927325000    -1.1775565716     0.4592324041
   17      O      -3.2355505198    -0.2430244460     2.2237411080
   18      C      -1.1631550412    -2.3694202577     1.0406458078
   19      C      -5.1107923705     0.1431844055     0.1070628810
   20      C      -5.9889509677     0.8361368931    -0.9331337804
   21      C      -5.3638395858     0.3242621547    -2.2140581660
   22      C      -4.3512521948    -0.6765923315    -1.6433132500
   23      O      -4.9480627019    -1.1348895994    -0.4548774692
   24      H      -3.8109821125     1.8576395634    -0.0942610768
   25      H      -2.6328350040     0.7333312175    -1.8578184316
   26      H      -5.5997726916     0.1823619011     1.1049696286
   27      H      -7.0078525076     0.3969643109    -0.8341036507
   28      H      -6.0607813909     1.9419087188    -0.8499515179
   29      H      -6.1518024254    -0.1923482209    -2.8057738065
   30      H      -4.8585797017     1.0937524780    -2.8372585348
   31      H      -4.1199252410    -1.4550454061    -2.4029374881
   32      O       2.3297766855    -1.3247254308     1.3666783846
   33      C       6.0778333422    -2.4244617789     0.1422257091
   34      C       4.4913626257     1.2858750389    -0.7528115394
   35      C       4.1460337021     2.4218175445    -1.7038253333
   36      C       2.8402164767     2.8766568977    -1.1120970553
   37      C       2.7609733033     1.9749035286     0.1337443110
   38      O       4.1036438105     1.7768559747     0.4940515742
   39      H       3.3273283307     0.0149556614    -2.0649103612
   40      H       1.4176188657     0.5676445965    -1.0210254480
   41      H       6.0861673644    -3.1654569269    -0.6855067930
   42      H       5.5674261088     1.0347509408    -0.8679104350
   43      H       4.9083351641     3.2200388894    -1.5525918176
   44      H       4.1092604013     2.1465114109    -2.7799307061
   45      H       2.9542197900     3.9483393962    -0.8291057150
   46      H       1.9494607094     2.7591648366    -1.7664156606
   47      H       2.2373158954     2.6170299897     0.8473707513
   48      H       5.5898807756    -2.8657421317     1.0375240840
   49      H       7.1248716287    -2.1628983933     0.3986168206
   50      H      -0.8750540947    -2.1820069242     2.0956295302
   51      H      -0.2840586007    -2.7742531134     0.4944523315
   52      H      -1.9867600558    -3.1149526662     1.0339035618
   53      H      -0.9346973547     0.6604446056     3.1109288967
   54      H      -0.7121631594     2.3992193426     2.8331233167
   55      H      -0.0481122663     1.8114191554     0.2839559928
   56      H       0.9206885318     1.6226061871     1.8573707767
 ----------------------------------------------------------------
 Molecular Point Group                 C1    NOp =  1
 Largest Abelian Subgroup              C1    NOp =  1
 Nuclear Repulsion Energy =  3291.9544387878 hartrees
 There are      113 alpha and      113 beta electrons
 Requested basis set is STO-3G
 There are 86 shells and 176 basis functions

 Total QAlloc Memory Limit   4000 MB
 Mega-Array Size       392 MB
 MEM_STATIC part       400 MB
 A cutoff of  1.0D-12 yielded   2323 shell pairs
 There are     10975 function pairs
 
 -------------------------------------------------------
 OpenMP Integral Computing Module                       
 Release: version 1.0, May 2013, Q-Chem Inc. Pittsburgh 
 -------------------------------------------------------
 Integral Job Info:
 Integral job number is                      11
 Integral operator is                         1
 short-range coefficients                     0
 long-range coefficients              100000000
 Omega coefficients                           0
 if combine SR and LR in K                    0
 Integral screening is                        0
 Integral computing path is                   2
 max size of driver memory is            800000
 size of driver memory is                 45569
 size of scratch memory is              1046100
 max col of scratch BK array                289
 max len of scratch array in speh3           22
 max len of scratch index in speh4            8
 max int batch size is                      520
 min int batch size is                       52
 fixed nKL is                                52
 max L of basis functions is                  1
 order of int derivative is                   0
 number of shells is                         86
 number of basis is                         176
 number of cartesian basis is               176
 number of contracted shell pairs          2323
 number of primitive shell pairs          11812
 maxK2 (contraction) of shell pair            9
 max number of K2 of shell pair               1
 max number of CS2 of shell pair            327
 max number of PS2 of shell pair           1398
 mem total for path MDJ                   53354
 -------------------------------------------------------
 Smallest overlap matrix eigenvalue = 1.94E-01

 Scale SEOQF with 1.000000e-02/1.000000e-01/1.000000e-01

 Standard Electronic Orientation quadrupole field applied
 Nucleus-field energy     =     0.0000000108 hartrees
 Guess from superposition of atomic densities
 Warning:  Energy on first SCF cycle will be non-variational
 A restricted hybrid HF-DFT SCF calculation will be
 performed using Pulay DIIS extrapolation
 Exchange:     0.2000 Hartree-Fock + 0.0800 Slater + 0.7200 B88
 Correlation:  0.1900 VWN1RPA + 0.8100 LYP
 Using SG-1 standard quadrature grid
 Dispersion:   Grimme D3
 SCF converges when DIIS error is below 1.0E-08
 using 48 threads for integral computing
 -------------------------------------------------------
 OpenMP Integral computing Module                
 Release: version 1.0, May 2013, Q-Chem Inc. Pittsburgh 
 -------------------------------------------------------
 -------------------------------------------------------
 OpenMP BLAS3 based DFT computing Module                
 Release: version 1.0, May 2013, Q-Chem Inc. Pittsburgh 
 -------------------------------------------------------
 ---------------------------------------
  Cycle       Energy         DIIS Error
 ---------------------------------------
    1   -1509.5058022422      8.31E-02
    2   -1509.4597733710      1.09E-02
    3   -1506.9265124532      2.80E-02
    4   -1509.9872471052      3.79E-03
    5   -1510.0406968801      1.59E-03
    6   -1510.0507453123      5.24E-04
    7   -1510.0518704580      1.63E-04
    8   -1510.0519801552      4.52E-05
    9   -1510.0519884724      1.19E-05
   10   -1510.0519890271      4.99E-06
   11   -1510.0519891293      1.61E-06
   12   -1510.0519891406      2.22E-07
   13   -1510.0519891408      8.58E-08
   14   -1510.0519891408      4.44E-08
   15   -1510.0519891406      1.19E-08
   16   -1510.0519891408      2.38E-09 Convergence criterion met
 ---------------------------------------
 SCF time:  CPU 121.10 s  wall 2.58 s
 SCF   energy in the final basis set = -1510.05198914
 Total energy in the final basis set = -1510.05198914
 
 --------------------------------------------------------------
 
                    Orbital Energies (a.u.)
 --------------------------------------------------------------
 
 Alpha MOs
 -- Occupied --
-18.932 -18.922 -18.921 -18.913 -18.909 -18.898 -18.891 -18.851
-18.847 -18.839 -10.119 -10.104 -10.104 -10.102 -10.088 -10.087
-10.076 -10.075 -10.071 -10.069 -10.065 -10.064 -10.048 -10.045
-10.041 -10.032 -10.023 -10.019 -10.017 -10.015  -1.049  -1.041
 -1.036  -1.032  -1.030  -1.023  -0.967  -0.939  -0.936  -0.921
 -0.787  -0.783  -0.750  -0.745  -0.739  -0.729  -0.718  -0.676
 -0.667  -0.631  -0.617  -0.596  -0.559  -0.552  -0.545  -0.541
 -0.537  -0.519  -0.501  -0.493  -0.487  -0.482  -0.468  -0.461
 -0.457  -0.449  -0.434  -0.430  -0.422  -0.420  -0.419  -0.415
 -0.410  -0.406  -0.394  -0.390  -0.382  -0.366  -0.359  -0.358
 -0.353  -0.349  -0.342  -0.332  -0.329  -0.325  -0.321  -0.316
 -0.315  -0.309  -0.304  -0.303  -0.298  -0.295  -0.292  -0.281
 -0.271  -0.246  -0.243  -0.237  -0.234  -0.220  -0.205  -0.185
 -0.173  -0.165  -0.162  -0.154  -0.153  -0.142  -0.135  -0.129
 -0.117
 -- Virtual --
  0.093   0.102   0.113   0.125   0.246   0.250   0.256   0.273
  0.281   0.285   0.307   0.329   0.333   0.335   0.341   0.347
  0.352   0.359   0.368   0.373   0.376   0.380   0.390   0.398
  0.403   0.409   0.410   0.412   0.416   0.419   0.420   0.430
  0.433   0.436   0.439   0.443   0.443   0.447   0.449   0.461
  0.466   0.470   0.475   0.477   0.479   0.484   0.488   0.493
  0.495   0.508   0.515   0.537   0.544   0.548   0.555   0.570
  0.570   0.578   0.588   0.678   0.685   0.699   0.703
 --------------------------------------------------------------
 
          Ground-State Mulliken Net Atomic Charges

     Atom                 Charge (a.u.)
  ----------------------------------------
      1 O                    -0.232266
      2 C                     0.238957
      3 C                    -0.083046
      4 C                    -0.091574
      5 C                     0.242925
      6 O                    -0.192679
      7 C                    -0.043041
      8 C                    -0.027624
      9 O                    -0.209105
     10 C                     0.244473
     11 C                    -0.087753
     12 C                    -0.078475
     13 C                     0.223931
     14 O                    -0.238315
     15 O                    -0.214814
     16 O                    -0.208789
     17 O                    -0.225445
     18 C                    -0.087657
     19 C                     0.040948
     20 C                    -0.142387
     21 C                    -0.144124
     22 C                     0.041673
     23 O                    -0.209100
     24 H                     0.082238
     25 H                     0.083748
     26 H                     0.088593
     27 H                     0.075683
     28 H                     0.071405
     29 H                     0.077457
     30 H                     0.070820
     31 H                     0.093486
     32 O                    -0.194006
     33 C                    -0.097321
     34 C                     0.040293
     35 C                    -0.143194
     36 C                    -0.143900
     37 C                     0.032176
     38 O                    -0.209849
     39 H                     0.085319
     40 H                     0.083934
     41 H                     0.084444
     42 H                     0.094334
     43 H                     0.074248
     44 H                     0.073071
     45 H                     0.074242
     46 H                     0.068704
     47 H                     0.083770
     48 H                     0.091107
     49 H                     0.091772
     50 H                     0.099682
     51 H                     0.092707
     52 H                     0.088931
     53 H                     0.102651
     54 H                     0.085407
     55 H                     0.090470
     56 H                     0.090868
  ----------------------------------------
  Sum of atomic charges =     0.000000

 -----------------------------------------------------------------
                    Cartesian Multipole Moments
 -----------------------------------------------------------------
    Charge (ESU x 10^10)
                 0.0000
    Dipole Moment (Debye)
         X       1.1228      Y       4.8872      Z      -2.0445
       Tot       5.4153
    Quadrupole Moments (Debye-Ang)
        XX    -154.7836     XY      -7.0739     YY    -162.9494
        XZ       0.9507     YZ      -2.5105     ZZ    -158.4784
    Octopole Moments (Debye-Ang^2)
       XXX      51.2385    XXY      -7.9282    XYY      21.7194
       YYY     -15.6994    XXZ     -45.4455    XYZ      -2.8812
       YYZ      18.9541    XZZ      12.1845    YZZ       0.0880
       ZZZ      20.6180
    Hexadecapole Moments (Debye-Ang^3)
      XXXX  -12225.9333   XXXY    -420.2702   XXYY   -2510.8894
      XYYY     -14.9844   YYYY   -2337.5180   XXXZ       4.0840
      XXYZ     -22.7656   XYYZ     -21.4787   YYYZ      -2.6027
      XXZZ   -2421.4844   XYZZ     -11.9918   YYZZ    -661.1114
      XZZZ       2.7307   YZZZ      47.0829   ZZZZ   -1574.8532
 -----------------------------------------------------------------
 Calculating analytic gradient of the SCF energy
 Gradient of SCF Energy
            1           2           3           4           5           6
    1   0.0465745   0.0040453  -0.0097961  -0.0085214  -0.0115815   0.0563956
    2   0.0556144   0.0292145   0.0207943  -0.0302270  -0.0206888   0.0264951
    3   0.0141172  -0.0225947   0.0579429   0.0326515   0.0165602  -0.0139135
            7           8           9          10          11          12
    1  -0.0331798   0.0342675  -0.0183207   0.0332395   0.0006747  -0.0294448
    2  -0.0124206  -0.0226474  -0.0640713   0.0253084  -0.0492847  -0.0458511
    3  -0.0386716  -0.0231306   0.0122772  -0.0086769   0.0148343   0.0223781
           13          14          15          16          17          18
    1   0.0086677  -0.0031232  -0.0460551   0.0036981   0.0102948  -0.0103996
    2   0.0604760   0.0622961  -0.1174401  -0.1286262   0.0500947   0.0445237
    3  -0.0182558   0.1059838   0.0100690  -0.0917949  -0.0412812   0.0083975
           19          20          21          22          23          24
    1   0.0230224   0.0422804   0.0077952  -0.0216952   0.0177799  -0.0073316
    2  -0.0380867  -0.0308530  -0.0146328   0.0237729   0.0799503   0.0068071
    3  -0.0555568  -0.0057191   0.0444227   0.0679748  -0.0283666   0.0016710
           25          26          27          28          29          30
    1   0.0074457  -0.0067438  -0.0056586  -0.0019420  -0.0130413   0.0076486
    2  -0.0003323   0.0127965  -0.0098265   0.0081025  -0.0032464   0.0040260
    3  -0.0017888   0.0004489  -0.0005612  -0.0011179   0.0026135  -0.0032959
           31          32          33          34          35          36
    1  -0.0015245  -0.0271548  -0.0041411  -0.0574558  -0.0298734   0.0338395
    2   0.0070320   0.0426852   0.0564047   0.0283569  -0.0218571  -0.0325884
    3  -0.0121945  -0.0297857  -0.0105039   0.0461143   0.0439898   0.0222870
           37          38          39          40          41          42
    1   0.0552228  -0.0339640   0.0021033  -0.0047907  -0.0022094   0.0034408
    2  -0.0318626  -0.0156466  -0.0035808  -0.0042982   0.0085611   0.0067274
    3  -0.0154348  -0.0764831  -0.0047392  -0.0079656  -0.0033917  -0.0139333
           43          44          45          46          47          48
    1   0.0043299  -0.0014495   0.0117093  -0.0076655   0.0051411  -0.0022163
    2   0.0072050  -0.0004223   0.0102053  -0.0026085   0.0144924   0.0084249
    3   0.0085533  -0.0086858  -0.0014506  -0.0026699  -0.0217084  -0.0008155
           49          50          51          52          53          54
    1   0.0012757   0.0009472  -0.0007924  -0.0015384  -0.0014537  -0.0035693
    2  -0.0032300  -0.0062514   0.0071256   0.0058626   0.0080761   0.0037080
    3   0.0010412   0.0028207  -0.0024451   0.0017632   0.0083447   0.0023082
           55          56
    1   0.0036326  -0.0188387
    2   0.0015215  -0.0160804
    3  -0.0040098   0.0213779
 Max gradient component =       1.286E-01
 RMS gradient           =       3.086E-02
 Gradient time:  CPU 34.38 s  wall 0.74 s
 Geometry Optimization Parameters
   NAtoms,    NIC,     NZ,  NCons,   NDum,   NFix, NCnnct, MaxDiis
       56     458       0       9       0       0       0       0


** CONSTRAINED OPTIMIZATION IN DELOCALIZED INTERNAL COORDINATES **
   Searching for a Minimum

   Optimization Cycle:   1

                       Coordinates (Angstroms)
     ATOM                X               Y               Z
      1  O         3.4710036589   -2.2898948868   -0.5852465267
      2  C         4.1047726948   -1.2453695686   -0.6333079962
      3  C         3.5304431613    0.1122187162   -0.9734438929
      4  C         2.2320930909    0.5245158486   -0.2605877409
      5  C         1.7492107206   -0.3899153988    0.8433704827
      6  O         0.4262415855   -0.1587977583    1.0919045268
      7  C         0.1118470568    1.2319133199    1.2197434978
      8  C        -0.9331445541    1.4363510453    2.3116713417
      9  O        -2.2158171476    1.6947572129    1.7193379632
     10  C        -2.9345304375    0.5952673322    1.3821107876
     11  C        -3.6962966027    0.7640936707    0.0891024780
     12  C        -3.0883675322    0.0380943517   -1.1198802816
     13  C        -2.0455957147   -1.0148355125   -0.8025851853
     14  O        -1.9133083896   -2.0802236791   -1.3873924556
     15  O         5.4095100187   -1.2829451676   -0.2489473471
     16  O        -1.5927325000   -1.1775565716    0.4592324041
     17  O        -3.2355505198   -0.2430244460    2.2237411080
     18  C        -1.1631550412   -2.3694202577    1.0406458078
     19  C        -5.1107923705    0.1431844055    0.1070628810
     20  C        -5.9889509677    0.8361368931   -0.9331337804
     21  C        -5.3638395858    0.3242621547   -2.2140581660
     22  C        -4.3512521948   -0.6765923315   -1.6433132500
     23  O        -4.9480627019   -1.1348895994   -0.4548774692
     24  H        -3.8109821125    1.8576395634   -0.0942610768
     25  H        -2.6328350040    0.7333312175   -1.8578184316
     26  H        -5.5997726916    0.1823619011    1.1049696286
     27  H        -7.0078525076    0.3969643109   -0.8341036507
     28  H        -6.0607813909    1.9419087188   -0.8499515179
     29  H        -6.1518024254   -0.1923482209   -2.8057738065
     30  H        -4.8585797017    1.0937524780   -2.8372585348
     31  H        -4.1199252410   -1.4550454061   -2.4029374881
     32  O         2.3297766855   -1.3247254308    1.3666783846
     33  C         6.0778333422   -2.4244617789    0.1422257091
     34  C         4.4913626257    1.2858750389   -0.7528115394
     35  C         4.1460337021    2.4218175445   -1.7038253333
     36  C         2.8402164767    2.8766568977   -1.1120970553
     37  C         2.7609733033    1.9749035286    0.1337443110
     38  O         4.1036438105    1.7768559747    0.4940515742
     39  H         3.3273283307    0.0149556614   -2.0649103612
     40  H         1.4176188657    0.5676445965   -1.0210254480
     41  H         6.0861673644   -3.1654569269   -0.6855067930
     42  H         5.5674261088    1.0347509408   -0.8679104350
     43  H         4.9083351641    3.2200388894   -1.5525918176
     44  H         4.1092604013    2.1465114109   -2.7799307061
     45  H         2.9542197900    3.9483393962   -0.8291057150
     46  H         1.9494607094    2.7591648366   -1.7664156606
     47  H         2.2373158954    2.6170299897    0.8473707513
     48  H         5.5898807756   -2.8657421317    1.0375240840
     49  H         7.1248716287   -2.1628983933    0.3986168206
     50  H        -0.8750540947   -2.1820069242    2.0956295302
     51  H        -0.2840586007   -2.7742531134    0.4944523315
     52  H        -1.9867600558   -3.1149526662    1.0339035618
     53  H        -0.9346973547    0.6604446056    3.1109288967
     54  H        -0.7121631594    2.3992193426    2.8331233167
     55  H        -0.0481122663    1.8114191554    0.2839559928
     56  H         0.9206885318    1.6226061871    1.8573707767
   Point Group: c1    Number of degrees of freedom:   162


   Energy is  -1510.051989141

              Constraints and their Current Values
                                        Value     Constraint
   Dihedral:        1   2   3   4       47.368       47.368
   Dihedral:        3   4   5   6     -161.053     -161.053
   Dihedral:        4   5   6   7      -47.368      -47.368
   Dihedral:        5   6   7   8     -142.105     -142.105
   Dihedral:        6   7   8   9     -104.211     -104.211
   Dihedral:        7   8   9  10       85.263       85.263
   Dihedral:        8   9  10  11     -142.105     -142.105
   Dihedral:        9  10  11  12      104.211      104.211
   Dihedral:       11  12  13  14      142.105      142.105

 Attempting to Generate Delocalized Internal Coordinates

   Using Lagrange Multiplier Algorithm


171 Hessian modes will be used to form the next step
  Hessian Eigenvalues:
    -0.977753   -0.977753   -0.977753   -0.977753   -0.977753   -0.977753
    -0.977753   -0.977753   -0.977753    0.045000    0.045000    0.045000
     0.045000    0.045121    0.045307    0.045557    0.045608    0.046897
     0.048242    0.048832    0.048890    0.053572    0.059352    0.059969
     0.061151    0.062752    0.066421    0.066880    0.067078    0.067424
     0.067742    0.069480    0.071093    0.072117    0.074062    0.075166
     0.075698    0.076819    0.077839    0.082019    0.082586    0.082739
     0.083713    0.083974    0.084161    0.084424    0.085448    0.085803
     0.087121    0.087864    0.088788    0.088960    0.089028    0.089537
     0.089773    0.089884    0.091367    0.093968    0.094705    0.096668
     0.097940    0.111530    0.111621    0.114333    0.114653    0.115193
     0.115714    0.115909    0.116532    0.116534    0.117736    0.118881
     0.121723    0.128242    0.130057    0.130908    0.134480    0.139608
     0.148761    0.160000    0.160000    0.160000    0.160000    0.160000
     0.160000    0.171388    0.172320    0.173901    0.176439    0.219447
     0.223027    0.224754    0.234544    0.237568    0.240822    0.247109
     0.249485    0.250000    0.250000    0.250000    0.250000    0.250000
     0.250000    0.250000    0.250000    0.257802    0.258772    0.265255
     0.266993    0.277578    0.279103    0.282056    0.285093    0.295243
     0.298751    0.298986    0.308051    0.310698    0.310865    0.313318
     0.318621    0.320638    0.321046    0.321326    0.321527    0.321738
     0.321872    0.321875    0.323253    0.323624    0.323898    0.323934
     0.324252    0.324424    0.324441    0.324552    0.324609    0.324712
     0.324913    0.324961    0.324990    0.325006    0.326470    0.326793
     0.335102    0.344080    0.369481    0.375338    0.384874    0.394379
     0.401010    0.407710    0.466368    0.492129    0.517907    0.528078
     0.537329    0.549233    0.930157    0.941950    0.942761    0.960444
     1.022753    1.022753    1.022753    1.022753    1.022753    1.022753
     1.022753    1.022753    1.022753

 Minimum Search - Taking P-RFO Step
 Searching for Lamda that Maximizes Along the Constraint modes Only
 Value Taken    Lamda =   0.00377679
 Searching for Lamda that Minimizes Along All other modes
 Value Taken    Lamda =  -0.23784872
 Calculated Step too Large.  Step scaled by  0.462303
 Step Taken.  Stepsize is  0.300000

                             Maximum     Tolerance    Cnvgd?
         Gradient            0.115058       0.000300      NO
         Displacement        0.090237       0.001200      NO
         Energy change     *********       0.000001      NO


 New Cartesian Coordinates Obtained by Inverse Iteration

 Displacement from previous Coordinates is:  3.112606
 Adding empirical dispersion correction 
 ----------------------------------------------------------------
 Doing -D3(op) with
 s6 =   1.00000
 s8 =   0.78311
 a1 =   0.30000
 a2 =   4.25000
 n  =  10.00000
 -D3 energy without 3body term =     -0.0702634694 hartrees
 ----------------------------------------------------------------
             Standard Nuclear Orientation (Angstroms)
    I     Atom           X                Y                Z
 ----------------------------------------------------------------
    1      O       3.6402650062    -2.2888735127    -0.5116998928
    2      C       4.2960143134    -1.2409163641    -0.5669810138
    3      C       3.7455627680     0.1288231282    -0.9672914016
    4      C       2.4102628525     0.5861180326    -0.3049675298
    5      C       1.8734038965    -0.3010651151     0.8312527218
    6      O       0.5197811332    -0.0874582989     1.0803889290
    7      C       0.1042107354     1.2925453865     1.1907350899
    8      C      -0.9684278322     1.4560877869     2.2934081097
    9      O      -2.3020694496     1.6267290787     1.7440126659
   10      C      -3.0312833518     0.4949192137     1.4210434113
   11      C      -3.8427244632     0.7061281684     0.1365030577
   12      C      -3.2843845591     0.0185439300    -1.1438572788
   13      C      -2.2401067116    -1.0777035790    -0.9247880408
   14      O      -2.1766387148    -2.1230658398    -1.5967837648
   15      O       5.6056298108    -1.2384369947    -0.1417458435
   16      O      -1.7557578682    -1.2391255307     0.3486776821
   17      O      -3.2946240678    -0.3750141969     2.2631758793
   18      C      -1.3370746957    -2.4818844402     0.8637476011
   19      C      -5.2717585910     0.0808109727     0.1884092958
   20      C      -6.1925654000     0.8291370255    -0.8003823713
   21      C      -5.6151056567     0.3611014291    -2.1400858374
   22      C      -4.5801206600    -0.6818657529    -1.6479705645
   23      O      -5.1373797019    -1.1960874525    -0.4372123486
   24      H      -3.9541248221     1.8035192602    -0.0012261288
   25      H      -2.8600223480     0.7407097907    -1.8718109906
   26      H      -5.7167177438     0.0782371791     1.2056451950
   27      H      -7.2084408146     0.3983531303    -0.6799253871
   28      H      -6.2500753397     1.9274186815    -0.6681977459
   29      H      -6.4225517423    -0.1240617951    -2.7244478908
   30      H      -5.1307743838     1.1514013604    -2.7473756165
   31      H      -4.3801922579    -1.4325326943    -2.4417311657
   32      O       2.4534683025    -1.2258708010     1.3989463627
   33      C       6.2328644475    -2.4092563859     0.3049226192
   34      C       4.7178981839     1.3108606958    -0.7400410367
   35      C       4.4065656043     2.4317045459    -1.7488596075
   36      C       3.0635435925     2.9159744347    -1.2099159358
   37      C       2.9338292030     2.0494006962     0.0775490411
   38      O       4.2800659270     1.8498360572     0.4992066125
   39      H       3.5793121779     0.0029839186    -2.0600365715
   40      H       1.6257211463     0.6180699334    -1.0913643625
   41      H       6.2566467682    -3.1784802282    -0.4982744419
   42      H       5.7931145247     1.0438394215    -0.8008132195
   43      H       5.1649413154     3.2287613758    -1.6016496382
   44      H       4.4064675543     2.1212032541    -2.8120950020
   45      H       3.1630848218     3.9914697379    -0.9556850606
   46      H       2.2004104195     2.7790579790    -1.8910296383
   47      H       2.3814848488     2.7012536420     0.7655048386
   48      H       5.7080777382    -2.8250961229     1.1931693017
   49      H       7.2754313818    -2.1628795495     0.5915008542
   50      H      -1.0170272058    -2.3382432191     1.9155292079
   51      H      -0.4829892805    -2.8921594005     0.2813412575
   52      H      -2.1766691946    -3.2111246012     0.8498716564
   53      H      -0.8999724841     0.6905593712     3.0994979723
   54      H      -0.7990590313     2.4400974419     2.7907964179
   55      H      -0.1024622072     1.8403084164     0.2469031869
   56      H       0.9058047388     1.7548683651     1.7939658459
 ----------------------------------------------------------------
 Molecular Point Group                 C1    NOp =  1
 Largest Abelian Subgroup              C1    NOp =  1
 Nuclear Repulsion Energy =  3215.2152753691 hartrees
 There are      113 alpha and      113 beta electrons
 Applying Cartesian multipole field
    Component          Value
    ---------          -----
     (2,0,0)        1.00000E-12
     (0,2,0)        2.00000E-11
     (0,0,2)       -3.00000E-11
 Nucleus-field energy     =     0.0000000124 hartrees
 Requested basis set is STO-3G
 There are 86 shells and 176 basis functions
 A cutoff of  1.0D-12 yielded   2244 shell pairs
 There are     10590 function pairs
 Smallest overlap matrix eigenvalue = 2.00E-01
 Guess MOs from SCF MO coefficient file
 Reading MOs from coefficient file
 Reading MOs from coefficient file
 A restricted hybrid HF-DFT SCF calculation will be
 performed using Pulay DIIS extrapolation
 Exchange:     0.2000 Hartree-Fock + 0.0800 Slater + 0.7200 B88
 Correlation:  0.1900 VWN1RPA + 0.8100 LYP
 Using SG-1 standard quadrature grid
 Dispersion:   Grimme D3
 SCF converges when DIIS error is below 1.0E-08
 Geometry optimization detected.  Setting ReadMinima to 0
 Setting SaveMinima to 0
 using 48 threads for integral computing
 -------------------------------------------------------
 OpenMP Integral computing Module                
 Release: version 1.0, May 2013, Q-Chem Inc. Pittsburgh 
 -------------------------------------------------------
 -------------------------------------------------------
 OpenMP BLAS3 based DFT computing Module                
 Release: version 1.0, May 2013, Q-Chem Inc. Pittsburgh 
 -------------------------------------------------------
 ---------------------------------------
  Cycle       Energy         DIIS Error
 ---------------------------------------
    1   -1509.9626788563      4.24E-03
    2   -1510.1319892821      8.57E-04
    3   -1510.1247191222      1.58E-03
    4   -1510.1350581872      2.96E-04
    5   -1510.1354593822      6.39E-05
    6   -1510.1354747433      3.06E-05
    7   -1510.1354781243      1.53E-05
    8   -1510.1354791857      2.54E-06
    9   -1510.1354792175      6.61E-07
   10   -1510.1354792192      3.89E-07
   11   -1510.1354792199      1.84E-07
   12   -1510.1354792200      3.78E-08
   13   -1510.1354792201      1.66E-08
   14   -1510.1354792200      8.82E-09 Convergence criterion met
 ---------------------------------------
 SCF time:  CPU 100.69 s  wall 2.10 s
 SCF   energy in the final basis set = -1510.13547922
 Total energy in the final basis set = -1510.13547922
 
 --------------------------------------------------------------
 
                    Orbital Energies (a.u.)
 --------------------------------------------------------------
 
 Alpha MOs
 -- Occupied --
-18.927 -18.926 -18.922 -18.915 -18.906 -18.896 -18.891 -18.855
-18.850 -18.847 -10.116 -10.101 -10.100 -10.098 -10.088 -10.085
-10.074 -10.072 -10.068 -10.065 -10.064 -10.061 -10.046 -10.046
-10.041 -10.031 -10.023 -10.020 -10.017 -10.014  -1.033  -1.029
 -1.025  -1.017  -1.013  -1.006  -0.957  -0.933  -0.932  -0.922
 -0.780  -0.775  -0.741  -0.737  -0.731  -0.723  -0.711  -0.671
 -0.665  -0.626  -0.612  -0.593  -0.556  -0.548  -0.544  -0.535
 -0.534  -0.515  -0.496  -0.489  -0.482  -0.476  -0.461  -0.455
 -0.451  -0.443  -0.430  -0.424  -0.416  -0.415  -0.414  -0.409
 -0.406  -0.402  -0.390  -0.388  -0.378  -0.363  -0.356  -0.354
 -0.349  -0.346  -0.341  -0.333  -0.329  -0.325  -0.322  -0.313
 -0.313  -0.307  -0.303  -0.301  -0.296  -0.292  -0.290  -0.279
 -0.268  -0.245  -0.240  -0.235  -0.232  -0.226  -0.209  -0.180
 -0.173  -0.163  -0.162  -0.157  -0.151  -0.147  -0.137  -0.133
 -0.128
 -- Virtual --
  0.089   0.094   0.108   0.118   0.235   0.247   0.249   0.267
  0.273   0.279   0.302   0.320   0.323   0.326   0.331   0.346
  0.350   0.354   0.359   0.367   0.370   0.371   0.385   0.387
  0.395   0.400   0.404   0.406   0.409   0.411   0.412   0.419
  0.425   0.426   0.429   0.434   0.439   0.440   0.444   0.453
  0.455   0.460   0.465   0.467   0.471   0.474   0.479   0.483
  0.490   0.496   0.503   0.522   0.524   0.529   0.536   0.556
  0.558   0.565   0.568   0.650   0.654   0.673   0.679
 --------------------------------------------------------------
 
          Ground-State Mulliken Net Atomic Charges

     Atom                 Charge (a.u.)
  ----------------------------------------
      1 O                    -0.225114
      2 C                     0.229154
      3 C                    -0.081378
      4 C                    -0.088341
      5 C                     0.234610
      6 O                    -0.193369
      7 C                    -0.043980
      8 C                    -0.030938
      9 O                    -0.205458
     10 C                     0.236705
     11 C                    -0.085351
     12 C                    -0.077663
     13 C                     0.215546
     14 O                    -0.228143
     15 O                    -0.203772
     16 O                    -0.199291
     17 O                    -0.217784
     18 C                    -0.097074
     19 C                     0.036089
     20 C                    -0.143162
     21 C                    -0.144919
     22 C                     0.036975
     23 O                    -0.202342
     24 H                     0.082749
     25 H                     0.082981
     26 H                     0.087932
     27 H                     0.075775
     28 H                     0.071879
     29 H                     0.077129
     30 H                     0.071246
     31 H                     0.093297
     32 O                    -0.188490
     33 C                    -0.103848
     34 C                     0.035750
     35 C                    -0.143893
     36 C                    -0.144437
     37 C                     0.029621
     38 O                    -0.202673
     39 H                     0.084423
     40 H                     0.084156
     41 H                     0.084899
     42 H                     0.094872
     43 H                     0.074830
     44 H                     0.073597
     45 H                     0.074480
     46 H                     0.069776
     47 H                     0.081969
     48 H                     0.091624
     49 H                     0.091828
     50 H                     0.101358
     51 H                     0.092188
     52 H                     0.090180
     53 H                     0.100377
     54 H                     0.086746
     55 H                     0.089431
     56 H                     0.087249
  ----------------------------------------
  Sum of atomic charges =    -0.000000

 -----------------------------------------------------------------
                    Cartesian Multipole Moments
 -----------------------------------------------------------------
    Charge (ESU x 10^10)
                 0.0000
    Dipole Moment (Debye)
         X       1.2407      Y       4.7257      Z      -2.0937
       Tot       5.3156
    Quadrupole Moments (Debye-Ang)
        XX    -153.8794     XY      -8.0351     YY    -161.7861
        XZ      -0.0864     YZ      -2.7015     ZZ    -159.3813
    Octopole Moments (Debye-Ang^2)
       XXX      56.7446    XXY      -6.1764    XYY      23.6351
       YYY     -17.0206    XXZ     -44.4299    XYZ      -4.1863
       YYZ      19.8887    XZZ      13.5058    YZZ       2.5060
       ZZZ      20.4525
    Hexadecapole Moments (Debye-Ang^3)
      XXXX  -13321.8275   XXXY    -562.4032   XXYY   -2720.0678
      XYYY    -113.9618   YYYY   -2379.6729   XXXZ      -4.3058
      XXYZ     -38.6724   XYYZ     -27.4798   YYYZ       1.4093
      XXZZ   -2612.7087   XYZZ     -50.4225   YYZZ    -674.6444
      XZZZ      -7.3646   YZZZ      51.2451   ZZZZ   -1587.8488
 -----------------------------------------------------------------
 Calculating analytic gradient of the SCF energy
 Gradient of SCF Energy
            1           2           3           4           5           6
    1   0.0235740   0.0133580  -0.0072816  -0.0094833  -0.0050077   0.0441571
    2   0.0292915   0.0323054   0.0192127  -0.0218513  -0.0176487   0.0288355
    3   0.0123594  -0.0236131   0.0430896   0.0201265   0.0103737  -0.0056664
            7           8           9          10          11          12
    1  -0.0339790   0.0349183  -0.0141874   0.0217848  -0.0006288  -0.0205267
    2  -0.0098103  -0.0103372  -0.0428115   0.0236632  -0.0315129  -0.0366786
    3  -0.0352318  -0.0125582   0.0153119  -0.0173649   0.0093447   0.0134098
           13          14          15          16          17          18
    1   0.0120068  -0.0041767  -0.0353158  -0.0053057   0.0013061  -0.0099000
    2   0.0709378   0.0177236  -0.0880811  -0.0977271   0.0268040   0.0383667
    3  -0.0070143   0.0562382   0.0097605  -0.0572786  -0.0205781   0.0081660
           19          20          21          22          23          24
    1   0.0145599   0.0280044   0.0066511  -0.0113836   0.0114168  -0.0061302
    2  -0.0289038  -0.0183816  -0.0104694   0.0104079   0.0544008   0.0046370
    3  -0.0382810  -0.0050258   0.0261169   0.0511749  -0.0178476   0.0026930
           25          26          27          28          29          30
    1   0.0065884  -0.0055092  -0.0033517  -0.0025928  -0.0094951   0.0055998
    2  -0.0013278   0.0121914  -0.0076837   0.0053087  -0.0020922   0.0021657
    3  -0.0016533   0.0003972  -0.0005181  -0.0006851   0.0032544  -0.0026070
           31          32          33          34          35          36
    1  -0.0017123  -0.0156921  -0.0008343  -0.0375492  -0.0196878   0.0187512
    2   0.0072757   0.0237759   0.0456698   0.0192748  -0.0146686  -0.0198037
    3  -0.0107044  -0.0193762  -0.0093840   0.0325269   0.0256467   0.0168736
           37          38          39          40          41          42
    1   0.0406808  -0.0222456   0.0028803  -0.0015865  -0.0007772   0.0030344
    2  -0.0252766  -0.0121666  -0.0043401  -0.0043139   0.0047390   0.0052383
    3  -0.0042718  -0.0516396  -0.0029987  -0.0059729  -0.0030864  -0.0132187
           43          44          45          46          47          48
    1   0.0025841  -0.0000526   0.0092664  -0.0055168   0.0059169  -0.0013753
    2   0.0049040   0.0005073   0.0066805  -0.0013777   0.0136749   0.0050810
    3   0.0067922  -0.0059462  -0.0014518  -0.0014115  -0.0193686   0.0003626
           49          50          51          52          53          54
    1   0.0015773   0.0006352   0.0002063  -0.0016786  -0.0019269  -0.0038932
    2  -0.0032057  -0.0055781   0.0043429   0.0033891   0.0071569   0.0027802
    3   0.0012734   0.0020182  -0.0016534   0.0016805   0.0069024   0.0018456
           55          56
    1   0.0029654  -0.0136402
    2   0.0015199  -0.0162137
    3  -0.0009219   0.0195906
 Max gradient component =       9.773E-02
 RMS gradient           =       2.207E-02
 Gradient time:  CPU 30.12 s  wall 0.63 s
 Geometry Optimization Parameters
   NAtoms,    NIC,     NZ,  NCons,   NDum,   NFix, NCnnct, MaxDiis
       56     458       0       9       0       0       0       0

 Cartesian Hessian Update
 Hessian Updated using BFGS Update


** CONSTRAINED OPTIMIZATION IN DELOCALIZED INTERNAL COORDINATES **
   Searching for a Minimum

   Optimization Cycle:   2

                       Coordinates (Angstroms)
     ATOM                X               Y               Z
      1  O         3.6402650062   -2.2888735127   -0.5116998928
      2  C         4.2960143134   -1.2409163641   -0.5669810138
      3  C         3.7455627680    0.1288231282   -0.9672914016
      4  C         2.4102628525    0.5861180326   -0.3049675298
      5  C         1.8734038965   -0.3010651151    0.8312527218
      6  O         0.5197811332   -0.0874582989    1.0803889290
      7  C         0.1042107354    1.2925453865    1.1907350899
      8  C        -0.9684278322    1.4560877869    2.2934081097
      9  O        -2.3020694496    1.6267290787    1.7440126659
     10  C        -3.0312833518    0.4949192137    1.4210434113
     11  C        -3.8427244632    0.7061281684    0.1365030577
     12  C        -3.2843845591    0.0185439300   -1.1438572788
     13  C        -2.2401067116   -1.0777035790   -0.9247880408
     14  O        -2.1766387148   -2.1230658398   -1.5967837648
     15  O         5.6056298108   -1.2384369947   -0.1417458435
     16  O        -1.7557578682   -1.2391255307    0.3486776821
     17  O        -3.2946240678   -0.3750141969    2.2631758793
     18  C        -1.3370746957   -2.4818844402    0.8637476011
     19  C        -5.2717585910    0.0808109727    0.1884092958
     20  C        -6.1925654000    0.8291370255   -0.8003823713
     21  C        -5.6151056567    0.3611014291   -2.1400858374
     22  C        -4.5801206600   -0.6818657529   -1.6479705645
     23  O        -5.1373797019   -1.1960874525   -0.4372123486
     24  H        -3.9541248221    1.8035192602   -0.0012261288
     25  H        -2.8600223480    0.7407097907   -1.8718109906
     26  H        -5.7167177438    0.0782371791    1.2056451950
     27  H        -7.2084408146    0.3983531303   -0.6799253871
     28  H        -6.2500753397    1.9274186815   -0.6681977459
     29  H        -6.4225517423   -0.1240617951   -2.7244478908
     30  H        -5.1307743838    1.1514013604   -2.7473756165
     31  H        -4.3801922579   -1.4325326943   -2.4417311657
     32  O         2.4534683025   -1.2258708010    1.3989463627
     33  C         6.2328644475   -2.4092563859    0.3049226192
     34  C         4.7178981839    1.3108606958   -0.7400410367
     35  C         4.4065656043    2.4317045459   -1.7488596075
     36  C         3.0635435925    2.9159744347   -1.2099159358
     37  C         2.9338292030    2.0494006962    0.0775490411
     38  O         4.2800659270    1.8498360572    0.4992066125
     39  H         3.5793121779    0.0029839186   -2.0600365715
     40  H         1.6257211463    0.6180699334   -1.0913643625
     41  H         6.2566467682   -3.1784802282   -0.4982744419
     42  H         5.7931145247    1.0438394215   -0.8008132195
     43  H         5.1649413154    3.2287613758   -1.6016496382
     44  H         4.4064675543    2.1212032541   -2.8120950020
     45  H         3.1630848218    3.9914697379   -0.9556850606
     46  H         2.2004104195    2.7790579790   -1.8910296383
     47  H         2.3814848488    2.7012536420    0.7655048386
     48  H         5.7080777382   -2.8250961229    1.1931693017
     49  H         7.2754313818   -2.1628795495    0.5915008542
     50  H        -1.0170272058   -2.3382432191    1.9155292079
     51  H        -0.4829892805   -2.8921594005    0.2813412575
     52  H        -2.1766691946   -3.2111246012    0.8498716564
     53  H        -0.8999724841    0.6905593712    3.0994979723
     54  H        -0.7990590313    2.4400974419    2.7907964179
     55  H        -0.1024622072    1.8403084164    0.2469031869
     56  H         0.9058047388    1.7548683651    1.7939658459
   Point Group: c1    Number of degrees of freedom:   162


   Energy is  -1510.135479220

              Constraints and their Current Values
                                        Value     Constraint
   Dihedral:        1   2   3   4       47.309       47.368
   Dihedral:        3   4   5   6     -161.136     -161.053
   Dihedral:        4   5   6   7      -47.356      -47.368
   Dihedral:        5   6   7   8     -141.985     -142.105
   Dihedral:        6   7   8   9     -104.233     -104.211
   Dihedral:        7   8   9  10       85.203       85.263
   Dihedral:        8   9  10  11     -142.050     -142.105
   Dihedral:        9  10  11  12      104.202      104.211
   Dihedral:       11  12  13  14      141.990      142.105
 Hessian Updated using BFGS Update

   Using Lagrange Multiplier Algorithm


159 Hessian modes will be used to form the next step
  Hessian Eigenvalues:
    -0.977754   -0.977753   -0.977753   -0.977753   -0.977753   -0.977753
    -0.977753   -0.977753   -0.958642    0.044701    0.045001    0.045113
     0.045300    0.045498    0.045571    0.046794    0.047075    0.048829
     0.048978    0.053499    0.059347    0.060016    0.061146    0.062858
     0.066414    0.066700    0.067120    0.067423    0.067738    0.069461
     0.070834    0.072140    0.074189    0.075166    0.075707    0.076819
     0.077837    0.081999    0.082564    0.082724    0.083675    0.083972
     0.084178    0.084413    0.085454    0.085789    0.087090    0.087830
     0.088715    0.088874    0.089059    0.089425    0.089774    0.089859
     0.091268    0.093992    0.094635    0.096645    0.097774    0.111544
     0.111576    0.114321    0.114655    0.114799    0.115715    0.115909
     0.116455    0.116533    0.117686    0.118889    0.121595    0.127960
     0.129627    0.131078    0.134472    0.140138    0.148817    0.159422
     0.160179    0.171259    0.172494    0.173901    0.176198    0.203305
     0.221114    0.224143    0.226679    0.234592    0.238638    0.241099
     0.247111    0.249493    0.257515    0.258532    0.264914    0.266871
     0.274401    0.278130    0.280555    0.283390    0.291078    0.296284
     0.298864    0.303607    0.307831    0.310557    0.312423    0.318609
     0.320541    0.320980    0.321288    0.321416    0.321679    0.321839
     0.321871    0.323161    0.323592    0.323875    0.323921    0.324152
     0.324365    0.324428    0.324514    0.324601    0.324680    0.324891
     0.324948    0.324983    0.324999    0.326466    0.326787    0.334970
     0.343662    0.348589    0.369460    0.375561    0.389449    0.396135
     0.407009    0.459817    0.467898    0.490946    0.524845    0.528555
     0.546545    0.649786    0.928577    0.938987    0.949916    0.959059
     1.022753    1.022753    1.022753    1.022753    1.022753    1.022753
     1.022753    1.022753    1.183290

 Minimum Search - Taking P-RFO Step
 Searching for Lamda that Maximizes Along the Constraint modes Only
 Value Taken    Lamda =   0.00284835
 Searching for Lamda that Minimizes Along All other modes
 Value Taken    Lamda =  -0.13965366
 Calculated Step too Large.  Step scaled by  0.442125
 Step Taken.  Stepsize is  0.300000

                             Maximum     Tolerance    Cnvgd?
         Gradient            0.075960       0.000300      NO
         Displacement        0.081170       0.001200      NO
         Energy change     -0.083490       0.000001      NO


 New Cartesian Coordinates Obtained by Inverse Iteration

 Displacement from previous Coordinates is:  2.494901
 Adding empirical dispersion correction 
 ----------------------------------------------------------------
 Doing -D3(op) with
 s6 =   1.00000
 s8 =   0.78311
 a1 =   0.30000
 a2 =   4.25000
 n  =  10.00000
 -D3 energy without 3body term =     -0.0717695382 hartrees
 ----------------------------------------------------------------
             Standard Nuclear Orientation (Angstroms)
    I     Atom           X                Y                Z
 ----------------------------------------------------------------
    1      O       3.5074411551    -2.3467197602    -0.5846199911
    2      C       4.2062444612    -1.3127058919    -0.6063162413
    3      C       3.7126324430     0.1031231763    -0.9846754770
    4      C       2.3735017071     0.6072240759    -0.3258740039
    5      C       1.7845510674    -0.2843113371     0.8047257677
    6      O       0.4192081086    -0.0370102719     1.0583993987
    7      C       0.0402039956     1.3660077145     1.1923693536
    8      C      -1.0400142322     1.5174458521     2.3089501559
    9      O      -2.3730780417     1.7303547322     1.7607976421
   10      C      -3.0475348563     0.5438613099     1.4337304842
   11      C      -3.8699504293     0.7203354232     0.1319858639
   12      C      -3.2742216890     0.0603649455    -1.1654939086
   13      C      -2.1298937597    -0.9621945286    -0.9510002572
   14      O      -1.9912678105    -2.0161161108    -1.6211749809
   15      O       5.5290113569    -1.3289310643    -0.1673212637
   16      O      -1.5976451952    -0.9855540877     0.3338734295
   17      O      -3.2570365958    -0.3511664092     2.2789878654
   18      C      -1.0372441497    -2.1986538410     0.8378218710
   19      C      -5.2637638336    -0.0066347707     0.2087808023
   20      C      -6.2476308673     0.6858603058    -0.7825927478
   21      C      -5.6476327769     0.2449692222    -2.1405510874
   22      C      -4.5344938663    -0.7409299164    -1.6541891620
   23      O      -5.0496009183    -1.2957797460    -0.4188921985
   24      H      -4.0509081814     1.8047658471    -0.0101483001
   25      H      -2.9153824162     0.8012104657    -1.9072081810
   26      H      -5.6883489623    -0.0427091797     1.2323723000
   27      H      -7.2326065245     0.1994702321    -0.6516009435
   28      H      -6.3685912338     1.7757860119    -0.6510601628
   29      H      -6.4215640416    -0.2897445247    -2.7199469165
   30      H      -5.2220207579     1.0616555228    -2.7508470261
   31      H      -4.2885921435    -1.4853227672    -2.4386329308
   32      O       2.3338223373    -1.2418682707     1.3711671117
   33      C       6.0656949152    -2.5807304520     0.2538966777
   34      C       4.7273811522     1.2567758170    -0.7034624784
   35      C       4.4609456918     2.4225172924    -1.6995425286
   36      C       3.1053848014     2.9381173471    -1.1661086223
   37      C       2.9263542300     2.0433536237     0.1144150302
   38      O       4.2758197077     1.7877686218     0.5631863859
   39      H       3.5577731532     0.0109440937    -2.0805824050
   40      H       1.6044295124     0.6893594133    -1.1196250989
   41      H       6.0548580504    -3.3281606864    -0.5703163056
   42      H       5.7914821544     0.9502360233    -0.7404893343
   43      H       5.2365069871     3.1924678978    -1.5282552018
   44      H       4.4697073793     2.1329923984    -2.7651583018
   45      H       3.2175157129     4.0010907878    -0.8844712724
   46      H       2.2570764823     2.8362678890    -1.8664011372
   47      H       2.3677228785     2.6726906788     0.8253250954
   48      H       5.4991976228    -2.9950772929     1.1171608541
   49      H       7.1153250691    -2.4102319594     0.5653621248
   50      H      -0.6982880185    -2.0041785935     1.8744666791
   51      H      -0.1676218432    -2.5355422841     0.2316250684
   52      H      -1.7991556474    -3.0089913210     0.8584709639
   53      H      -0.9746974232     0.7227242862     3.0867235860
   54      H      -0.8497649362     2.4843962897     2.8278283992
   55      H      -0.1640519257     1.9351834753     0.2609123292
   56      H       0.8755735775     1.8095752617     1.7706827128
 ----------------------------------------------------------------
 Molecular Point Group                 C1    NOp =  1
 Largest Abelian Subgroup              C1    NOp =  1
 Nuclear Repulsion Energy =  3222.0532955701 hartrees
 There are      113 alpha and      113 beta electrons
 Applying Cartesian multipole field
    Component          Value
    ---------          -----
     (2,0,0)        1.00000E-12
     (0,2,0)        2.00000E-11
     (0,0,2)       -3.00000E-11
 Nucleus-field energy     =     0.0000000118 hartrees
 Requested basis set is STO-3G
 There are 86 shells and 176 basis functions
 A cutoff of  1.0D-12 yielded   2272 shell pairs
 There are     10726 function pairs
 Smallest overlap matrix eigenvalue = 2.06E-01
 Guess MOs from SCF MO coefficient file
 Reading MOs from coefficient file
 Reading MOs from coefficient file
 A restricted hybrid HF-DFT SCF calculation will be
 performed using Pulay DIIS extrapolation
 Exchange:     0.2000 Hartree-Fock + 0.0800 Slater + 0.7200 B88
 Correlation:  0.1900 VWN1RPA + 0.8100 LYP
 Using SG-1 standard quadrature grid
 Dispersion:   Grimme D3
 SCF converges when DIIS error is below 1.0E-08
 Geometry optimization detected.  Setting ReadMinima to 0
 Setting SaveMinima to 0
 using 48 threads for integral computing
 -------------------------------------------------------
 OpenMP Integral computing Module                
 Release: version 1.0, May 2013, Q-Chem Inc. Pittsburgh 
 -------------------------------------------------------
 -------------------------------------------------------
 OpenMP BLAS3 based DFT computing Module                
 Release: version 1.0, May 2013, Q-Chem Inc. Pittsburgh 
 -------------------------------------------------------
 ---------------------------------------
  Cycle       Energy         DIIS Error
 ---------------------------------------
    1   -1510.0117634327      4.10E-03
    2   -1510.1772346275      9.43E-04
    3   -1510.1692111671      1.69E-03
    4   -1510.1808362882      3.74E-04
    5   -1510.1814734871      7.29E-05
    6   -1510.1814972926      2.32E-05
    7   -1510.1814988598      1.58E-05
    8   -1510.1814999544      4.05E-06
    9   -1510.1815000343      1.05E-06
   10   -1510.1815000393      5.52E-07
   11   -1510.1815000406      3.14E-07
   12   -1510.1815000410      5.53E-08
   13   -1510.1815000411      1.64E-08
   14   -1510.1815000411      8.64E-09 Convergence criterion met
 ---------------------------------------
 SCF time:  CPU 101.81 s  wall 2.13 s
 SCF   energy in the final basis set = -1510.18150004
 Total energy in the final basis set = -1510.18150004
 
 --------------------------------------------------------------
 
                    Orbital Energies (a.u.)
 --------------------------------------------------------------
 
 Alpha MOs
 -- Occupied --
-18.931 -18.930 -18.925 -18.916 -18.903 -18.893 -18.890 -18.857
-18.855 -18.852 -10.111 -10.098 -10.098 -10.094 -10.085 -10.081
-10.072 -10.069 -10.066 -10.062 -10.060 -10.058 -10.046 -10.043
-10.040 -10.031 -10.023 -10.021 -10.017 -10.014  -1.026  -1.021
 -1.016  -1.008  -1.001  -0.991  -0.951  -0.930  -0.929  -0.921
 -0.774  -0.768  -0.734  -0.730  -0.724  -0.718  -0.706  -0.667
 -0.659  -0.622  -0.609  -0.589  -0.554  -0.545  -0.543  -0.534
 -0.531  -0.511  -0.494  -0.483  -0.475  -0.471  -0.457  -0.451
 -0.446  -0.439  -0.428  -0.421  -0.413  -0.412  -0.410  -0.404
 -0.401  -0.399  -0.384  -0.382  -0.372  -0.360  -0.353  -0.349
 -0.345  -0.342  -0.338  -0.337  -0.330  -0.324  -0.321  -0.312
 -0.310  -0.306  -0.301  -0.300  -0.294  -0.290  -0.288  -0.278
 -0.265  -0.246  -0.244  -0.236  -0.234  -0.233  -0.216  -0.182
 -0.174  -0.163  -0.161  -0.158  -0.149  -0.146  -0.140  -0.136
 -0.132
 -- Virtual --
  0.086   0.091   0.105   0.112   0.229   0.244   0.247   0.262
  0.270   0.277   0.294   0.309   0.313   0.321   0.322   0.344
  0.345   0.349   0.354   0.357   0.363   0.363   0.374   0.378
  0.386   0.390   0.397   0.397   0.403   0.408   0.409   0.410
  0.417   0.420   0.424   0.426   0.436   0.438   0.442   0.444
  0.450   0.451   0.455   0.458   0.464   0.467   0.474   0.477
  0.486   0.488   0.497   0.502   0.509   0.520   0.525   0.545
  0.550   0.558   0.559   0.631   0.638   0.655   0.661
 --------------------------------------------------------------
 
          Ground-State Mulliken Net Atomic Charges

     Atom                 Charge (a.u.)
  ----------------------------------------
      1 O                    -0.219062
      2 C                     0.220729
      3 C                    -0.080363
      4 C                    -0.086596
      5 C                     0.223786
      6 O                    -0.185714
      7 C                    -0.044532
      8 C                    -0.035268
      9 O                    -0.197876
     10 C                     0.230111
     11 C                    -0.084892
     12 C                    -0.077010
     13 C                     0.206265
     14 O                    -0.220816
     15 O                    -0.191456
     16 O                    -0.185083
     17 O                    -0.214759
     18 C                    -0.101587
     19 C                     0.032004
     20 C                    -0.144121
     21 C                    -0.145503
     22 C                     0.032724
     23 O                    -0.195375
     24 H                     0.082691
     25 H                     0.081765
     26 H                     0.087560
     27 H                     0.075957
     28 H                     0.072330
     29 H                     0.077244
     30 H                     0.071654
     31 H                     0.092181
     32 O                    -0.187583
     33 C                    -0.111525
     34 C                     0.031069
     35 C                    -0.144454
     36 C                    -0.145130
     37 C                     0.027167
     38 O                    -0.196143
     39 H                     0.083398
     40 H                     0.083786
     41 H                     0.085690
     42 H                     0.095031
     43 H                     0.075725
     44 H                     0.074185
     45 H                     0.074858
     46 H                     0.070303
     47 H                     0.080654
     48 H                     0.092410
     49 H                     0.091276
     50 H                     0.103158
     51 H                     0.092899
     52 H                     0.088654
     53 H                     0.100113
     54 H                     0.085185
     55 H                     0.088276
     56 H                     0.084009
  ----------------------------------------
  Sum of atomic charges =     0.000000

 -----------------------------------------------------------------
                    Cartesian Multipole Moments
 -----------------------------------------------------------------
    Charge (ESU x 10^10)
                 0.0000
    Dipole Moment (Debye)
         X       1.2557      Y       4.5950      Z      -2.1390
       Tot       5.2217
    Quadrupole Moments (Debye-Ang)
        XX    -153.0284     XY      -8.4222     YY    -161.7389
        XZ       0.0938     YZ      -2.7108     ZZ    -159.5353
    Octopole Moments (Debye-Ang^2)
       XXX      46.8504    XXY     -11.0972    XYY      29.8449
       YYY     -19.1021    XXZ     -45.6660    XYZ      -5.5532
       YYZ      18.4084    XZZ      12.7517    YZZ       1.6031
       ZZZ      20.1033
    Hexadecapole Moments (Debye-Ang^3)
      XXXX  -13120.5567   XXXY    -512.8951   XXYY   -2657.0889
      XYYY     -94.3166   YYYY   -2363.0283   XXXZ      -1.6548
      XXYZ     -49.6585   XYYZ     -11.3773   YYYZ     -32.1024
      XXZZ   -2571.7010   XYZZ     -35.4690   YYZZ    -670.2571
      XZZZ       8.8660   YZZZ      12.0457   ZZZZ   -1588.3838
 -----------------------------------------------------------------
 Calculating analytic gradient of the SCF energy
 Gradient of SCF Energy
            1           2           3           4           5           6
    1   0.0079043   0.0186169  -0.0041642  -0.0118541  -0.0056486   0.0214022
    2   0.0098409   0.0274575   0.0143609  -0.0135989  -0.0103758   0.0120384
    3   0.0111476  -0.0221680   0.0315606   0.0110377   0.0058567  -0.0042057
            7           8           9          10          11          12
    1  -0.0333041   0.0222605  -0.0106221   0.0242465   0.0016767  -0.0134310
    2  -0.0031617  -0.0170023  -0.0236036   0.0233049  -0.0161571  -0.0247199
    3  -0.0370470  -0.0075406   0.0133519  -0.0171846   0.0063853   0.0077282
           13          14          15          16          17          18
    1   0.0117370  -0.0047402  -0.0262050   0.0094258  -0.0032960  -0.0089121
    2   0.0665480  -0.0029741  -0.0568367  -0.0668334   0.0118842   0.0323723
    3  -0.0055377   0.0284321   0.0054229  -0.0274586  -0.0064737   0.0039864
           19          20          21          22          23          24
    1   0.0113178   0.0169475   0.0044015  -0.0076086   0.0040642  -0.0060099
    2  -0.0215508  -0.0060650  -0.0049258   0.0027411   0.0313695   0.0020407
    3  -0.0202934  -0.0019067   0.0118741   0.0345229  -0.0111482   0.0017494
           25          26          27          28          29          30
    1   0.0062822  -0.0051016  -0.0006269  -0.0034096  -0.0062553   0.0036257
    2  -0.0026773   0.0105128  -0.0058155   0.0024127  -0.0012684   0.0005226
    3  -0.0015237  -0.0001783  -0.0002693  -0.0005029   0.0035532  -0.0018769
           31          32          33          34          35          36
    1  -0.0015803  -0.0069846   0.0011738  -0.0201566  -0.0105536   0.0069179
    2   0.0070773   0.0102941   0.0331727   0.0113152  -0.0094162  -0.0106794
    3  -0.0086684  -0.0091787  -0.0057665   0.0224292   0.0106950   0.0095965
           37          38          39          40          41          42
    1   0.0243658  -0.0138844   0.0027285   0.0002665   0.0001630   0.0021648
    2  -0.0219289  -0.0059041  -0.0049190  -0.0032782   0.0018477   0.0041990
    3   0.0023031  -0.0294706  -0.0016738  -0.0045668  -0.0021602  -0.0117378
           43          44          45          46          47          48
    1   0.0010091   0.0009766   0.0068641  -0.0034038   0.0027521  -0.0005245
    2   0.0025421   0.0014361   0.0032222  -0.0000041   0.0133502   0.0022252
    3   0.0051865  -0.0032805  -0.0010357  -0.0003738  -0.0134648   0.0012183
           49          50          51          52          53          54
    1   0.0012395   0.0012098   0.0009254  -0.0008890   0.0000872  -0.0045515
    2  -0.0027114  -0.0029284   0.0019710   0.0007259   0.0057669   0.0023370
    3   0.0009933   0.0025008  -0.0014314   0.0022512   0.0071074   0.0002450
           55          56
    1   0.0038638  -0.0068992
    2   0.0032994  -0.0128527
    3   0.0003071   0.0166820
 Max gradient component =       6.683E-02
 RMS gradient           =       1.505E-02
 Gradient time:  CPU 31.19 s  wall 0.66 s
 Geometry Optimization Parameters
   NAtoms,    NIC,     NZ,  NCons,   NDum,   NFix, NCnnct, MaxDiis
       56     458       0       9       0       0       0       0

 Cartesian Hessian Update
 Hessian Updated using BFGS Update


** CONSTRAINED OPTIMIZATION IN DELOCALIZED INTERNAL COORDINATES **
   Searching for a Minimum

   Optimization Cycle:   3

                       Coordinates (Angstroms)
     ATOM                X               Y               Z
      1  O         3.5074411551   -2.3467197602   -0.5846199911
      2  C         4.2062444612   -1.3127058919   -0.6063162413
      3  C         3.7126324430    0.1031231763   -0.9846754770
      4  C         2.3735017071    0.6072240759   -0.3258740039
      5  C         1.7845510674   -0.2843113371    0.8047257677
      6  O         0.4192081086   -0.0370102719    1.0583993987
      7  C         0.0402039956    1.3660077145    1.1923693536
      8  C        -1.0400142322    1.5174458521    2.3089501559
      9  O        -2.3730780417    1.7303547322    1.7607976421
     10  C        -3.0475348563    0.5438613099    1.4337304842
     11  C        -3.8699504293    0.7203354232    0.1319858639
     12  C        -3.2742216890    0.0603649455   -1.1654939086
     13  C        -2.1298937597   -0.9621945286   -0.9510002572
     14  O        -1.9912678105   -2.0161161108   -1.6211749809
     15  O         5.5290113569   -1.3289310643   -0.1673212637
     16  O        -1.5976451952   -0.9855540877    0.3338734295
     17  O        -3.2570365958   -0.3511664092    2.2789878654
     18  C        -1.0372441497   -2.1986538410    0.8378218710
     19  C        -5.2637638336   -0.0066347707    0.2087808023
     20  C        -6.2476308673    0.6858603058   -0.7825927478
     21  C        -5.6476327769    0.2449692222   -2.1405510874
     22  C        -4.5344938663   -0.7409299164   -1.6541891620
     23  O        -5.0496009183   -1.2957797460   -0.4188921985
     24  H        -4.0509081814    1.8047658471   -0.0101483001
     25  H        -2.9153824162    0.8012104657   -1.9072081810
     26  H        -5.6883489623   -0.0427091797    1.2323723000
     27  H        -7.2326065245    0.1994702321   -0.6516009435
     28  H        -6.3685912338    1.7757860119   -0.6510601628
     29  H        -6.4215640416   -0.2897445247   -2.7199469165
     30  H        -5.2220207579    1.0616555228   -2.7508470261
     31  H        -4.2885921435   -1.4853227672   -2.4386329308
     32  O         2.3338223373   -1.2418682707    1.3711671117
     33  C         6.0656949152   -2.5807304520    0.2538966777
     34  C         4.7273811522    1.2567758170   -0.7034624784
     35  C         4.4609456918    2.4225172924   -1.6995425286
     36  C         3.1053848014    2.9381173471   -1.1661086223
     37  C         2.9263542300    2.0433536237    0.1144150302
     38  O         4.2758197077    1.7877686218    0.5631863859
     39  H         3.5577731532    0.0109440937   -2.0805824050
     40  H         1.6044295124    0.6893594133   -1.1196250989
     41  H         6.0548580504   -3.3281606864   -0.5703163056
     42  H         5.7914821544    0.9502360233   -0.7404893343
     43  H         5.2365069871    3.1924678978   -1.5282552018
     44  H         4.4697073793    2.1329923984   -2.7651583018
     45  H         3.2175157129    4.0010907878   -0.8844712724
     46  H         2.2570764823    2.8362678890   -1.8664011372
     47  H         2.3677228785    2.6726906788    0.8253250954
     48  H         5.4991976228   -2.9950772929    1.1171608541
     49  H         7.1153250691   -2.4102319594    0.5653621248
     50  H        -0.6982880185   -2.0041785935    1.8744666791
     51  H        -0.1676218432   -2.5355422841    0.2316250684
     52  H        -1.7991556474   -3.0089913210    0.8584709639
     53  H        -0.9746974232    0.7227242862    3.0867235860
     54  H        -0.8497649362    2.4843962897    2.8278283992
     55  H        -0.1640519257    1.9351834753    0.2609123292
     56  H         0.8755735775    1.8095752617    1.7706827128
   Point Group: c1    Number of degrees of freedom:   162


   Energy is  -1510.181500041

              Constraints and their Current Values
                                        Value     Constraint
   Dihedral:        1   2   3   4       47.332       47.368
   Dihedral:        3   4   5   6     -161.063     -161.053
   Dihedral:        4   5   6   7      -47.402      -47.368
   Dihedral:        5   6   7   8     -142.065     -142.105
   Dihedral:        6   7   8   9     -104.322     -104.211
   Dihedral:        7   8   9  10       85.334       85.263
   Dihedral:        8   9  10  11     -142.097     -142.105
   Dihedral:        9  10  11  12      104.342      104.211
   Dihedral:       11  12  13  14      142.054      142.105
 Hessian Updated using BFGS Update

   Using Lagrange Multiplier Algorithm


162 Hessian modes will be used to form the next step
  Hessian Eigenvalues:
    -0.977754   -0.977753   -0.977753   -0.977753   -0.977753   -0.977753
    -0.977753   -0.975907   -0.926593    0.044993    0.045000    0.045070
     0.045101    0.045327    0.045554    0.045850    0.046874    0.048649
     0.048827    0.052402    0.053766    0.059176    0.059631    0.061103
     0.062969    0.066414    0.066598    0.067395    0.067522    0.067724
     0.069456    0.070575    0.073832    0.075101    0.075138    0.076767
     0.077153    0.077896    0.081787    0.082495    0.082918    0.083831
     0.083964    0.084346    0.084509    0.085471    0.085854    0.087083
     0.087869    0.088772    0.088832    0.089048    0.089466    0.089779
     0.090185    0.091195    0.093873    0.094674    0.096649    0.097764
     0.111528    0.111658    0.114238    0.114604    0.114814    0.115715
     0.115909    0.116520    0.117072    0.117583    0.119304    0.121342
     0.127861    0.129707    0.133902    0.134634    0.139397    0.148811
     0.158650    0.160019    0.160982    0.170499    0.171634    0.173745
     0.176299    0.188601    0.221988    0.224773    0.226086    0.234699
     0.239070    0.241728    0.247111    0.249499    0.257109    0.258436
     0.264625    0.266808    0.271793    0.277822    0.280331    0.283031
     0.289943    0.296141    0.298800    0.302588    0.306435    0.310155
     0.312299    0.318601    0.320325    0.320923    0.321212    0.321364
     0.321661    0.321827    0.321862    0.322991    0.323424    0.323830
     0.323914    0.324010    0.324271    0.324396    0.324428    0.324524
     0.324674    0.324750    0.324937    0.324980    0.324994    0.326405
     0.326760    0.334314    0.337550    0.344191    0.369386    0.375241
     0.380133    0.390157    0.397410    0.408507    0.457740    0.483068
     0.514471    0.524534    0.528123    0.555589    0.736740    0.929987
     0.940394    0.955936    0.983963    1.022753    1.022753    1.022753
     1.022753    1.022753    1.022753    1.022753    1.041870    1.347600

 Minimum Search - Taking P-RFO Step
 Searching for Lamda that Maximizes Along the Constraint modes Only
 Value Taken    Lamda =   0.00618206
 Searching for Lamda that Minimizes Along All other modes
 Value Taken    Lamda =  -0.09582607
 Calculated Step too Large.  Step scaled by  0.499686
 Step Taken.  Stepsize is  0.300000

                             Maximum     Tolerance    Cnvgd?
         Gradient            0.086899       0.000300      NO
         Displacement        0.091956       0.001200      NO
         Energy change     -0.046021       0.000001      NO


 New Cartesian Coordinates Obtained by Inverse Iteration

 Displacement from previous Coordinates is:  2.906051
 Adding empirical dispersion correction 
 ----------------------------------------------------------------
 Doing -D3(op) with
 s6 =   1.00000
 s8 =   0.78311
 a1 =   0.30000
 a2 =   4.25000
 n  =  10.00000
 -D3 energy without 3body term =     -0.0692933694 hartrees
 ----------------------------------------------------------------
             Standard Nuclear Orientation (Angstroms)
    I     Atom           X                Y                Z
 ----------------------------------------------------------------
    1      O       3.7314137870    -2.3414716627    -0.4525618353
    2      C       4.3971883338    -1.2806992199    -0.5037453446
    3      C       3.8706753852     0.1198545926    -0.9533406030
    4      C       2.4953496553     0.6124389316    -0.3377857241
    5      C       1.9216115236    -0.2555373090     0.8358758749
    6      O       0.5314035215    -0.0604541966     1.0766923675
    7      C       0.1109388280     1.3450429433     1.1430898236
    8      C      -0.9882889776     1.5274928527     2.2558381552
    9      O      -2.3531863089     1.6825329562     1.7391140454
   10      C      -3.0692795188     0.4761985442     1.4632475426
   11      C      -3.9208548819     0.6902024435     0.1635898885
   12      C      -3.3980979186     0.0240671389    -1.1755785703
   13      C      -2.3134772146    -1.0964443593    -1.0287918512
   14      O      -2.2592008308    -2.1378316437    -1.7342465511
   15      O       5.7302983010    -1.2028425855    -0.0459788634
   16      O      -1.7444016197    -1.1496916119     0.2529536101
   17      O      -3.2676487456    -0.4076990922     2.3300018995
   18      C      -1.2677644533    -2.4718286449     0.6237119188
   19      C      -5.3560191130     0.0258148743     0.2742083849
   20      C      -6.3353561309     0.7956152105    -0.6830106097
   21      C      -5.7948478872     0.3512043816    -2.0781607951
   22      C      -4.7167275438    -0.7124152572    -1.6458706705
   23      O      -5.2255421061    -1.2786893155    -0.3894369457
   24      H      -4.0439886426     1.7823313989     0.0404916521
   25      H      -3.0316977205     0.7642471154    -1.9124058393
   26      H      -5.7445930150    -0.0187068888     1.3102412365
   27      H      -7.3417172684     0.3683167477    -0.5340538485
   28      H      -6.3864181541     1.8848808113    -0.5238217446
   29      H      -6.6051124233    -0.1262685614    -2.6524378498
   30      H      -5.3454128987     1.1593705295    -2.6778163271
   31      H      -4.5256668692    -1.4586207369    -2.4420060553
[...]
     15  O         5.1716821765   -1.5408833596    0.0328238168
     16  O        -1.3542961606   -1.0233347494    0.0258611778
     17  O        -2.7884315645   -0.5129515034    2.3618440094
     18  C        -0.3876110774   -2.1446449098    0.1478817785
     19  C        -5.3398808917   -0.3161698847    0.4588960134
     20  C        -6.3926850185    0.4715042115   -0.4134222505
     21  C        -5.8781423434    0.1281805003   -1.8616756963
     22  C        -4.7323779714   -0.9130848010   -1.5490761348
     23  O        -5.1716667401   -1.5765268669   -0.2967995897
     24  H        -4.1382565247    1.5181733869    0.1220337735
     25  H        -3.0816963744    0.6213451863   -1.7504199568
     26  H        -5.6387258439   -0.5266647811    1.5040531205
     27  H        -7.4057050690    0.0724750642   -0.2437528141
     28  H        -6.3958039840    1.5528174563   -0.2027041808
     29  H        -6.6667951876   -0.3362621186   -2.4743508732
     30  H        -5.4946204661    1.0123188551   -2.3960414574
     31  H        -4.5347760889   -1.6667843358   -2.3360273218
     32  O         2.5031817059   -0.6052528080    1.4375591921
     33  C         5.2387329790   -2.9568653316    0.4613910971
     34  C         4.8854216817    1.2459955592   -0.3836142810
     35  C         5.0636743611    2.3862846640   -1.4575577011
     36  C         3.6557983217    3.0839232722   -1.3622418133
     37  C         3.0246099074    2.3502671122   -0.1085336477
     38  O         4.1883166688    1.9524758057    0.7159479809
     39  H         3.8653229173    0.2466245733   -2.0691043878
     40  H         1.6909678369    0.9775765080   -1.3507528921
     41  H         5.1043235781   -3.6503420005   -0.3938526964
     42  H         5.8111471928    0.7621985271   -0.0182672895
     43  H         5.8717575438    3.0733302191   -1.1584956252
     44  H         5.2834052218    1.9943735096   -2.4633315739
     45  H         3.7456812600    4.1652299818   -1.1735065200
     46  H         3.0481162609    2.9347664921   -2.2696530724
     47  H         2.3431336609    2.9855212669    0.4857700664
     48  H         4.4658640029   -3.1828656914    1.2240557618
     49  H         6.2445053084   -3.0966386824    0.8984320728
     50  H        -0.0486438450   -2.1514224952    1.1999227500
     51  H         0.4917966896   -1.9940116880   -0.5142115354
     52  H        -0.8713782665   -3.1062316197   -0.1127308620
     53  H        -0.8956604026    1.0190039187    2.9314897815
     54  H        -1.0118588814    2.8135829781    2.7200783939
     55  H        -0.6097628889    1.9398786610    0.0516805747
     56  H         0.6886756688    2.5110104332    1.1630185461
   Point Group: c1    Number of degrees of freedom:   162


   Energy is  -1510.246613180

              Constraints and their Current Values
                                        Value     Constraint
   Dihedral:        1   2   3   4       47.368       47.368
   Dihedral:        3   4   5   6     -161.053     -161.053
   Dihedral:        4   5   6   7      -47.368      -47.368
   Dihedral:        5   6   7   8     -142.105     -142.105
   Dihedral:        6   7   8   9     -104.211     -104.211
   Dihedral:        7   8   9  10       85.263       85.263
   Dihedral:        8   9  10  11     -142.105     -142.105
   Dihedral:        9  10  11  12      104.211      104.211
   Dihedral:       11  12  13  14      142.105      142.105
 Hessian Updated using BFGS Update

153 Hessian modes will be used to form the next step
  Hessian Eigenvalues:
     0.002705    0.003920    0.008765    0.014984    0.020952    0.034555
     0.045003    0.045157    0.045824    0.046206    0.046859    0.048070
     0.052059    0.057791    0.059702    0.061002    0.062400    0.065188
     0.066841    0.067688    0.067772    0.068890    0.069808    0.071010
     0.075267    0.075369    0.075871    0.078186    0.078908    0.079838
     0.082182    0.082947    0.083093    0.084187    0.084567    0.085044
     0.085494    0.085885    0.087577    0.088216    0.088410    0.088770
     0.089133    0.089940    0.090110    0.090917    0.091170    0.092387
     0.094124    0.095475    0.096778    0.099185    0.111590    0.111710
     0.114740    0.114895    0.115909    0.116199    0.117925    0.119118
     0.120010    0.121392    0.122087    0.123817    0.128462    0.134799
     0.136401    0.138117    0.155599    0.155965    0.160009    0.160374
     0.161150    0.161288    0.161625    0.163547    0.172978    0.175708
     0.189749    0.195187    0.226013    0.228137    0.234275    0.239594
     0.242647    0.246529    0.250341    0.250875    0.251922    0.254823
     0.259724    0.263776    0.266853    0.270579    0.277773    0.278759
     0.279524    0.280916    0.290936    0.294299    0.297950    0.301498
     0.303904    0.309634    0.311075    0.316942    0.318824    0.320698
     0.320993    0.321121    0.321624    0.321813    0.321881    0.322380
     0.323420    0.323747    0.323893    0.324017    0.324118    0.324320
     0.324498    0.324657    0.324832    0.324944    0.324999    0.325122
     0.325692    0.326944    0.327314    0.327550    0.334687    0.337698
     0.343328    0.346209    0.369191    0.373588    0.376568    0.394667
     0.398242    0.412620    0.435475    0.455576    0.472068    0.494318
     0.520553    0.532533    0.564095    0.625773    0.932630    0.944449
     0.959148    1.022086    1.731580

 Minimum Search - Taking Simple RFO Step
 Searching for Lamda that Minimizes Along All modes
 Value Taken    Lamda =   0.00000000
 Step Taken.  Stepsize is  0.005505

                             Maximum     Tolerance    Cnvgd?
         Gradient           0.000037      0.000300     YES
         Displacement       0.003398      0.001200      NO
         Energy change     -0.000001      0.000001     YES

 Final energy is   -1510.24661317987     


 ******************************
 **  OPTIMIZATION CONVERGED  **
 ******************************

                       Coordinates (Angstroms)
     ATOM                X               Y               Z
      1  O         3.0039240978   -2.1359978835   -0.7235588167
      2  C         3.8919374335   -1.2721141844   -0.5445384653
      3  C         3.8034928563    0.2427590376   -0.9639370384
      4  C         2.4387454681    0.9280288574   -0.5397168718
      5  C         1.8484256235    0.2046540621    0.7426100602
      6  O         0.4601015772    0.3754770126    1.0478336675
      7  C        -0.0907928741    1.7392012087    1.0168721022
      8  C        -1.1235802812    1.8347869495    2.2097419746
      9  O        -2.5212507259    1.7778737354    1.7476953784
     10  C        -3.0281959823    0.4275765430    1.5784086436
     11  C        -3.9448696022    0.4448546910    0.3017768298
     12  C        -3.4144012757   -0.1768033534   -1.0606482569
     13  C        -2.3021764807   -1.2958694739   -0.9957108556
     14  O        -2.2559365548   -2.2927167512   -1.7519845998
     15  O         5.1716821765   -1.5408833596    0.0328238168
     16  O        -1.3542961606   -1.0233347494    0.0258611778
     17  O        -2.7884315645   -0.5129515034    2.3618440094
     18  C        -0.3876110774   -2.1446449098    0.1478817785
     19  C        -5.3398808917   -0.3161698847    0.4588960134
     20  C        -6.3926850185    0.4715042115   -0.4134222505
     21  C        -5.8781423434    0.1281805003   -1.8616756963
     22  C        -4.7323779714   -0.9130848010   -1.5490761348
     23  O        -5.1716667401   -1.5765268669   -0.2967995897
     24  H        -4.1382565247    1.5181733869    0.1220337735
     25  H        -3.0816963744    0.6213451863   -1.7504199568
     26  H        -5.6387258439   -0.5266647811    1.5040531205
     27  H        -7.4057050690    0.0724750642   -0.2437528141
     28  H        -6.3958039840    1.5528174563   -0.2027041808
     29  H        -6.6667951876   -0.3362621186   -2.4743508732
     30  H        -5.4946204661    1.0123188551   -2.3960414574
     31  H        -4.5347760889   -1.6667843358   -2.3360273218
     32  O         2.5031817059   -0.6052528080    1.4375591921
     33  C         5.2387329790   -2.9568653316    0.4613910971
     34  C         4.8854216817    1.2459955592   -0.3836142810
     35  C         5.0636743611    2.3862846640   -1.4575577011
     36  C         3.6557983217    3.0839232722   -1.3622418133
     37  C         3.0246099074    2.3502671122   -0.1085336477
     38  O         4.1883166688    1.9524758057    0.7159479809
     39  H         3.8653229173    0.2466245733   -2.0691043878
     40  H         1.6909678369    0.9775765080   -1.3507528921
     41  H         5.1043235781   -3.6503420005   -0.3938526964
     42  H         5.8111471928    0.7621985271   -0.0182672895
     43  H         5.8717575438    3.0733302191   -1.1584956252
     44  H         5.2834052218    1.9943735096   -2.4633315739
     45  H         3.7456812600    4.1652299818   -1.1735065200
     46  H         3.0481162609    2.9347664921   -2.2696530724
     47  H         2.3431336609    2.9855212669    0.4857700664
     48  H         4.4658640029   -3.1828656914    1.2240557618
     49  H         6.2445053084   -3.0966386824    0.8984320728
     50  H        -0.0486438450   -2.1514224952    1.1999227500
     51  H         0.4917966896   -1.9940116880   -0.5142115354
     52  H        -0.8713782665   -3.1062316197   -0.1127308620
     53  H        -0.8956604026    1.0190039187    2.9314897815
     54  H        -1.0118588814    2.8135829781    2.7200783939
     55  H        -0.6097628889    1.9398786610    0.0516805747
     56  H         0.6886756688    2.5110104332    1.1630185461

Z-matrix Print:
$molecule
0 1
O 
C  1 1.431707
O  2 1.252042 1 117.771984
C  1 1.471118 2 117.985201 3 138.868661 0
H  4 1.106625 1 112.332703 2 -23.345974 0
H  4 1.114090 1 111.078678 2 98.355859 0
C  4 1.580736 1 106.549175 2 -142.104983 0
H  7 1.109489 4 109.552197 1 138.361877 0
H  7 1.112820 4 108.136948 1 19.523111 0
O  7 1.473163 4 112.386789 1 -104.211010 0
C  10 1.452224 7 113.808224 4 85.263013 0
O  11 1.247338 10 124.110345 7 40.429694 0
C  11 1.571744 10 106.741475 7 -142.104951 0
H  13 1.105314 11 104.170001 10 -15.803663 0
C  2 1.586225 1 118.607716 3 173.763332 0
H  15 1.104267 2 111.235065 1 -33.944815 0
C  15 1.584958 2 109.855674 1 -161.052982 0
H  17 1.106902 15 108.289724 2 144.049775 0
C  17 1.574344 15 113.147371 2 27.548881 0
O  19 1.251763 17 125.881559 15 47.367995 0
O  19 1.429451 17 109.804618 15 -134.921022 0
C  21 1.480936 19 109.706132 17 178.410492 0
H  22 1.105495 21 106.050664 19 -179.825939 0
H  22 1.109081 21 111.240562 19 -60.658800 0
H  22 1.109242 21 111.663207 19 60.801597 0
C  17 1.585506 15 102.476252 2 -100.873775 0
H  26 1.106574 17 114.523503 15 145.414850 0
O  26 1.481252 17 104.616553 15 23.769314 0
C  28 1.480615 26 94.856877 17 -52.157008 0
H  29 1.105059 28 109.856319 26 -175.982113 0
C  26 1.576511 17 106.588166 15 -84.190858 0
H  31 1.101570 26 112.780159 17 -52.841396 0
H  31 1.102029 26 110.424710 17 -174.885730 0
C  31 1.574135 26 100.263988 17 67.650928 0
H  34 1.101328 31 111.870815 26 125.962035 0
H  34 1.102234 31 112.536180 26 -111.446116 0
C  13 1.588728 11 119.835103 10 104.211044 0
H  37 1.106128 13 110.661735 11 -101.618847 0
C  37 1.579104 13 118.503218 11 25.265814 0
O  39 1.252115 37 124.427837 13 142.104971 0
O  39 1.419987 37 111.329876 13 -38.263032 0
C  41 1.485498 39 110.402465 37 175.083803 0
H  42 1.105321 41 106.401951 39 -151.456366 0
H  42 1.107519 41 110.597400 39 -31.238978 0
H  42 1.111043 41 111.333016 39 89.923832 0
C  37 1.586737 13 99.683235 11 139.032953 0
H  46 1.107430 37 112.726683 13 -163.174069 0
O  46 1.483687 37 101.163658 13 -45.299487 0
C  48 1.479146 46 94.811061 37 60.968664 0
H  49 1.107235 48 110.546153 46 -177.488909 0
C  49 1.577899 48 102.637891 46 58.321250 0
H  51 1.101658 49 112.713234 48 -160.776925 0
H  51 1.101917 49 110.334401 48 77.285819 0
C  51 1.574822 49 100.461525 48 -40.238660 0
H  54 1.101386 51 111.687442 49 123.752189 0
H  54 1.101969 51 112.627956 49 -113.815886 0
$end

 
 --------------------------------------------------------------
 
                    Orbital Energies (a.u.)
 --------------------------------------------------------------
 
 Alpha MOs
 -- Occupied --
-18.931 -18.930 -18.926 -18.915 -18.893 -18.891 -18.884 -18.883
-18.864 -18.862 -10.108 -10.101 -10.097 -10.092 -10.082 -10.075
-10.069 -10.062 -10.059 -10.056 -10.054 -10.046 -10.044 -10.038
-10.038 -10.033 -10.028 -10.024 -10.019 -10.017  -1.014  -1.006
 -1.003  -1.000  -0.977  -0.967  -0.945  -0.934  -0.929  -0.926
 -0.767  -0.759  -0.727  -0.721  -0.714  -0.710  -0.697  -0.658
 -0.650  -0.617  -0.602  -0.584  -0.551  -0.544  -0.540  -0.535
 -0.522  -0.507  -0.491  -0.472  -0.465  -0.462  -0.455  -0.441
 -0.440  -0.432  -0.425  -0.414  -0.408  -0.406  -0.404  -0.399
 -0.393  -0.384  -0.375  -0.373  -0.368  -0.358  -0.351  -0.344
 -0.341  -0.337  -0.334  -0.331  -0.327  -0.325  -0.322  -0.316
 -0.307  -0.306  -0.301  -0.299  -0.295  -0.291  -0.287  -0.279
 -0.268  -0.252  -0.247  -0.241  -0.237  -0.233  -0.231  -0.180
 -0.173  -0.167  -0.163  -0.156  -0.155  -0.151  -0.144  -0.144
 -0.140
 -- Virtual --
  0.081   0.089   0.111   0.112   0.227   0.230   0.240   0.249
  0.254   0.265   0.277   0.286   0.298   0.304   0.317   0.324
  0.329   0.336   0.340   0.344   0.348   0.355   0.357   0.365
  0.371   0.380   0.384   0.387   0.392   0.401   0.405   0.409
  0.414   0.419   0.421   0.428   0.429   0.432   0.435   0.437
  0.441   0.443   0.445   0.447   0.453   0.456   0.463   0.465
  0.468   0.471   0.485   0.491   0.502   0.511   0.516   0.532
  0.543   0.556   0.563   0.615   0.640   0.647   0.654
 --------------------------------------------------------------
 
          Ground-State Mulliken Net Atomic Charges

     Atom                 Charge (a.u.)
  ----------------------------------------
      1 O                    -0.224859
      2 C                     0.216406
      3 C                    -0.079876
      4 C                    -0.082797
      5 C                     0.219178
      6 O                    -0.178349
      7 C                    -0.044131
      8 C                    -0.045889
      9 O                    -0.189195
     10 C                     0.219001
     11 C                    -0.082885
     12 C                    -0.077051
     13 C                     0.208510
     14 O                    -0.217812
     15 O                    -0.170150
     16 O                    -0.166260
     17 O                    -0.192847
     18 C                    -0.129091
     19 C                     0.024106
     20 C                    -0.142153
     21 C                    -0.145997
     22 C                     0.023709
     23 O                    -0.189476
     24 H                     0.083018
     25 H                     0.080390
     26 H                     0.084795
     27 H                     0.077632
     28 H                     0.072717
     29 H                     0.078257
     30 H                     0.071871
     31 H                     0.092254
     32 O                    -0.187881
     33 C                    -0.127090
     34 C                     0.023671
     35 C                    -0.141643
     36 C                    -0.145475
     37 C                     0.022839
     38 O                    -0.190218
     39 H                     0.081551
     40 H                     0.083555
     41 H                     0.087695
     42 H                     0.096002
     43 H                     0.078784
     44 H                     0.074493
     45 H                     0.078242
     46 H                     0.073330
     47 H                     0.074507
     48 H                     0.094456
     49 H                     0.089339
     50 H                     0.099172
     51 H                     0.092224
     52 H                     0.095140
     53 H                     0.101972
     54 H                     0.086583
     55 H                     0.084069
     56 H                     0.081653
  ----------------------------------------
  Sum of atomic charges =     0.000000

 -----------------------------------------------------------------
                    Cartesian Multipole Moments
 -----------------------------------------------------------------
    Charge (ESU x 10^10)
                 0.0000
    Dipole Moment (Debye)
         X       1.1481      Y       4.4076      Z      -2.3913
       Tot       5.1443
    Quadrupole Moments (Debye-Ang)
        XX    -152.6277     XY     -10.1637     YY    -158.5475
        XZ      -3.0615     YZ      -3.8047     ZZ    -161.7390
    Octopole Moments (Debye-Ang^2)
       XXX      21.3730    XXY      -0.9151    XYY      53.8680
       YYY     -26.3858    XXZ     -36.8188    XYZ     -10.4422
       YYZ      18.5951    XZZ       8.4764    YZZ       1.4145
       ZZZ       9.5487
    Hexadecapole Moments (Debye-Ang^3)
      XXXX  -13403.5468   XXXY    -678.2502   XXYY   -2740.7940
      XYYY    -447.6655   YYYY   -2616.9184   XXXZ      -2.6356
      XXYZ    -106.1163   XYYZ       6.4360   YYYZ    -110.5913
      XXZZ   -2548.0094   XYZZ    -140.0389   YYZZ    -705.1378
      XZZZ      27.6070   YZZZ     -67.3977   ZZZZ   -1494.2098
 -----------------------------------------------------------------
Archival summary:
1\1\vega02.cac.cornell.edu\OPT\ProcedureUnspecified\STO-3G\102026\jj585\MonJan1505:14:122018MonJan1505:14:122018\0\\#,OPT,ProcedureUnspecified,STO-3G,\\0,1\O\C,1,1.43171\O,2,1.25204,1,117.772\C,1,1.47112,2,117.985,3,138.869,0\H,4,1.10663,1,112.333,2,-23.346,0\H,4,1.11409,1,111.079,2,98.3559,0\C,4,1.58074,1,106.549,2,-142.105,0\H,7,1.10949,4,109.552,1,138.362,0\H,7,1.11282,4,108.137,1,19.5231,0\O,7,1.47316,4,112.387,1,-104.211,0\C,10,1.45222,7,113.808,4,85.263,0\O,11,1.24734,10,124.11,7,40.4297,0\C,11,1.57174,10,106.741,7,-142.105,0\H,13,1.10531,11,104.17,10,-15.8037,0\C,2,1.58623,1,118.608,3,173.763,0\H,15,1.10427,2,111.235,1,-33.9448,0\C,15,1.58496,2,109.856,1,-161.053,0\H,17,1.1069,15,108.29,2,144.05,0\C,17,1.57434,15,113.147,2,27.5489,0\O,19,1.25176,17,125.882,15,47.368,0\O,19,1.42945,17,109.805,15,-134.921,0\C,21,1.48094,19,109.706,17,178.41,0\H,22,1.1055,21,106.051,19,-179.826,0\H,22,1.10908,21,111.241,19,-60.6588,0\H,22,1.10924,21,111.663,19,60.8016,0\C,17,1.58551,15,102.476,2,-100.874,0\H,26,1.10657,17,114.524,15,145.415,0\O,26,1.48125,17,104.617,15,23.7693,0\C,28,1.48062,26,94.8569,17,-52.157,0\H,29,1.10506,28,109.856,26,-175.982,0\C,26,1.57651,17,106.588,15,-84.1909,0\H,31,1.10157,26,112.78,17,-52.8414,0\H,31,1.10203,26,110.425,17,-174.886,0\C,31,1.57413,26,100.264,17,67.6509,0\H,34,1.10133,31,111.871,26,125.962,0\H,34,1.10223,31,112.536,26,-111.446,0\C,13,1.58873,11,119.835,10,104.211,0\H,37,1.10613,13,110.662,11,-101.619,0\C,37,1.5791,13,118.503,11,25.2658,0\O,39,1.25212,37,124.428,13,142.105,0\O,39,1.41999,37,111.33,13,-38.263,0\C,41,1.4855,39,110.402,37,175.084,0\H,42,1.10532,41,106.402,39,-151.456,0\H,42,1.10752,41,110.597,39,-31.239,0\H,42,1.11104,41,111.333,39,89.9238,0\C,37,1.58674,13,99.6832,11,139.033,0\H,46,1.10743,37,112.727,13,-163.174,0\O,46,1.48369,37,101.164,13,-45.2995,0\C,48,1.47915,46,94.8111,37,60.9687,0\H,49,1.10724,48,110.546,46,-177.489,0\C,49,1.5779,48,102.638,46,58.3212,0\H,51,1.10166,49,112.713,48,-160.777,0\H,51,1.10192,49,110.334,48,77.2858,0\C,51,1.57482,49,100.462,48,-40.2387,0\H,54,1.10139,51,111.687,49,123.752,0\H,54,1.10197,51,112.628,49,-113.816,0\\\@

 Total job time:  75.33s(wall), 3585.24s(cpu) 
 Mon Jan 15 05:14:12 2018

        *************************************************************
        *                                                           *
        *  Thank you very much for using Q-Chem.  Have a nice day.  *
        *                                                           *
        *************************************************************


0 sent ACK to 0 
now end server 0 ... 
