mFile = /opt/software/qchem/qchem-5.0.1//bin/mpi/machines
Process 0 of 1 is on vega02.cac.cornell.edu - thread support 0
initial socket setup ...start
initial socket setup ...done 
now start server 0 ... 
vega02.cac.cornell.edu 10.84.3
Q-Chem Developer Version! Running on 10.84.3.*
                  Welcome to Q-Chem
     A Quantum Leap Into The Future Of Chemistry


 Q-Chem 5.0, Q-Chem, Inc., Pleasanton, CA (2017)

 Yihan Shao,  Zhengting Gan,  E. Epifanovsky,  A. T. B. Gilbert,  M. Wormit,  
 J. Kussmann,  A. W. Lange,  A. Behn,  Jia Deng,  Xintian Feng,  D. Ghosh,  
 M. Goldey,  P. R. Horn,  L. D. Jacobson,  I. Kaliman,  T. Kus,  A. Landau,  
 Jie Liu,  E. I. Proynov,  R. M. Richard,  R. P. Steele,  E. J. Sundstrom,  
 H. L. Woodcock III,  P. M. Zimmerman,  D. Zuev,  B. Albrecht,  E. Alguire,  
 S. A. Baeppler,  Z. Benda,  Y. A. Bernard,  E. J. Berquist,  K. B. Bravaya,  
 D. Casanova,  Chun-Min Chang,  Yunqing Chen,  A. Chien,  K. D. Closser,  
 M. P. Coons,  S. Dasgupta,  M. Diedenhofen,  Hainam Do,  R. G. Edgar,  
 Po-Tung Fang,  S. Fatehi,  Qingguo Feng,  Qinghui Ge,  A. Ghysels,  
 J. Gomes,  J. Gonthier,  A. Gunina,  M. W. D. Hanson-Heine,  
 P. H. P. Harbach,  A. W. Hauser,  J. E. Herr,  E. G. Hohenstein,  
 Z. C. Holden,  Kerwin Hui,  T.-C. Jagau,  Hyunjun Ji,  B. Kaduk,  
 K. Khistyaev,  Jaehoon Kim,  P. Klunzinger,  K. Koh,  D. Kosenkov,  
 T. Kowalczyk,  C. M. Krauter,  A. Kunitsa,  Ka Un Lao,  A. Laurent,  
 K. V. Lawler,  Joonho Lee,  D. Lefrancois,  S. Lehtola,  D. S. Levine,  
 Yi-Pei Li,  You-Sheng Lin,  Fenglai Liu,  E. Livshits,  A. Luenser,  
 P. Manohar,  E. Mansoor,  S. F. Manzer,  Shan-Ping Mao,  Yuezhi Mao,  
 N. Mardirossian,  A. V. Marenich,  L. A. Martinez-Martinez,  S. A. Maurer,  
 N. J. Mayhall,  S. C. McKenzie,  J.-M. Mewes,  A. F. Morrison,  K. Nanda,  
 T. S. Nguyen-Beck,  R. Olivares-Amaya,  J. A. Parkhill,  T. M. Perrine,  
 F. Plasser,  S. Prager,  A. Prociuk,  D. R. Rehn,  F. Rob,  M. Schneider,  
 N. Sergueev,  S. M. Sharada,  S. Sharma,  D. W. Small,  T. Stauch,  
 T. Stein,  Yu-Chuan Su,  A. J. W. Thom,  T. Tsuchimochi,  L. Vogt,  
 O. Vydrov,  M. A. Watson,  J. Wenzel,  M. de Wergifosse,  T. A. Wesolowski,  
 A. White,  J. Witte,  A. Yamada,  Jun Yang,  K. Yao,  S. Yeganeh,  
 S. R. Yost,  Zhi-Qiang You,  A. Zech,  Igor Ying Zhang,  Xing Zhang,  
 Yan Zhao,  Ying Zhu,  B. R. Brooks,  G. K. L. Chan,  C. J. Cramer,  
 M. S. Gordon,  W. J. Hehre,  A. Klamt,  M. W. Schmidt,  C. D. Sherrill,  
 D. G. Truhlar,  A. Aspuru-Guzik,  R. Baer,  A. T. Bell,  N. A. Besley,  
 Jeng-Da Chai,  A. Dreuw,  B. D. Dunietz,  T. R. Furlani,  Chao-Ping Hsu,  
 Yousung Jung,  Jing Kong,  D. S. Lambrecht,  WanZhen Liang,  C. Ochsenfeld,  
 V. A. Rassolov,  L. V. Slipchenko,  J. E. Subotnik,  T. Van Voorhis,  
 J. M. Herbert,  A. I. Krylov,  P. M. W. Gill,  M. Head-Gordon

 Contributors to earlier versions of Q-Chem not listed above: 
 R. D. Adamson,  B. Austin,  J. Baker,  G. J. O. Beran,  K. Brandhorst,  
 S. T. Brown,  E. F. C. Byrd,  A. K. Chakraborty,  C.-L. Cheng,  
 Siu Hung Chien,  D. M. Chipman,  D. L. Crittenden,  H. Dachsel,  
 R. A. DiStasio Jr.,  R. J. Doerksen,  A. D. Dutoi,  L. Fusti-Molnar,  
 W. A. Goddard III,  A. Golubeva-Zadorozhnaya,  S. R. Gwaltney,  G. Hawkins,  
 A. Heyden,  S. Hirata,  G. Kedziora,  F. J. Keil,  C. Kelley,  Jihan Kim,  
 R. A. King,  R. Z. Khaliullin,  P. P. Korambath,  W. Kurlancheek,  
 A. M. Lee,  M. S. Lee,  S. V. Levchenko,  Ching Yeh Lin,  D. Liotard,  
 R. C. Lochan,  I. Lotan,  P. E. Maslen,  N. Nair,  D. P. O'Neill,  
 D. Neuhauser,  E. Neuscamman,  C. M. Oana,  R. Olson,  B. Peters,  
 R. Peverati,  P. A. Pieniazek,  Y. M. Rhee,  J. Ritchie,  M. A. Rohrdanz,  
 E. Rosta,  N. J. Russ,  H. F. Schaefer III,  N. E. Schultz,  N. Shenvi,  
 A. C. Simmonett,  A. Sodt,  D. Stuck,  K. S. Thanthiriwatte,  V. Vanovschi,  
 Tao Wang,  A. Warshel,  C. F. Williams,  Q. Wu,  X. Xu,  W. Zhang

 Please cite Q-Chem as follows:
 Y. Shao et al., Mol. Phys. 113, 184-215 (2015)
 DOI: 10.1080/00268976.2014.952696

 Q-Chem 5.0.1 for Intel X86 EM64T Linux

 Parts of Q-Chem use Armadillo 5.200.1 (Boston Tea Smuggler).
 http://arma.sourceforge.net/

 Q-Chem begins on Mon Jan 15 06:33:07 2018  

Host: vega02.cac.cornell.edu
0

     Scratch files written to /scratch/jj585/SOT1001/0694c.save//
 Parallel job on  1  processors

Checking the input file for inconsistencies... 	...done.

--------------------------------------------------------------
User input:
--------------------------------------------------------------
$molecule
0  1
O -3.94934 -3.66094 2.70899
C -3.26408 -4.56952 2.26188
C -3.36658 -6.02376 2.66595
C -4.68585 -6.74864 2.35304
C -5.68912 -5.99032 1.5125
O -5.72251 -4.68072 1.89883
C -6.78444 -3.94027 1.28785
C -8.06331 -4.0826 2.1066
O -9.17596 -3.54638 1.37354
C -9.52042 -4.2298 0.25398
C -10.98222 -4.08583 -0.09684
C -11.28386 -4.02456 -1.60135
C -10.16154 -4.46652 -2.51883
O -10.22981 -5.37266 -3.33663
O -2.34112 -4.2584 1.31194
O -9.04376 -3.69149 -2.50497
O -8.88767 -5.1929 -0.16559
C -7.9315 -3.91287 -3.28959
C -11.83865 -5.30609 0.30572
C -13.28978 -4.86807 0.4928
C -13.67973 -4.56825 -0.94117
C -12.424 -5.05901 -1.67465
O -11.92652 -6.09132 -0.85834
H -11.37747 -3.19472 0.44428
H -11.58396 -3.00416 -1.926
H -11.46873 -5.82222 1.2187
H -13.85013 -5.76835 0.83398
H -13.46256 -4.03972 1.21308
H -14.56948 -5.18471 -1.19796
H -13.87613 -3.49735 -1.16572
H -12.67631 -5.34057 -2.72059
O -6.22945 -6.43726 0.50673
C -2.13093 -2.98977 0.81312
C -2.37718 -6.95866 1.9282
C -2.13337 -8.22271 2.75283
C -3.45143 -8.94117 2.56699
C -4.15616 -7.98353 1.60228
O -3.1096 -7.44727 0.83049
H -3.13068 -6.04646 3.75347
H -5.2247 -7.01057 3.29041
H -1.82272 -2.30317 1.63033
H -1.39909 -6.48494 1.69551
H -1.33832 -8.80791 2.23713
H -1.83157 -8.04544 3.80751
H -3.25357 -9.91459 2.0651
H -4.03867 -9.10635 3.4962
H -4.95051 -8.52673 1.04545
H -3.0578 -2.61007 0.3321
H -1.32339 -3.02689 0.05357
H -7.17239 -3.13397 -3.0716
H -8.2036 -3.85733 -4.36526
H -7.49629 -4.90943 -3.06176
H -8.26731 -5.15372 2.33354
H -7.94405 -3.55356 3.07586
H -6.84993 -4.17326 0.20563
H -6.51775 -2.86214 1.29722
$end

$opt
CONSTRAINT
tors           1           2           3           4     +63.772
tors           3           4           5           6     -40.504
tors           4           5           6           7    -171.342
tors           5           6           7           8     +86.500
tors           6           7           8           9    -169.643
tors           7           8           9          10     +67.145
tors           8           9          10          11    +152.342
tors           9          10          11          12    +143.847
tors          11          12          13          14    +121.578
ENDCONSTRAINT
$end

$rem
JOBTYPE                   OPT
METHOD                    B3LYP
DFT_D                     d3_op
BASIS                     STO-3G
GEOM_OPT_MAX_CYCLES       100
GEOM_OPT_TOL_GRADIENT     300
GEOM_OPT_TOL_DISPLACEMENT 1200
GEOM_OPT_TOL_ENERGY       100
SYMMETRY                  False
THRESH                    12
SCF_CONVERGENCE           8
MAX_SUB_FILE_NUM          128
MEM_STATIC                400
MEM_TOTAL                 4000
$end
--------------------------------------------------------------
 Adding empirical dispersion correction 
 ----------------------------------------------------------------
 Doing -D3(op) with
 s6 =   1.00000
 s8 =   0.78311
 a1 =   0.30000
 a2 =   4.25000
 n  =  10.00000
 -D3 energy without 3body term =     -0.0674195339 hartrees
 ----------------------------------------------------------------
             Standard Nuclear Orientation (Angstroms)
    I     Atom           X                Y                Z
 ----------------------------------------------------------------
    1      O      -3.5382487205    -1.3446071010     1.9726338920
    2      C      -4.1715426540    -1.0060116933     0.9830389346
    3      C      -4.4600913071     0.4217424179     0.5745653550
    4      C      -3.2555902539     1.3062126378     0.2130039376
    5      C      -1.9126898677     0.6151539227     0.1283646332
    6      O      -1.7935771171    -0.2931015432     1.1414303183
    7      C      -0.4780815063    -0.8473033792     1.2490858371
    8      C       0.3996357155     0.0472524943     2.1182809453
    9      O       1.7694253800    -0.3752977514     2.0286905460
   10      C       2.3561246831    -0.1988854726     0.8188174877
   11      C       3.8516762887    -0.0109709232     0.9119560431
   12      C       4.6560422942    -0.6426822520    -0.2335688012
   13      C       3.8584359418    -1.0442564537    -1.4580126103
   14      O       4.0489987270    -0.6343025640    -2.5938695404
   15      O      -4.6469332103    -1.9869876330     0.1689585674
   16      O       2.9510340852    -2.0408703733    -1.2744961398
   17      O       1.7527532465     0.2143192127    -0.1656508739
   18      C       2.1543753172    -2.5635202895    -2.2714574373
   19      C       4.2999182967     1.4611376286     0.7833602418
   20      C       5.6509190053     1.6422539598     1.4722961486
   21      C       6.5529287899     0.8713786216     0.5287111989
   22      C       5.5607781503     0.5507683822    -0.5975846341
   23      O       4.6475412273     1.6207118584    -0.5705368505
   24      H       4.1817728008    -0.3851228310     1.9090303090
   25      H       5.2164574883    -1.5444436563     0.0972407700
   26      H       3.5584123593     2.1845376013     1.1878659749
   27      H       5.9003989731     2.7254276869     1.3988494606
   28      H       5.7034582639     1.3301558226     2.5374976827
   29      H       7.3594586584     1.5537559891     0.1801573325
   30      H       6.9917169927    -0.0605394189     0.9468214132
   31      H       6.1047681351     0.3956373557    -1.5551524460
   32      O      -1.1440876135     0.7078588381    -0.8223937688
   33      C      -4.4567347866    -3.3368134138     0.3792398707
   34      C      -5.2794057540     0.5546506038    -0.7324482960
   35      C      -6.0000490606     1.9025252905    -0.7669070982
   36      C      -4.8391018369     2.8384082761    -1.0205367924
   37      C      -3.6960547945     1.8300610105    -1.1656690682
   38      O      -4.3087837627     0.7019823531    -1.7405813915
   39      H      -5.0543940731     0.8546641164     1.4101770326
   40      H      -3.1226491444     2.1180888940     0.9618782730
   41      H      -4.9058488224    -3.6403212999     1.3489948367
   42      H      -6.0240005826    -0.2569465121    -0.8811223863
   43      H      -6.6568727508     1.9054710631    -1.6663980625
   44      H      -6.6103402323     2.1328307790     0.1327383115
   45      H      -5.0140447451     3.3617829258    -1.9870059347
   46      H      -4.6423447452     3.5813114033    -0.2174502065
   47      H      -2.8626143816     2.2859577546    -1.7432961523
   48      H      -3.3713382604    -3.5746086112     0.3763846749
   49      H      -4.9492902779    -3.9048192127    -0.4363417923
   50      H       1.5092423439    -3.3572501725    -1.8422148931
   51      H       2.7836107627    -3.0069761501    -3.0724560043
   52      H       1.5062481091    -1.7682539325    -2.6979883624
   53      H       0.3300874674     1.1080244108     1.7861035826
   54      H       0.0465644838     0.0038078998     3.1704332581
   55      H      -0.0861676256    -1.1188109937     0.2478563259
   56      H      -0.5462250984    -1.8276114928     1.7667035563
 ----------------------------------------------------------------
 Molecular Point Group                 C1    NOp =  1
 Largest Abelian Subgroup              C1    NOp =  1
 Nuclear Repulsion Energy =  3181.9671094409 hartrees
 There are      113 alpha and      113 beta electrons
 Requested basis set is STO-3G
 There are 86 shells and 176 basis functions

 Total QAlloc Memory Limit   4000 MB
 Mega-Array Size       392 MB
 MEM_STATIC part       400 MB
 A cutoff of  1.0D-12 yielded   2121 shell pairs
 There are     10038 function pairs
 
 -------------------------------------------------------
 OpenMP Integral Computing Module                       
 Release: version 1.0, May 2013, Q-Chem Inc. Pittsburgh 
 -------------------------------------------------------
 Integral Job Info:
 Integral job number is                      11
 Integral operator is                         1
 short-range coefficients                     0
 long-range coefficients              100000000
 Omega coefficients                           0
 if combine SR and LR in K                    0
 Integral screening is                        0
 Integral computing path is                   2
 max size of driver memory is            800000
 size of driver memory is                 45569
 size of scratch memory is              1046100
 max col of scratch BK array                289
 max len of scratch array in speh3           22
 max len of scratch index in speh4            8
 max int batch size is                      520
 min int batch size is                       52
 fixed nKL is                                52
 max L of basis functions is                  1
 order of int derivative is                   0
 number of shells is                         86
 number of basis is                         176
 number of cartesian basis is               176
 number of contracted shell pairs          2121
 number of primitive shell pairs          10972
 maxK2 (contraction) of shell pair            9
 max number of K2 of shell pair               1
 max number of CS2 of shell pair            305
 max number of PS2 of shell pair           1224
 mem total for path MDJ                   52138
 -------------------------------------------------------
 Smallest overlap matrix eigenvalue = 1.93E-01

 Scale SEOQF with 1.000000e-02/1.000000e-01/1.000000e-01

 Standard Electronic Orientation quadrupole field applied
 Nucleus-field energy     =     0.0000000084 hartrees
 Guess from superposition of atomic densities
 Warning:  Energy on first SCF cycle will be non-variational
 A restricted hybrid HF-DFT SCF calculation will be
 performed using Pulay DIIS extrapolation
 Exchange:     0.2000 Hartree-Fock + 0.0800 Slater + 0.7200 B88
 Correlation:  0.1900 VWN1RPA + 0.8100 LYP
 Using SG-1 standard quadrature grid
 Dispersion:   Grimme D3
 SCF converges when DIIS error is below 1.0E-08
 using 48 threads for integral computing
 -------------------------------------------------------
 OpenMP Integral computing Module                
 Release: version 1.0, May 2013, Q-Chem Inc. Pittsburgh 
 -------------------------------------------------------
 -------------------------------------------------------
 OpenMP BLAS3 based DFT computing Module                
 Release: version 1.0, May 2013, Q-Chem Inc. Pittsburgh 
 -------------------------------------------------------
 ---------------------------------------
  Cycle       Energy         DIIS Error
 ---------------------------------------
    1   -1509.4611987752      8.29E-02
    2   -1509.5620568115      1.06E-02
    3   -1507.3351698798      2.65E-02
    4   -1510.0734009613      3.52E-03
    5   -1510.1197441196      1.43E-03
    6   -1510.1265613778      7.11E-04
    7   -1510.1287084091      1.28E-04
    8   -1510.1287742501      3.58E-05
    9   -1510.1287774442      2.41E-05
   10   -1510.1287799970      2.74E-06
   11   -1510.1287800335      6.55E-07
   12   -1510.1287800354      1.92E-07
   13   -1510.1287800354      1.11E-07
   14   -1510.1287800356      3.47E-08
   15   -1510.1287800356      6.46E-09 Convergence criterion met
 ---------------------------------------
 SCF time:  CPU 110.44 s  wall 2.35 s
 SCF   energy in the final basis set = -1510.12878004
 Total energy in the final basis set = -1510.12878004
 
 --------------------------------------------------------------
 
                    Orbital Energies (a.u.)
 --------------------------------------------------------------
 
 Alpha MOs
 -- Occupied --
-18.945 -18.942 -18.925 -18.919 -18.897 -18.894 -18.865 -18.860
-18.851 -18.847 -10.107 -10.104 -10.103 -10.102 -10.088 -10.080
-10.074 -10.072 -10.068 -10.064 -10.062 -10.062 -10.038 -10.037
-10.035 -10.035 -10.016 -10.015 -10.012 -10.011  -1.049  -1.043
 -1.034  -1.033  -1.021  -1.019  -0.952  -0.948  -0.937  -0.936
 -0.781  -0.779  -0.745  -0.740  -0.730  -0.721  -0.712  -0.676
 -0.674  -0.636  -0.605  -0.595  -0.554  -0.550  -0.536  -0.533
 -0.523  -0.522  -0.492  -0.491  -0.484  -0.480  -0.462  -0.458
 -0.451  -0.443  -0.438  -0.426  -0.422  -0.419  -0.418  -0.412
 -0.403  -0.394  -0.391  -0.385  -0.381  -0.368  -0.361  -0.354
 -0.350  -0.344  -0.342  -0.333  -0.332  -0.329  -0.321  -0.312
 -0.310  -0.306  -0.304  -0.299  -0.296  -0.289  -0.288  -0.275
 -0.273  -0.249  -0.235  -0.233  -0.230  -0.219  -0.217  -0.192
 -0.172  -0.162  -0.159  -0.152  -0.150  -0.145  -0.140  -0.132
 -0.128
 -- Virtual --
  0.098   0.114   0.123   0.131   0.231   0.247   0.259   0.275
  0.302   0.317   0.331   0.333   0.341   0.345   0.346   0.356
  0.359   0.376   0.383   0.387   0.391   0.396   0.402   0.403
  0.406   0.411   0.412   0.413   0.415   0.421   0.425   0.428
  0.434   0.435   0.436   0.442   0.448   0.454   0.455   0.459
  0.465   0.471   0.473   0.480   0.483   0.485   0.486   0.490
  0.493   0.494   0.507   0.523   0.532   0.540   0.549   0.562
  0.569   0.580   0.587   0.688   0.691   0.698   0.698
 --------------------------------------------------------------
 
          Ground-State Mulliken Net Atomic Charges

     Atom                 Charge (a.u.)
  ----------------------------------------
      1 O                    -0.226651
      2 C                     0.236451
      3 C                    -0.082143
      4 C                    -0.082653
      5 C                     0.225505
      6 O                    -0.178318
      7 C                    -0.044663
      8 C                    -0.033738
      9 O                    -0.194054
     10 C                     0.230422
     11 C                    -0.080777
     12 C                    -0.079894
     13 C                     0.243442
     14 O                    -0.232306
     15 O                    -0.213686
     16 O                    -0.217274
     17 O                    -0.223157
     18 C                    -0.098238
     19 C                     0.041131
     20 C                    -0.141098
     21 C                    -0.144492
     22 C                     0.041860
     23 O                    -0.205023
     24 H                     0.081909
     25 H                     0.085533
     26 H                     0.082321
     27 H                     0.075927
     28 H                     0.072274
     29 H                     0.076571
     30 H                     0.071337
     31 H                     0.092082
     32 O                    -0.217249
     33 C                    -0.097113
     34 C                     0.039592
     35 C                    -0.143200
     36 C                    -0.143891
     37 C                     0.039279
     38 O                    -0.210812
     39 H                     0.086919
     40 H                     0.083145
     41 H                     0.084474
     42 H                     0.089079
     43 H                     0.074100
     44 H                     0.070060
     45 H                     0.075142
     46 H                     0.070361
     47 H                     0.093145
     48 H                     0.084974
     49 H                     0.093765
     50 H                     0.089441
     51 H                     0.084011
     52 H                     0.093910
     53 H                     0.086482
     54 H                     0.099450
     55 H                     0.106958
     56 H                     0.089376
  ----------------------------------------
  Sum of atomic charges =    -0.000000

 -----------------------------------------------------------------
                    Cartesian Multipole Moments
 -----------------------------------------------------------------
    Charge (ESU x 10^10)
                 0.0000
    Dipole Moment (Debye)
         X      -0.8899      Y      -0.8823      Z       3.4714
       Tot       3.6906
    Quadrupole Moments (Debye-Ang)
        XX    -141.6503     XY      -5.0469     YY    -148.7606
        XZ       7.5947     YZ       7.3226     ZZ    -168.2136
    Octopole Moments (Debye-Ang^2)
       XXX      -1.1945    XXY     -11.8802    XYY     -31.0813
       YYY     -44.1141    XXZ      45.6768    XYZ      10.3465
       YYZ      -8.8088    XZZ      -3.2481    YZZ      -4.8216
       ZZZ       2.0478
    Hexadecapole Moments (Debye-Ang^3)
      XXXX  -14830.6509   XXXY      26.4375   XXYY   -2859.6774
      XYYY     125.1964   YYYY   -2230.4973   XXXZ       7.2964
      XXYZ      34.1726   XYYZ     -23.2530   YYYZ      18.4798
      XXZZ   -3033.8536   XYZZ     -22.6928   YYZZ    -638.0433
      XZZZ     -12.1275   YZZZ      10.9517   ZZZZ   -1724.5104
 -----------------------------------------------------------------
 Calculating analytic gradient of the SCF energy
 Gradient of SCF Energy
            1           2           3           4           5           6
    1  -0.0190522  -0.0094472   0.0358133  -0.0031351   0.0104907   0.0027790
    2   0.0128842   0.0209736  -0.0087768  -0.0330587   0.0012301   0.0077709
    3  -0.0682526  -0.0169013  -0.0159943  -0.0399622   0.0259187  -0.0428476
            7           8           9          10          11          12
    1   0.0012204   0.0033273  -0.0176406  -0.0142169  -0.0173197  -0.0187421
    2   0.0489362  -0.0272410   0.0285444  -0.0373642   0.0424870   0.0373391
    3   0.0090236   0.0089363  -0.0809454   0.0224565  -0.0506271  -0.0241772
           13          14          15          16          17          18
    1   0.0067875  -0.0184208   0.0610750  -0.0029322   0.0359499   0.0208763
    2  -0.0011492  -0.0346736  -0.0546279   0.0310033  -0.0072970   0.0035782
    3   0.0283119   0.0592663   0.0952260  -0.1207332   0.0561463   0.0541850
           19          20          21          22          23          24
    1   0.0397721  -0.0139897  -0.0441953  -0.0492314   0.0289034   0.0004936
    2  -0.0271368  -0.0268201   0.0128316   0.0361862  -0.0563578   0.0019143
    3  -0.0525135  -0.0431843  -0.0062184   0.0412741   0.0598965   0.0085139
           25          26          27          28          29          30
    1   0.0008413   0.0017682   0.0016301   0.0026904   0.0024012   0.0001145
    2  -0.0057003  -0.0000434   0.0082626  -0.0015619   0.0131534  -0.0093936
    3  -0.0017243   0.0132787  -0.0072169   0.0077945   0.0016947   0.0001977
           31          32          33          34          35          36
    1   0.0122960  -0.0392628  -0.0198639   0.0580076   0.0507467   0.0000292
    2  -0.0071642  -0.0093766   0.0450351   0.0338930  -0.0122194  -0.0504884
    3   0.0036764   0.0354005  -0.0285787  -0.0226397  -0.0027906   0.0021540
           37          38          39          40          41          42
    1  -0.0486140  -0.0160555  -0.0074561   0.0058192  -0.0034515  -0.0132368
    2  -0.0515279   0.0464817  -0.0003173   0.0009283   0.0083291   0.0060805
    3   0.0070392   0.0710123   0.0023256   0.0040927  -0.0027892   0.0055502
           43          44          45          46          47          48
    1   0.0007170  -0.0046052  -0.0076980   0.0036755  -0.0011445  -0.0012465
    2   0.0004130   0.0027452  -0.0017303   0.0042167   0.0146913   0.0082479
    3  -0.0118413   0.0060858  -0.0102285   0.0068148   0.0034168  -0.0038553
           49          50          51          52          53          54
    1   0.0006793  -0.0019431   0.0048551   0.0033015   0.0032085  -0.0075067
    2  -0.0032919  -0.0009305   0.0011512   0.0026161  -0.0003942   0.0034178
    3   0.0009406  -0.0027443   0.0075987   0.0076480   0.0023706  -0.0001714
           55          56
    1  -0.0095674   0.0097055
    2  -0.0155807  -0.0011180
    3   0.0020389  -0.0033489
 Max gradient component =       1.207E-01
 RMS gradient           =       2.815E-02
 Gradient time:  CPU 34.99 s  wall 0.75 s
 Geometry Optimization Parameters
   NAtoms,    NIC,     NZ,  NCons,   NDum,   NFix, NCnnct, MaxDiis
       56     458       0       9       0       0       0       0


** CONSTRAINED OPTIMIZATION IN DELOCALIZED INTERNAL COORDINATES **
   Searching for a Minimum

   Optimization Cycle:   1

                       Coordinates (Angstroms)
     ATOM                X               Y               Z
      1  O        -3.5382487205   -1.3446071010    1.9726338920
      2  C        -4.1715426540   -1.0060116933    0.9830389346
      3  C        -4.4600913071    0.4217424179    0.5745653550
      4  C        -3.2555902539    1.3062126378    0.2130039376
      5  C        -1.9126898677    0.6151539227    0.1283646332
      6  O        -1.7935771171   -0.2931015432    1.1414303183
      7  C        -0.4780815063   -0.8473033792    1.2490858371
      8  C         0.3996357155    0.0472524943    2.1182809453
      9  O         1.7694253800   -0.3752977514    2.0286905460
     10  C         2.3561246831   -0.1988854726    0.8188174877
     11  C         3.8516762887   -0.0109709232    0.9119560431
     12  C         4.6560422942   -0.6426822520   -0.2335688012
     13  C         3.8584359418   -1.0442564537   -1.4580126103
     14  O         4.0489987270   -0.6343025640   -2.5938695404
     15  O        -4.6469332103   -1.9869876330    0.1689585674
     16  O         2.9510340852   -2.0408703733   -1.2744961398
     17  O         1.7527532465    0.2143192127   -0.1656508739
     18  C         2.1543753172   -2.5635202895   -2.2714574373
     19  C         4.2999182967    1.4611376286    0.7833602418
     20  C         5.6509190053    1.6422539598    1.4722961486
     21  C         6.5529287899    0.8713786216    0.5287111989
     22  C         5.5607781503    0.5507683822   -0.5975846341
     23  O         4.6475412273    1.6207118584   -0.5705368505
     24  H         4.1817728008   -0.3851228310    1.9090303090
     25  H         5.2164574883   -1.5444436563    0.0972407700
     26  H         3.5584123593    2.1845376013    1.1878659749
     27  H         5.9003989731    2.7254276869    1.3988494606
     28  H         5.7034582639    1.3301558226    2.5374976827
     29  H         7.3594586584    1.5537559891    0.1801573325
     30  H         6.9917169927   -0.0605394189    0.9468214132
     31  H         6.1047681351    0.3956373557   -1.5551524460
     32  O        -1.1440876135    0.7078588381   -0.8223937688
     33  C        -4.4567347866   -3.3368134138    0.3792398707
     34  C        -5.2794057540    0.5546506038   -0.7324482960
     35  C        -6.0000490606    1.9025252905   -0.7669070982
     36  C        -4.8391018369    2.8384082761   -1.0205367924
     37  C        -3.6960547945    1.8300610105   -1.1656690682
     38  O        -4.3087837627    0.7019823531   -1.7405813915
     39  H        -5.0543940731    0.8546641164    1.4101770326
     40  H        -3.1226491444    2.1180888940    0.9618782730
     41  H        -4.9058488224   -3.6403212999    1.3489948367
     42  H        -6.0240005826   -0.2569465121   -0.8811223863
     43  H        -6.6568727508    1.9054710631   -1.6663980625
     44  H        -6.6103402323    2.1328307790    0.1327383115
     45  H        -5.0140447451    3.3617829258   -1.9870059347
     46  H        -4.6423447452    3.5813114033   -0.2174502065
     47  H        -2.8626143816    2.2859577546   -1.7432961523
     48  H        -3.3713382604   -3.5746086112    0.3763846749
     49  H        -4.9492902779   -3.9048192127   -0.4363417923
     50  H         1.5092423439   -3.3572501725   -1.8422148931
     51  H         2.7836107627   -3.0069761501   -3.0724560043
     52  H         1.5062481091   -1.7682539325   -2.6979883624
     53  H         0.3300874674    1.1080244108    1.7861035826
     54  H         0.0465644838    0.0038078998    3.1704332581
     55  H        -0.0861676256   -1.1188109937    0.2478563259
     56  H        -0.5462250984   -1.8276114928    1.7667035563
   Point Group: c1    Number of degrees of freedom:   162


   Energy is  -1510.128780036

              Constraints and their Current Values
                                        Value     Constraint
   Dihedral:        1   2   3   4       63.772       63.772
   Dihedral:        3   4   5   6      -40.503      -40.504
   Dihedral:        4   5   6   7     -171.342     -171.342
   Dihedral:        5   6   7   8       86.499       86.500
   Dihedral:        6   7   8   9     -169.643     -169.643
   Dihedral:        7   8   9  10       67.145       67.145
   Dihedral:        8   9  10  11      152.342      152.342
   Dihedral:        9  10  11  12      143.847      143.847
   Dihedral:       11  12  13  14      121.578      121.578

 Attempting to Generate Delocalized Internal Coordinates

   Using Lagrange Multiplier Algorithm


171 Hessian modes will be used to form the next step
  Hessian Eigenvalues:
    -0.977753   -0.977753   -0.977753   -0.977753   -0.977753   -0.977753
    -0.977753   -0.977753   -0.977753    0.045000    0.045000    0.045000
     0.045000    0.045002    0.045198    0.045512    0.045562    0.045630
     0.047437    0.048859    0.048882    0.053947    0.059936    0.059945
     0.062224    0.062736    0.066986    0.067030    0.067735    0.067760
     0.069058    0.070566    0.071971    0.073941    0.074106    0.075618
     0.075710    0.076901    0.077270    0.082459    0.082616    0.083249
     0.083467    0.084005    0.084105    0.084386    0.085227    0.085589
     0.085724    0.086664    0.086972    0.088359    0.088778    0.089025
     0.089217    0.089842    0.089909    0.093794    0.093919    0.096653
     0.096664    0.111513    0.111661    0.114650    0.114668    0.115907
     0.115938    0.116303    0.117587    0.118486    0.119206    0.119364
     0.123853    0.125454    0.131238    0.131241    0.131829    0.139425
     0.141433    0.160000    0.160000    0.160000    0.160000    0.160000
     0.160000    0.171199    0.172181    0.172220    0.173477    0.218396
     0.220321    0.231407    0.239999    0.240003    0.245707    0.249175
     0.249990    0.250000    0.250000    0.250000    0.250000    0.250000
     0.250000    0.250000    0.250000    0.258344    0.258548    0.266815
     0.267418    0.278188    0.280132    0.282497    0.282746    0.294765
     0.296075    0.298748    0.308054    0.310698    0.310857    0.313318
     0.320816    0.321846    0.322029    0.322073    0.322800    0.322929
     0.323380    0.323385    0.323711    0.323788    0.323831    0.324093
     0.324233    0.324354    0.324520    0.324689    0.324707    0.324792
     0.324884    0.324980    0.325006    0.325298    0.325300    0.326787
     0.326805    0.327113    0.368544    0.368756    0.383714    0.383921
     0.401001    0.407713    0.492335    0.492776    0.517917    0.528409
     0.528959    0.537344    0.926175    0.927371    0.941950    0.942768
     1.022753    1.022753    1.022753    1.022753    1.022753    1.022753
     1.022753    1.022753    1.022753

 Minimum Search - Taking P-RFO Step
 Searching for Lamda that Maximizes Along the Constraint modes Only
 Value Taken    Lamda =   0.00278699
 Searching for Lamda that Minimizes Along All other modes
 Value Taken    Lamda =  -0.19401665
 Calculated Step too Large.  Step scaled by  0.484423
 Step Taken.  Stepsize is  0.300000

                             Maximum     Tolerance    Cnvgd?
         Gradient            0.143208       0.000300      NO
         Displacement        0.114576       0.001200      NO
         Energy change     *********       0.000001      NO


 New Cartesian Coordinates Obtained by Inverse Iteration

 Displacement from previous Coordinates is:  2.662977
 Adding empirical dispersion correction 
 ----------------------------------------------------------------
 Doing -D3(op) with
 s6 =   1.00000
 s8 =   0.78311
 a1 =   0.30000
 a2 =   4.25000
 n  =  10.00000
 -D3 energy without 3body term =     -0.0662519752 hartrees
 ----------------------------------------------------------------
             Standard Nuclear Orientation (Angstroms)
    I     Atom           X                Y                Z
 ----------------------------------------------------------------
    1      O      -3.8479065730    -1.4396407791     2.0825664057
    2      C      -4.4214475502    -1.0460986455     1.0582042274
    3      C      -4.5701934177     0.4117830649     0.6071678023
    4      C      -3.2848154397     1.2416262561     0.2491802919
    5      C      -1.9199078616     0.5246578678     0.1757293212
    6      O      -1.7678251610    -0.4067893778     1.1862647544
    7      C      -0.4282213849    -0.9493628147     1.2623705574
    8      C       0.4765450722    -0.0530612097     2.1364665754
    9      O       1.8706255315    -0.4410369550     2.0296684228
   10      C       2.4427112720    -0.2245951046     0.7929903878
   11      C       3.9509855499     0.0072653943     0.8964473280
   12      C       4.7837304081    -0.5863998157    -0.2708654085
   13      C       3.9802641475    -0.9985513948    -1.5095426637
   14      O       4.1495823492    -0.5612530403    -2.6555132362
   15      O      -4.9837445494    -1.9652664105     0.1975728518
   16      O       3.1042963774    -2.0376055191    -1.2800462122
   17      O       1.8072312232     0.1729125646    -0.1964304237
   18      C       2.3098359159    -2.5564401650    -2.3145730643
   19      C       4.3529584345     1.5143463514     0.7874774761
   20      C       5.7154489639     1.7179562165     1.4905319135
   21      C       6.6506389247     0.9774605808     0.5197026898
   22      C       5.6585992371     0.6497085397    -0.6301903641
   23      O       4.6986085566     1.7107760200    -0.5872668799
   24      H       4.2923736454    -0.3706913587     1.8842865194
   25      H       5.3722260467    -1.4722176506     0.0464463092
   26      H       3.5875631317     2.2080840246     1.1945156673
   27      H       5.9374195123     2.8040248943     1.4428000407
   28      H       5.7717004724     1.3875126112     2.5458317020
   29      H       7.4401659165     1.6779243584     0.1829401621
   30      H       7.1108223846     0.0536856523     0.9220925023
   31      H       6.1961983688     0.5267263849    -1.5938027150
   32      O      -1.1424197146     0.6277236963    -0.7823432474
   33      C      -4.9104403549    -3.3424714547     0.4593824425
   34      C      -5.3536003471     0.5593976793    -0.7403608393
   35      C      -6.0066017821     1.9601313087    -0.8211830884
   36      C      -4.7786401827     2.8394416431    -1.0652970835
   37      C      -3.6698725801     1.7612704490    -1.1647784125
   38      O      -4.3317701141     0.6294643870    -1.7441536308
   39      H      -5.1511296343     0.8981382089     1.4187415498
   40      H      -3.1386572842     2.0570878535     0.9885989838
   41      H      -5.4112185518    -3.5941400902     1.4205083787
   42      H      -6.1322671728    -0.2167550649    -0.8901459853
   43      H      -6.6421499745     1.9786177429    -1.7301144425
   44      H      -6.6224782141     2.2382536527     0.0559707747
   45      H      -4.8968382028     3.3536444396    -2.0399737546
   46      H      -4.5664273190     3.5841655400    -0.2736493660
   47      H      -2.7998774963     2.1606092472    -1.7269422356
   48      H      -3.8525166961    -3.6844695549     0.5011389946
   49      H      -5.4253189667    -3.8827172252    -0.3608004425
   50      H       1.6872041638    -3.3753295024    -1.9005720238
   51      H       2.9391777099    -2.9673548333    -3.1347982201
   52      H       1.6366771829    -1.7736939195    -2.7291759298
   53      H       0.3801645953     1.0108967967     1.8193889727
   54      H       0.1517438244    -0.1200736943     3.1953787916
   55      H      -0.0395512789    -1.1817590302     0.2493364802
   56      H      -0.4839801125    -1.9409627324     1.7608476013
 ----------------------------------------------------------------
 Molecular Point Group                 C1    NOp =  1
 Largest Abelian Subgroup              C1    NOp =  1
 Nuclear Repulsion Energy =  3128.3845466643 hartrees
 There are      113 alpha and      113 beta electrons
 Applying Cartesian multipole field
    Component          Value
    ---------          -----
     (2,0,0)        1.00000E-12
     (0,2,0)        2.00000E-11
     (0,0,2)       -3.00000E-11
 Nucleus-field energy     =     0.0000000080 hartrees
 Requested basis set is STO-3G
 There are 86 shells and 176 basis functions
 A cutoff of  1.0D-12 yielded   2088 shell pairs
 There are      9885 function pairs
 Smallest overlap matrix eigenvalue = 2.01E-01
 Guess MOs from SCF MO coefficient file
 Reading MOs from coefficient file
 Reading MOs from coefficient file
 A restricted hybrid HF-DFT SCF calculation will be
 performed using Pulay DIIS extrapolation
 Exchange:     0.2000 Hartree-Fock + 0.0800 Slater + 0.7200 B88
 Correlation:  0.1900 VWN1RPA + 0.8100 LYP
 Using SG-1 standard quadrature grid
 Dispersion:   Grimme D3
 SCF converges when DIIS error is below 1.0E-08
 Geometry optimization detected.  Setting ReadMinima to 0
 Setting SaveMinima to 0
 using 48 threads for integral computing
 -------------------------------------------------------
 OpenMP Integral computing Module                
 Release: version 1.0, May 2013, Q-Chem Inc. Pittsburgh 
 -------------------------------------------------------
 -------------------------------------------------------
 OpenMP BLAS3 based DFT computing Module                
 Release: version 1.0, May 2013, Q-Chem Inc. Pittsburgh 
 -------------------------------------------------------
 ---------------------------------------
  Cycle       Energy         DIIS Error
 ---------------------------------------
    1   -1510.0079745726      4.09E-03
    2   -1510.1949464487      9.05E-04
    3   -1510.1890296622      1.51E-03
    4   -1510.1983882544      3.24E-04
    5   -1510.1988631973      6.88E-05
    6   -1510.1988804581      3.53E-05
    7   -1510.1988849224      1.68E-05
    8   -1510.1988861912      2.74E-06
    9   -1510.1988862244      1.58E-06
   10   -1510.1988862348      5.46E-07
   11   -1510.1988862364      1.11E-07
   12   -1510.1988862365      3.68E-08
   13   -1510.1988862366      1.76E-08
   14   -1510.1988862367      7.68E-09 Convergence criterion met
 ---------------------------------------
 SCF time:  CPU 103.08 s  wall 2.15 s
 SCF   energy in the final basis set = -1510.19888624
 Total energy in the final basis set = -1510.19888624
 
 --------------------------------------------------------------
 
                    Orbital Energies (a.u.)
 --------------------------------------------------------------
 
 Alpha MOs
 -- Occupied --
-18.942 -18.940 -18.930 -18.923 -18.896 -18.892 -18.865 -18.862
-18.855 -18.851 -10.103 -10.102 -10.101 -10.098 -10.085 -10.076
-10.073 -10.068 -10.066 -10.061 -10.059 -10.058 -10.039 -10.037
-10.037 -10.035 -10.016 -10.015 -10.013 -10.011  -1.035  -1.031
 -1.026  -1.022  -1.004  -0.999  -0.944  -0.941  -0.934  -0.931
 -0.774  -0.770  -0.737  -0.732  -0.724  -0.715  -0.706  -0.671
 -0.669  -0.631  -0.602  -0.592  -0.550  -0.545  -0.535  -0.531
 -0.519  -0.518  -0.487  -0.487  -0.478  -0.473  -0.455  -0.453
 -0.445  -0.438  -0.433  -0.420  -0.416  -0.415  -0.414  -0.406
 -0.399  -0.388  -0.386  -0.379  -0.374  -0.362  -0.357  -0.351
 -0.346  -0.341  -0.339  -0.334  -0.332  -0.330  -0.323  -0.310
 -0.308  -0.303  -0.299  -0.298  -0.291  -0.288  -0.286  -0.274
 -0.271  -0.250  -0.236  -0.234  -0.231  -0.225  -0.224  -0.190
 -0.171  -0.165  -0.162  -0.150  -0.149  -0.147  -0.142  -0.136
 -0.135
 -- Virtual --
  0.093   0.108   0.115   0.124   0.222   0.244   0.255   0.266
  0.293   0.306   0.313   0.321   0.334   0.338   0.343   0.350
  0.352   0.365   0.374   0.378   0.380   0.385   0.387   0.391
  0.395   0.403   0.404   0.406   0.412   0.413   0.416   0.424
  0.426   0.430   0.431   0.435   0.439   0.441   0.445   0.449
  0.454   0.459   0.464   0.467   0.469   0.474   0.479   0.480
  0.486   0.490   0.496   0.500   0.506   0.526   0.529   0.553
  0.560   0.564   0.568   0.662   0.668   0.673   0.675
 --------------------------------------------------------------
 
          Ground-State Mulliken Net Atomic Charges

     Atom                 Charge (a.u.)
  ----------------------------------------
      1 O                    -0.222577
      2 C                     0.225676
      3 C                    -0.080504
      4 C                    -0.078789
      5 C                     0.218543
      6 O                    -0.178075
      7 C                    -0.046172
      8 C                    -0.037655
      9 O                    -0.187918
     10 C                     0.220877
     11 C                    -0.079775
     12 C                    -0.078880
     13 C                     0.232350
     14 O                    -0.224555
     15 O                    -0.200903
     16 O                    -0.204999
     17 O                    -0.215869
     18 C                    -0.105515
     19 C                     0.036613
     20 C                    -0.142095
     21 C                    -0.145134
     22 C                     0.036975
     23 O                    -0.196995
     24 H                     0.082749
     25 H                     0.085019
     26 H                     0.082327
     27 H                     0.076216
     28 H                     0.072978
     29 H                     0.076695
     30 H                     0.071898
     31 H                     0.091573
     32 O                    -0.213529
     33 C                    -0.104599
     34 C                     0.033960
     35 C                    -0.144288
     36 C                    -0.144760
     37 C                     0.033722
     38 O                    -0.201692
     39 H                     0.085862
     40 H                     0.082587
     41 H                     0.085215
     42 H                     0.090128
     43 H                     0.074436
     44 H                     0.070564
     45 H                     0.075591
     46 H                     0.070972
     47 H                     0.094028
     48 H                     0.086566
     49 H                     0.093482
     50 H                     0.089626
     51 H                     0.084485
     52 H                     0.094098
     53 H                     0.085660
     54 H                     0.097831
     55 H                     0.107188
     56 H                     0.088788
  ----------------------------------------
  Sum of atomic charges =     0.000000

 -----------------------------------------------------------------
                    Cartesian Multipole Moments
 -----------------------------------------------------------------
    Charge (ESU x 10^10)
                 0.0000
    Dipole Moment (Debye)
         X      -0.8024      Y      -0.8197      Z       3.2739
       Tot       3.4690
    Quadrupole Moments (Debye-Ang)
        XX    -140.1066     XY      -4.9212     YY    -148.7599
        XZ       7.8037     YZ       7.5923     ZZ    -168.2564
    Octopole Moments (Debye-Ang^2)
       XXX      -5.5234    XXY     -14.8365    XYY     -34.9258
       YYY     -42.5703    XXZ      44.5778    XYZ      11.9205
       YYZ      -9.3608    XZZ       0.1150    YZZ      -3.6381
       ZZZ      -1.6615
    Hexadecapole Moments (Debye-Ang^3)
      XXXX  -15456.7198   XXXY     -44.3003   XXYY   -2966.5231
      XYYY      27.4265   YYYY   -2256.8784   XXXZ      64.2171
      XXYZ      50.3331   XYYZ      -5.8179   YYYZ      40.5028
      XXZZ   -3182.6008   XYZZ     -67.7867   YYZZ    -653.3006
      XZZZ      55.0549   YZZZ      38.6656   ZZZZ   -1787.6042
 -----------------------------------------------------------------
 Calculating analytic gradient of the SCF energy
 Gradient of SCF Energy
            1           2           3           4           5           6
    1  -0.0119954  -0.0231538   0.0195736  -0.0024549   0.0090417   0.0159713
    2   0.0029444   0.0175468  -0.0093196  -0.0139057   0.0066139   0.0100653
    3  -0.0335493  -0.0206756  -0.0039093  -0.0319925   0.0284512  -0.0392989
            7           8           9          10          11          12
    1   0.0002835   0.0034423  -0.0146637  -0.0023868  -0.0128687  -0.0130965
    2   0.0374115  -0.0209452   0.0230073  -0.0413616   0.0318674   0.0230713
    3   0.0063401   0.0134130  -0.0564632   0.0236886  -0.0332036  -0.0166051
           13          14          15          16          17          18
    1   0.0019894  -0.0072818   0.0381232  -0.0044806   0.0201111   0.0158918
    2  -0.0056036  -0.0184919  -0.0429885   0.0234249   0.0026549   0.0013735
    3   0.0340393   0.0274405   0.0700430  -0.0871076   0.0286544   0.0427866
           19          20          21          22          23          24
    1   0.0243630  -0.0094026  -0.0242686  -0.0352247   0.0202470   0.0003769
    2  -0.0142270  -0.0170984   0.0055994   0.0246593  -0.0364064   0.0024255
    3  -0.0379155  -0.0238913  -0.0045004   0.0242007   0.0374075   0.0061425
           25          26          27          28          29          30
    1   0.0001899   0.0019756   0.0003759   0.0025135   0.0003990   0.0002165
    2  -0.0042447  -0.0009033   0.0052942   0.0004044   0.0093676  -0.0062949
    3  -0.0019726   0.0116360  -0.0056396   0.0051178   0.0021370  -0.0009752
           31          32          33          34          35          36
    1   0.0106417  -0.0235518  -0.0121595   0.0415701   0.0307351  -0.0019756
    2  -0.0064672  -0.0092643   0.0359866   0.0148680  -0.0086830  -0.0298395
    3   0.0038726   0.0180535  -0.0247781  -0.0164286   0.0008028   0.0023281
           37          38          39          40          41          42
    1  -0.0299586  -0.0089037  -0.0060611   0.0056300  -0.0023415  -0.0117864
    2  -0.0358063   0.0300908  -0.0027892  -0.0007725   0.0044754   0.0070555
    3   0.0016492   0.0427911   0.0014014   0.0032409  -0.0009937   0.0054699
           43          44          45          46          47          48
    1   0.0017558  -0.0036854  -0.0059679   0.0027517  -0.0010777   0.0007445
    2  -0.0001595   0.0023222  -0.0020206   0.0027922   0.0139666   0.0040282
    3  -0.0082062   0.0029169  -0.0068322   0.0038040   0.0038811  -0.0027267
           49          50          51          52          53          54
    1   0.0001816  -0.0021590   0.0032510   0.0009096   0.0030370  -0.0064589
    2  -0.0035950  -0.0012421  -0.0002329   0.0019735   0.0003233   0.0030215
    3   0.0007265  -0.0026108   0.0036777   0.0041246   0.0016732  -0.0003735
           55          56
    1  -0.0073119   0.0083838
    2  -0.0142456  -0.0017269
    3   0.0015185  -0.0027808
 Max gradient component =       8.711E-02
 RMS gradient           =       1.953E-02
 Gradient time:  CPU 29.72 s  wall 0.63 s
 Geometry Optimization Parameters
   NAtoms,    NIC,     NZ,  NCons,   NDum,   NFix, NCnnct, MaxDiis
       56     458       0       9       0       0       0       0

 Cartesian Hessian Update
 Hessian Updated using BFGS Update


** CONSTRAINED OPTIMIZATION IN DELOCALIZED INTERNAL COORDINATES **
   Searching for a Minimum

   Optimization Cycle:   2

                       Coordinates (Angstroms)
     ATOM                X               Y               Z
      1  O        -3.8479065730   -1.4396407791    2.0825664057
      2  C        -4.4214475502   -1.0460986455    1.0582042274
      3  C        -4.5701934177    0.4117830649    0.6071678023
      4  C        -3.2848154397    1.2416262561    0.2491802919
      5  C        -1.9199078616    0.5246578678    0.1757293212
      6  O        -1.7678251610   -0.4067893778    1.1862647544
      7  C        -0.4282213849   -0.9493628147    1.2623705574
      8  C         0.4765450722   -0.0530612097    2.1364665754
      9  O         1.8706255315   -0.4410369550    2.0296684228
     10  C         2.4427112720   -0.2245951046    0.7929903878
     11  C         3.9509855499    0.0072653943    0.8964473280
     12  C         4.7837304081   -0.5863998157   -0.2708654085
     13  C         3.9802641475   -0.9985513948   -1.5095426637
     14  O         4.1495823492   -0.5612530403   -2.6555132362
     15  O        -4.9837445494   -1.9652664105    0.1975728518
     16  O         3.1042963774   -2.0376055191   -1.2800462122
     17  O         1.8072312232    0.1729125646   -0.1964304237
     18  C         2.3098359159   -2.5564401650   -2.3145730643
     19  C         4.3529584345    1.5143463514    0.7874774761
     20  C         5.7154489639    1.7179562165    1.4905319135
     21  C         6.6506389247    0.9774605808    0.5197026898
     22  C         5.6585992371    0.6497085397   -0.6301903641
     23  O         4.6986085566    1.7107760200   -0.5872668799
     24  H         4.2923736454   -0.3706913587    1.8842865194
     25  H         5.3722260467   -1.4722176506    0.0464463092
     26  H         3.5875631317    2.2080840246    1.1945156673
     27  H         5.9374195123    2.8040248943    1.4428000407
     28  H         5.7717004724    1.3875126112    2.5458317020
     29  H         7.4401659165    1.6779243584    0.1829401621
     30  H         7.1108223846    0.0536856523    0.9220925023
     31  H         6.1961983688    0.5267263849   -1.5938027150
     32  O        -1.1424197146    0.6277236963   -0.7823432474
     33  C        -4.9104403549   -3.3424714547    0.4593824425
     34  C        -5.3536003471    0.5593976793   -0.7403608393
     35  C        -6.0066017821    1.9601313087   -0.8211830884
     36  C        -4.7786401827    2.8394416431   -1.0652970835
     37  C        -3.6698725801    1.7612704490   -1.1647784125
     38  O        -4.3317701141    0.6294643870   -1.7441536308
     39  H        -5.1511296343    0.8981382089    1.4187415498
     40  H        -3.1386572842    2.0570878535    0.9885989838
     41  H        -5.4112185518   -3.5941400902    1.4205083787
     42  H        -6.1322671728   -0.2167550649   -0.8901459853
     43  H        -6.6421499745    1.9786177429   -1.7301144425
     44  H        -6.6224782141    2.2382536527    0.0559707747
     45  H        -4.8968382028    3.3536444396   -2.0399737546
     46  H        -4.5664273190    3.5841655400   -0.2736493660
     47  H        -2.7998774963    2.1606092472   -1.7269422356
     48  H        -3.8525166961   -3.6844695549    0.5011389946
     49  H        -5.4253189667   -3.8827172252   -0.3608004425
     50  H         1.6872041638   -3.3753295024   -1.9005720238
     51  H         2.9391777099   -2.9673548333   -3.1347982201
     52  H         1.6366771829   -1.7736939195   -2.7291759298
     53  H         0.3801645953    1.0108967967    1.8193889727
     54  H         0.1517438244   -0.1200736943    3.1953787916
     55  H        -0.0395512789   -1.1817590302    0.2493364802
     56  H        -0.4839801125   -1.9409627324    1.7608476013
   Point Group: c1    Number of degrees of freedom:   162


   Energy is  -1510.198886237

              Constraints and their Current Values
                                        Value     Constraint
   Dihedral:        1   2   3   4       63.694       63.772
   Dihedral:        3   4   5   6      -40.390      -40.504
   Dihedral:        4   5   6   7     -171.344     -171.342
   Dihedral:        5   6   7   8       86.528       86.500
   Dihedral:        6   7   8   9     -169.605     -169.643
   Dihedral:        7   8   9  10       67.124       67.145
   Dihedral:        8   9  10  11      152.280      152.342
   Dihedral:        9  10  11  12      143.876      143.847
   Dihedral:       11  12  13  14      121.577      121.578
 Hessian Updated using BFGS Update

   Using Lagrange Multiplier Algorithm


159 Hessian modes will be used to form the next step
  Hessian Eigenvalues:
    -0.977753   -0.977753   -0.977753   -0.977753   -0.977753   -0.977753
    -0.977753   -0.977753   -0.962399    0.044995    0.045000    0.045004
     0.045201    0.045474    0.045568    0.045623    0.047370    0.048861
     0.048878    0.053945    0.059829    0.060145    0.062728    0.063079
     0.066998    0.067030    0.067734    0.067737    0.068901    0.070562
     0.071802    0.073886    0.074128    0.075576    0.075736    0.076781
     0.077848    0.082457    0.082599    0.083389    0.083472    0.083820
     0.084361    0.084502    0.085223    0.085690    0.085748    0.086639
     0.087021    0.087959    0.088790    0.089094    0.089206    0.089808
     0.089957    0.093902    0.093955    0.096641    0.096664    0.111510
     0.111696    0.114644    0.114665    0.115907    0.115938    0.116255
     0.116851    0.118216    0.119284    0.120139    0.123856    0.125157
     0.130856    0.131242    0.131853    0.139248    0.145937    0.159652
     0.161194    0.167744    0.172180    0.173330    0.173520    0.218414
     0.219505    0.222450    0.231795    0.240000    0.240032    0.245707
     0.249201    0.249990    0.255008    0.258507    0.266307    0.267258
     0.270180    0.278485    0.280404    0.282311    0.286492    0.295116
     0.297446    0.301418    0.307787    0.310484    0.312664    0.320717
     0.321623    0.321956    0.322070    0.322673    0.322848    0.323252
     0.323381    0.323683    0.323766    0.323814    0.324051    0.324137
     0.324304    0.324503    0.324597    0.324698    0.324753    0.324859
     0.324951    0.324997    0.325292    0.325296    0.326776    0.326800
     0.327110    0.339947    0.368529    0.368748    0.382373    0.400225
     0.406731    0.469602    0.492547    0.511895    0.515450    0.528685
     0.532586    0.573053    0.921614    0.927416    0.940708    0.943537
     1.022753    1.022753    1.022753    1.022753    1.022753    1.022753
     1.022753    1.022753    1.110698

 Minimum Search - Taking P-RFO Step
 Searching for Lamda that Maximizes Along the Constraint modes Only
 Value Taken    Lamda =   0.00174496
 Searching for Lamda that Minimizes Along All other modes
 Value Taken    Lamda =  -0.11099274
 Calculated Step too Large.  Step scaled by  0.481454
 Step Taken.  Stepsize is  0.300000

                             Maximum     Tolerance    Cnvgd?
         Gradient            0.089791       0.000300      NO
         Displacement        0.119786       0.001200      NO
         Energy change     -0.070106       0.000001      NO


 New Cartesian Coordinates Obtained by Inverse Iteration

 Displacement from previous Coordinates is:  1.247042
 Adding empirical dispersion correction 
 ----------------------------------------------------------------
 Doing -D3(op) with
 s6 =   1.00000
 s8 =   0.78311
 a1 =   0.30000
 a2 =   4.25000
 n  =  10.00000
 -D3 energy without 3body term =     -0.0664924597 hartrees
 ----------------------------------------------------------------
             Standard Nuclear Orientation (Angstroms)
    I     Atom           X                Y                Z
 ----------------------------------------------------------------
    1      O      -3.7173276037    -1.4010051004     2.0494499150
    2      C      -4.3402535425    -1.0307092520     1.0301536529
    3      C      -4.5828808119     0.4351542186     0.5906387736
    4      C      -3.3189067646     1.2950180779     0.2210070559
    5      C      -1.9498709595     0.5563500160     0.1369452280
    6      O      -1.8311013412    -0.3815100211     1.1776867936
    7      C      -0.4888295457    -0.9536933590     1.2617958786
    8      C       0.4496065352    -0.0626521536     2.1372589462
    9      O       1.8558739429    -0.4649941488     2.0511412600
   10      C       2.4252809920    -0.2489424368     0.7860845485
   11      C       3.9503777438    -0.0180646536     0.9076458219
   12      C       4.8002559175    -0.6203375051    -0.2621682895
   13      C       3.9822940569    -1.0482769390    -1.5086179559
   14      O       4.1379560445    -0.6203960820    -2.6727618799
   15      O      -4.8987925492    -1.9517426995     0.1365679068
   16      O       3.1109087304    -2.0996154517    -1.2078816143
   17      O       1.7721294969     0.1219591586    -0.2170187994
   18      C       2.3144549636    -2.5936987096    -2.2910482552
   19      C       4.3470778440     1.5082388780     0.7887907984
   20      C       5.7211654266     1.7097899024     1.5082130796
   21      C       6.6721904458     0.9545853793     0.5331071727
   22      C       5.6800716279     0.6241413697    -0.6385888744
   23      O       4.7028139401     1.7037552098    -0.6086304750
   24      H       4.2856268868    -0.3894942640     1.8958577058
   25      H       5.3901246021    -1.4991386990     0.0640659648
   26      H       3.5740554961     2.2024984250     1.1750577060
   27      H       5.9487837288     2.7906207704     1.4661626983
   28      H       5.7642511011     1.3794120133     2.5602909015
   29      H       7.4678602735     1.6420687811     0.1977900133
   30      H       7.1237430334     0.0346562839     0.9435471219
   31      H       6.2090695131     0.4990146294    -1.6044305268
   32      O      -1.1518835177     0.6534460376    -0.8193400351
   33      C      -4.7073607553    -3.3360311189     0.4507652439
   34      C      -5.4068345794     0.5723088307    -0.7508264308
   35      C      -6.0925906280     1.9794754907    -0.7898810489
   36      C      -4.8660625110     2.8973919519    -1.0487024665
   37      C      -3.7290746856     1.8285710495    -1.1964296426
   38      O      -4.3927087414     0.6760945351    -1.7918133813
   39      H      -5.1578149065     0.9004025828     1.4158542608
   40      H      -3.1772898008     2.1071672113     0.9623875047
   41      H      -5.1614355039    -3.6037226583     1.4308379757
   42      H      -6.1554815985    -0.2302310937    -0.8992239111
   43      H      -6.7533398349     2.0048051094    -1.6750276171
   44      H      -6.6872435372     2.2270578639     0.1061288926
   45      H      -5.0072836741     3.4323726469    -2.0040134265
   46      H      -4.6499500037     3.6256763519    -0.2482842022
   47      H      -2.8698757273     2.2301635910    -1.7700805268
   48      H      -3.6279909772    -3.6050256521     0.4778715210
   49      H      -5.2016594462    -3.9287801089    -0.3439729775
   50      H       1.6835971933    -3.4129297243    -1.8934351150
   51      H       2.9439893858    -2.9953598982    -3.1160003860
   52      H       1.6512351545    -1.8019605533    -2.7050462893
   53      H       0.3631882276     0.9984933767     1.8073977010
   54      H       0.1331583792    -0.1188628223     3.1982324669
   55      H      -0.0840815789    -1.1744786329     0.2516320659
   56      H      -0.5775345555    -1.9424799215     1.7608847597
 ----------------------------------------------------------------
 Molecular Point Group                 C1    NOp =  1
 Largest Abelian Subgroup              C1    NOp =  1
 Nuclear Repulsion Energy =  3115.0633909612 hartrees
 There are      113 alpha and      113 beta electrons
 Applying Cartesian multipole field
    Component          Value
    ---------          -----
     (2,0,0)        1.00000E-12
     (0,2,0)        2.00000E-11
     (0,0,2)       -3.00000E-11
 Nucleus-field energy     =     0.0000000087 hartrees
 Requested basis set is STO-3G
 There are 86 shells and 176 basis functions
 A cutoff of  1.0D-12 yielded   2080 shell pairs
 There are      9802 function pairs
 Smallest overlap matrix eigenvalue = 2.07E-01
 Guess MOs from SCF MO coefficient file
 Reading MOs from coefficient file
 Reading MOs from coefficient file
 A restricted hybrid HF-DFT SCF calculation will be
 performed using Pulay DIIS extrapolation
 Exchange:     0.2000 Hartree-Fock + 0.0800 Slater + 0.7200 B88
 Correlation:  0.1900 VWN1RPA + 0.8100 LYP
 Using SG-1 standard quadrature grid
 Dispersion:   Grimme D3
 SCF converges when DIIS error is below 1.0E-08
 Geometry optimization detected.  Setting ReadMinima to 0
 Setting SaveMinima to 0
 using 48 threads for integral computing
 -------------------------------------------------------
 OpenMP Integral computing Module                
 Release: version 1.0, May 2013, Q-Chem Inc. Pittsburgh 
 -------------------------------------------------------
 -------------------------------------------------------
 OpenMP BLAS3 based DFT computing Module                
 Release: version 1.0, May 2013, Q-Chem Inc. Pittsburgh 
 -------------------------------------------------------
 ---------------------------------------
  Cycle       Energy         DIIS Error
 ---------------------------------------
    1   -1510.0781586243      3.10E-03
    2   -1510.2336295501      9.20E-04
    3   -1510.2268010806      1.57E-03
    4   -1510.2371043720      3.00E-04
    5   -1510.2375050072      6.94E-05
    6   -1510.2375213013      3.78E-05
    7   -1510.2375269993      1.28E-05
    8   -1510.2375277333      2.76E-06
    9   -1510.2375277592      1.90E-06
   10   -1510.2375277750      3.70E-07
   11   -1510.2375277757      9.34E-08
   12   -1510.2375277758      3.09E-08
   13   -1510.2375277758      2.59E-08
   14   -1510.2375277759      7.97E-09 Convergence criterion met
 ---------------------------------------
 SCF time:  CPU 99.66 s  wall 2.08 s
 SCF   energy in the final basis set = -1510.23752778
 Total energy in the final basis set = -1510.23752778
 
 --------------------------------------------------------------
 
                    Orbital Energies (a.u.)
 --------------------------------------------------------------
 
 Alpha MOs
 -- Occupied --
-18.938 -18.937 -18.933 -18.927 -18.894 -18.890 -18.868 -18.865
-18.860 -18.856 -10.100 -10.097 -10.096 -10.094 -10.080 -10.071
-10.069 -10.064 -10.063 -10.059 -10.057 -10.056 -10.037 -10.036
-10.036 -10.035 -10.017 -10.016 -10.014 -10.013  -1.024  -1.021
 -1.014  -1.012  -0.987  -0.983  -0.939  -0.936  -0.928  -0.928
 -0.768  -0.765  -0.730  -0.726  -0.717  -0.708  -0.699  -0.665
 -0.663  -0.624  -0.598  -0.588  -0.548  -0.544  -0.535  -0.531
 -0.515  -0.514  -0.482  -0.481  -0.472  -0.466  -0.451  -0.449
 -0.439  -0.433  -0.429  -0.415  -0.412  -0.410  -0.409  -0.399
 -0.393  -0.384  -0.382  -0.375  -0.367  -0.358  -0.352  -0.347
 -0.341  -0.338  -0.337  -0.334  -0.330  -0.328  -0.324  -0.309
 -0.307  -0.301  -0.300  -0.296  -0.290  -0.286  -0.284  -0.273
 -0.268  -0.251  -0.241  -0.235  -0.234  -0.231  -0.229  -0.189
 -0.172  -0.166  -0.161  -0.149  -0.147  -0.147  -0.142  -0.138
 -0.136
 -- Virtual --
  0.089   0.105   0.110   0.117   0.217   0.242   0.251   0.262
  0.284   0.295   0.304   0.308   0.323   0.328   0.343   0.344
  0.346   0.352   0.362   0.366   0.366   0.372   0.376   0.380
  0.385   0.392   0.397   0.405   0.407   0.412   0.415   0.416
  0.421   0.423   0.424   0.429   0.435   0.437   0.439   0.443
  0.444   0.449   0.450   0.453   0.460   0.466   0.469   0.473
  0.473   0.479   0.483   0.490   0.496   0.518   0.521   0.546
  0.552   0.555   0.558   0.646   0.651   0.656   0.657
 --------------------------------------------------------------
 
          Ground-State Mulliken Net Atomic Charges

     Atom                 Charge (a.u.)
  ----------------------------------------
      1 O                    -0.212464
      2 C                     0.215768
      3 C                    -0.080351
      4 C                    -0.078515
      5 C                     0.209053
      6 O                    -0.169966
      7 C                    -0.050208
      8 C                    -0.042292
      9 O                    -0.181455
     10 C                     0.212778
     11 C                    -0.079312
     12 C                    -0.078371
     13 C                     0.222467
     14 O                    -0.217009
     15 O                    -0.186624
     16 O                    -0.191140
     17 O                    -0.209442
     18 C                    -0.114499
     19 C                     0.031944
     20 C                    -0.143024
     21 C                    -0.145766
     22 C                     0.031781
     23 O                    -0.189277
     24 H                     0.083839
     25 H                     0.084499
     26 H                     0.082339
     27 H                     0.076650
     28 H                     0.073691
     29 H                     0.076900
     30 H                     0.072484
     31 H                     0.090819
     32 O                    -0.207075
     33 C                    -0.113690
     34 C                     0.029537
     35 C                    -0.144998
     36 C                    -0.145367
     37 C                     0.029447
     38 O                    -0.194312
     39 H                     0.084611
     40 H                     0.082491
     41 H                     0.085728
     42 H                     0.089881
     43 H                     0.075163
     44 H                     0.071440
     45 H                     0.076179
     46 H                     0.071763
     47 H                     0.092643
     48 H                     0.086786
     49 H                     0.092269
     50 H                     0.088716
     51 H                     0.085346
     52 H                     0.094842
     53 H                     0.084384
     54 H                     0.095580
     55 H                     0.105691
     56 H                     0.087646
  ----------------------------------------
  Sum of atomic charges =    -0.000000

 -----------------------------------------------------------------
                    Cartesian Multipole Moments
 -----------------------------------------------------------------
    Charge (ESU x 10^10)
                 0.0000
    Dipole Moment (Debye)
         X      -0.7361      Y      -0.7981      Z       3.2755
       Tot       3.4508
    Quadrupole Moments (Debye-Ang)
        XX    -140.1133     XY      -5.0177     YY    -148.5042
        XZ       6.8429     YZ       7.2680     ZZ    -168.1130
    Octopole Moments (Debye-Ang^2)
       XXX       3.3397    XXY     -11.0907    XYY     -35.4331
       YYY     -41.3838    XXZ      47.9381    XYZ      13.2568
       YYZ      -8.3634    XZZ       0.8667    YZZ      -4.4590
       ZZZ       1.6222
    Hexadecapole Moments (Debye-Ang^3)
      XXXX  -15466.9287   XXXY       0.0308   XXYY   -2982.9639
      XYYY     100.8660   YYYY   -2294.1943   XXXZ      27.5175
      XXYZ      44.7640   XYYZ     -16.5133   YYYZ      36.4788
      XXZZ   -3174.7079   XYZZ     -34.0330   YYZZ    -656.9511
      XZZZ      16.9181   YZZZ      34.7906   ZZZZ   -1782.9687
 -----------------------------------------------------------------
 Calculating analytic gradient of the SCF energy
 Gradient of SCF Energy
            1           2           3           4           5           6
    1   0.0078407  -0.0164486   0.0161645  -0.0047900   0.0016221  -0.0035643
    2   0.0024429   0.0124146  -0.0025497  -0.0094042   0.0067504  -0.0032534
    3  -0.0104123  -0.0218483  -0.0002265  -0.0196402   0.0275281  -0.0200513
            7           8           9          10          11          12
    1  -0.0012018   0.0031177  -0.0095401   0.0041582  -0.0071920  -0.0069820
    2   0.0272480  -0.0136642   0.0155597  -0.0403130   0.0211658   0.0103551
    3   0.0027101   0.0147565  -0.0333300   0.0209026  -0.0170138  -0.0086935
           13          14          15          16          17          18
    1  -0.0026982  -0.0005617   0.0238348  -0.0030322   0.0059427   0.0110137
    2  -0.0065659  -0.0057871  -0.0233531   0.0139237   0.0087293   0.0010786
    3   0.0297825   0.0042520   0.0399674  -0.0504559   0.0078089   0.0279455
           19          20          21          22          23          24
    1   0.0103973  -0.0056034  -0.0077293  -0.0210443   0.0106620   0.0004910
    2  -0.0053655  -0.0095880   0.0003954   0.0161073  -0.0177804   0.0030300
    3  -0.0239184  -0.0074521  -0.0024678   0.0088600   0.0181629   0.0034889
           25          26          27          28          29          30
    1  -0.0005281   0.0020461  -0.0004199   0.0021498  -0.0011024  -0.0000163
    2  -0.0027835  -0.0014468   0.0021770   0.0021792   0.0057446  -0.0031879
    3  -0.0019584   0.0094774  -0.0043925   0.0026115   0.0021070  -0.0017987
           31          32          33          34          35          36
    1   0.0082507  -0.0084809  -0.0097393   0.0235869   0.0114233   0.0011512
    2  -0.0058465  -0.0048106   0.0232550   0.0048341  -0.0042828  -0.0102716
    3   0.0040786   0.0000597  -0.0159536  -0.0130815   0.0035961   0.0017650
           37          38          39          40          41          42
    1  -0.0143985  -0.0040945  -0.0046503   0.0037974  -0.0017375  -0.0086586
    2  -0.0226667   0.0146569  -0.0023485  -0.0010583   0.0011033   0.0056997
    3  -0.0028313   0.0217736   0.0002194   0.0025122   0.0002639   0.0054115
           43          44          45          46          47          48
    1   0.0022573  -0.0029089  -0.0039136   0.0021586  -0.0010456   0.0010931
    2  -0.0005143   0.0012081  -0.0023860   0.0014156   0.0108267   0.0011027
    3  -0.0045115   0.0000316  -0.0032300   0.0008480   0.0043775  -0.0014068
           49          50          51          52          53          54
    1   0.0002586  -0.0016385   0.0015625  -0.0005788   0.0023255  -0.0046614
    2  -0.0026778  -0.0009370  -0.0009730   0.0011315   0.0006949   0.0025618
    3   0.0004888  -0.0019015   0.0006815   0.0011937   0.0008976  -0.0006476
           55          56
    1  -0.0049755   0.0066309
    2  -0.0118495  -0.0021268
    3   0.0007688  -0.0021056
 Max gradient component =       5.046E-02
 RMS gradient           =       1.177E-02
 Gradient time:  CPU 29.93 s  wall 0.63 s
 Geometry Optimization Parameters
   NAtoms,    NIC,     NZ,  NCons,   NDum,   NFix, NCnnct, MaxDiis
       56     458       0       9       0       0       0       0

 Cartesian Hessian Update
 Hessian Updated using BFGS Update


** CONSTRAINED OPTIMIZATION IN DELOCALIZED INTERNAL COORDINATES **
   Searching for a Minimum

   Optimization Cycle:   3

                       Coordinates (Angstroms)
     ATOM                X               Y               Z
      1  O        -3.7173276037   -1.4010051004    2.0494499150
      2  C        -4.3402535425   -1.0307092520    1.0301536529
      3  C        -4.5828808119    0.4351542186    0.5906387736
      4  C        -3.3189067646    1.2950180779    0.2210070559
      5  C        -1.9498709595    0.5563500160    0.1369452280
      6  O        -1.8311013412   -0.3815100211    1.1776867936
      7  C        -0.4888295457   -0.9536933590    1.2617958786
      8  C         0.4496065352   -0.0626521536    2.1372589462
      9  O         1.8558739429   -0.4649941488    2.0511412600
     10  C         2.4252809920   -0.2489424368    0.7860845485
     11  C         3.9503777438   -0.0180646536    0.9076458219
     12  C         4.8002559175   -0.6203375051   -0.2621682895
     13  C         3.9822940569   -1.0482769390   -1.5086179559
     14  O         4.1379560445   -0.6203960820   -2.6727618799
     15  O        -4.8987925492   -1.9517426995    0.1365679068
     16  O         3.1109087304   -2.0996154517   -1.2078816143
     17  O         1.7721294969    0.1219591586   -0.2170187994
     18  C         2.3144549636   -2.5936987096   -2.2910482552
     19  C         4.3470778440    1.5082388780    0.7887907984
     20  C         5.7211654266    1.7097899024    1.5082130796
     21  C         6.6721904458    0.9545853793    0.5331071727
     22  C         5.6800716279    0.6241413697   -0.6385888744
     23  O         4.7028139401    1.7037552098   -0.6086304750
     24  H         4.2856268868   -0.3894942640    1.8958577058
     25  H         5.3901246021   -1.4991386990    0.0640659648
     26  H         3.5740554961    2.2024984250    1.1750577060
     27  H         5.9487837288    2.7906207704    1.4661626983
     28  H         5.7642511011    1.3794120133    2.5602909015
     29  H         7.4678602735    1.6420687811    0.1977900133
     30  H         7.1237430334    0.0346562839    0.9435471219
     31  H         6.2090695131    0.4990146294   -1.6044305268
     32  O        -1.1518835177    0.6534460376   -0.8193400351
     33  C        -4.7073607553   -3.3360311189    0.4507652439
     34  C        -5.4068345794    0.5723088307   -0.7508264308
     35  C        -6.0925906280    1.9794754907   -0.7898810489
     36  C        -4.8660625110    2.8973919519   -1.0487024665
     37  C        -3.7290746856    1.8285710495   -1.1964296426
     38  O        -4.3927087414    0.6760945351   -1.7918133813
     39  H        -5.1578149065    0.9004025828    1.4158542608
     40  H        -3.1772898008    2.1071672113    0.9623875047
     41  H        -5.1614355039   -3.6037226583    1.4308379757
     42  H        -6.1554815985   -0.2302310937   -0.8992239111
     43  H        -6.7533398349    2.0048051094   -1.6750276171
     44  H        -6.6872435372    2.2270578639    0.1061288926
     45  H        -5.0072836741    3.4323726469   -2.0040134265
     46  H        -4.6499500037    3.6256763519   -0.2482842022
     47  H        -2.8698757273    2.2301635910   -1.7700805268
     48  H        -3.6279909772   -3.6050256521    0.4778715210
     49  H        -5.2016594462   -3.9287801089   -0.3439729775
     50  H         1.6835971933   -3.4129297243   -1.8934351150
     51  H         2.9439893858   -2.9953598982   -3.1160003860
     52  H         1.6512351545   -1.8019605533   -2.7050462893
     53  H         0.3631882276    0.9984933767    1.8073977010
     54  H         0.1331583792   -0.1188628223    3.1982324669
     55  H        -0.0840815789   -1.1744786329    0.2516320659
     56  H        -0.5775345555   -1.9424799215    1.7608847597
   Point Group: c1    Number of degrees of freedom:   162


   Energy is  -1510.237527776

              Constraints and their Current Values
                                        Value     Constraint
   Dihedral:        1   2   3   4       63.826       63.772
   Dihedral:        3   4   5   6      -40.555      -40.504
   Dihedral:        4   5   6   7     -171.339     -171.342
   Dihedral:        5   6   7   8       86.515       86.500
   Dihedral:        6   7   8   9     -169.629     -169.643
   Dihedral:        7   8   9  10       67.144       67.145
   Dihedral:        8   9  10  11      152.313      152.342
   Dihedral:        9  10  11  12      143.858      143.847
   Dihedral:       11  12  13  14      121.583      121.578
 Hessian Updated using BFGS Update

   Using Lagrange Multiplier Algorithm


162 Hessian modes will be used to form the next step
  Hessian Eigenvalues:
    -0.977753   -0.977753   -0.977753   -0.977753   -0.977753   -0.977753
    -0.977753   -0.977317   -0.963343    0.044984    0.045000    0.045000
     0.045008    0.045205    0.045466    0.045578    0.045613    0.047389
     0.048862    0.048878    0.053942    0.059416    0.060012    0.062714
     0.062996    0.066992    0.067030    0.067730    0.067763    0.068872
     0.070586    0.071779    0.073872    0.074059    0.075600    0.075782
     0.076835    0.078819    0.082465    0.082609    0.083454    0.083581
     0.083904    0.084393    0.084824    0.085211    0.085724    0.086219
     0.086960    0.087231    0.088739    0.089042    0.089174    0.089637
     0.089932    0.090628    0.093833    0.093915    0.096630    0.096661
     0.111543    0.111700    0.114655    0.114683    0.115908    0.115938
     0.116217    0.117935    0.118112    0.119273    0.120751    0.123860
     0.125155    0.130950    0.131272    0.131829    0.139479    0.156428
     0.159673    0.160006    0.161644    0.171358    0.172173    0.173471
     0.199390    0.218386    0.220624    0.221322    0.232435    0.240014
     0.240042    0.245747    0.249317    0.249993    0.254059    0.256653
     0.259346    0.266988    0.267382    0.277753    0.280383    0.282269
     0.286132    0.295103    0.297313    0.301382    0.307302    0.310290
     0.310717    0.318533    0.320855    0.321908    0.322044    0.322294
     0.322809    0.323087    0.323371    0.323560    0.323721    0.323797
     0.323826    0.324093    0.324230    0.324348    0.324499    0.324630
     0.324699    0.324831    0.324927    0.324995    0.325283    0.325295
     0.326721    0.326797    0.327094    0.330537    0.368418    0.368608
     0.379330    0.395430    0.400553    0.408245    0.452644    0.492559
     0.502494    0.520473    0.528683    0.535998    0.570130    0.927133
     0.931227    0.942465    0.992589    1.022753    1.022753    1.022753
     1.022753    1.022753    1.022753    1.022753    1.027741    1.072226

 Minimum Search - Taking P-RFO Step
 Searching for Lamda that Maximizes Along the Constraint modes Only
 Value Taken    Lamda =   0.00176767
 Searching for Lamda that Minimizes Along All other modes
 Value Taken    Lamda =  -0.04639011
 Calculated Step too Large.  Step scaled by  0.644747
 Step Taken.  Stepsize is  0.300000

                             Maximum     Tolerance    Cnvgd?
         Gradient            0.045384       0.000300      NO
         Displacement        0.084675       0.001200      NO
         Energy change     -0.038642       0.000001      NO


 New Cartesian Coordinates Obtained by Inverse Iteration

 Displacement from previous Coordinates is:  1.956838
 Adding empirical dispersion correction 
 ----------------------------------------------------------------
 Doing -D3(op) with
 s6 =   1.00000
 s8 =   0.78311
 a1 =   0.30000
 a2 =   4.25000
 n  =  10.00000
 -D3 energy without 3body term =     -0.0661456696 hartrees
 ----------------------------------------------------------------
             Standard Nuclear Orientation (Angstroms)
    I     Atom           X                Y                Z
 ----------------------------------------------------------------
    1      O      -3.9287440002    -1.4768197572     2.0981553784
    2      C      -4.4816027861    -1.0589123375     1.0565552186
    3      C      -4.6072340777     0.4276734751     0.5850866793
    4      C      -3.2804784312     1.2261674881     0.2440805857
    5      C      -1.9113009780     0.4562069609     0.1821628876
    6      O      -1.8081709046    -0.5039222063     1.2228480424
    7      C      -0.4519953134    -1.0701156060     1.2818345274
    8      C       0.4908618699    -0.1792581632     2.1696099336
    9      O       1.9150166508    -0.5527761418     2.0759635203
   10      C       2.4466879066    -0.2857652022     0.7842462985
   11      C       3.9749337791    -0.0145779777     0.9003315191
   12      C       4.8330290078    -0.5634736442    -0.2992420731
   13      C       3.9854798163    -1.0131184195    -1.5349530198
   14      O       4.0700503553    -0.5753481092    -2.7031553061
   15      O      -5.0875464849    -1.9335359434     0.1204476254
   16      O       3.1690432463    -2.1120902955    -1.1737076248
   17      O       1.7482733962     0.0419429483    -0.2049775179
   18      C       2.3590609645    -2.5680413878    -2.2969879973
   19      C       4.3054102585     1.5389827025     0.7988828279
   20      C       5.6922562352     1.7762732677     1.5007048342
   21      C       6.6571691247     1.0699637706     0.4890524232
   22      C       5.6563977687     0.7241419515    -0.6813393611
   23      O       4.6273273540     1.7760117507    -0.6159207167
   24      H       4.3366596209    -0.3930301260     1.8737576788
   25      H       5.4651644215    -1.4197154070     0.0023199635
   26      H       3.5043839984     2.1965797922     1.1896235832
   27      H       5.8868990992     2.8623536087     1.4866656740
   28      H       5.7574236413     1.4188473306     2.5411764200
   29      H       7.4279578559     1.7811029647     0.1502222138
   30      H       7.1437021293     0.1616169095     0.8803837510
   31      H       6.1505574550     0.6428434712    -1.6689123395
[...]
     15  O        -5.0329188966   -1.8945698418    0.0699632338
     16  O         3.4419077271   -2.3423004796   -0.9705366391
     17  O         1.8073627496   -0.1260966366   -0.3561616960
     18  C         2.5652123365   -2.9393156284   -2.0028318235
     19  C         4.2704955039    1.5125352245    0.9548473669
     20  C         5.7324080147    1.7304100949    1.5142988538
     21  C         6.6003493647    1.3208636576    0.2664859225
     22  C         5.4772326655    0.9078774543   -0.7622340316
     23  O         4.3821552993    1.8661587517   -0.4764637501
     24  H         4.2899269019   -0.5489872384    1.8537096782
     25  H         5.6596612022   -1.1928923804    0.0046337472
     26  H         3.4829764831    2.1167877048    1.4458420427
     27  H         5.8867532708    2.7866005298    1.7864982613
     28  H         5.9347385707    1.1042362743    2.3980283466
     29  H         7.1773327528    2.1758865507   -0.1200547892
     30  H         7.2950898343    0.4933391326    0.4816181293
     31  H         5.7568077305    0.9520980241   -1.8327630313
     32  O        -1.0274580865    0.8238942219   -0.6641199226
     33  C        -4.9036954721   -3.2886378597    0.5514342058
     34  C        -5.3790163960    0.6681734377   -0.8669186949
     35  C        -6.0430182183    2.1008708810   -0.8758750534
     36  C        -4.7686346166    3.0170034817   -0.9959277609
     37  C        -3.6241106462    1.9377937915   -1.1338313543
     38  O        -4.2743916054    0.8085043313   -1.8414140467
     39  H        -5.2164247719    1.0231554943    1.3171998588
     40  H        -3.1648651081    2.0669891120    1.0684752823
     41  H        -5.4900305083   -3.4589090853    1.4777114296
     42  H        -6.0417868733   -0.1729053642   -1.1452212264
     43  H        -6.7008086497    2.2118424288   -1.7527531658
     44  H        -6.6310075062    2.2989600445    0.0346482617
     45  H        -4.8093847676    3.6538557585   -1.8935330538
     46  H        -4.6235698852    3.6605863084   -0.1133498093
     47  H        -2.7144358691    2.2620601983   -1.6762759691
     48  H        -3.8455734772   -3.5528614588    0.7531855416
     49  H        -5.2980348876   -3.9288778628   -0.2590384248
     50  H         2.2031094476   -3.8962003054   -1.5838368574
     51  H         3.1128359350   -3.1282408212   -2.9484264461
     52  H         1.7006704745   -2.2783758610   -2.2207315301
     53  H         0.3097973677    0.7331022302    1.8688390169
     54  H         0.1656238571   -0.5632892273    3.1171744890
     55  H        -0.0367319452   -1.0802612020    0.0615748799
     56  H        -0.6061736493   -2.2037237884    1.3907703217
   Point Group: c1    Number of degrees of freedom:   162


   Energy is  -1510.271396663

              Constraints and their Current Values
                                        Value     Constraint
   Dihedral:        1   2   3   4       63.772       63.772
   Dihedral:        3   4   5   6      -40.504      -40.504
   Dihedral:        4   5   6   7     -171.342     -171.342
   Dihedral:        5   6   7   8       86.500       86.500
   Dihedral:        6   7   8   9     -169.643     -169.643
   Dihedral:        7   8   9  10       67.145       67.145
   Dihedral:        8   9  10  11      152.342      152.342
   Dihedral:        9  10  11  12      143.847      143.847
   Dihedral:       11  12  13  14      121.578      121.578
 Hessian Updated using BFGS Update

153 Hessian modes will be used to form the next step
  Hessian Eigenvalues:
     0.002470    0.005585    0.010194    0.020479    0.040519    0.045007
     0.045010    0.045087    0.045165    0.045943    0.048429    0.050183
     0.052524    0.054902    0.056016    0.060678    0.063035    0.066904
     0.066934    0.067368    0.067741    0.068548    0.070031    0.070370
     0.073244    0.074068    0.075683    0.075732    0.077848    0.078974
     0.082367    0.082537    0.083470    0.083798    0.084325    0.084877
     0.085016    0.085501    0.085973    0.086306    0.087310    0.087447
     0.088904    0.089131    0.089617    0.089799    0.090978    0.092227
     0.093938    0.094619    0.096668    0.097291    0.111584    0.111856
     0.114667    0.115003    0.115907    0.115937    0.117018    0.118101
     0.119266    0.119729    0.120991    0.123961    0.125846    0.131568
     0.132012    0.132056    0.157312    0.158895    0.160000    0.160006
     0.160013    0.160223    0.161909    0.162602    0.171830    0.173455
     0.191512    0.203963    0.218805    0.223694    0.234087    0.239793
     0.241208    0.246192    0.249642    0.249703    0.250116    0.250222
     0.251324    0.254067    0.256446    0.266151    0.267376    0.273243
     0.280323    0.280673    0.282883    0.293786    0.295149    0.298534
     0.302602    0.307613    0.310130    0.315397    0.320072    0.320250
     0.321880    0.322019    0.322137    0.322493    0.322864    0.323150
     0.323367    0.323626    0.323775    0.323922    0.324094    0.324164
     0.324300    0.324525    0.324595    0.324724    0.324840    0.324924
     0.325111    0.325231    0.325339    0.326032    0.326310    0.326802
     0.328758    0.337536    0.344465    0.367945    0.368748    0.379004
     0.381951    0.414468    0.431690    0.487467    0.492643    0.505946
     0.528276    0.530620    0.547927    0.644228    0.702311    0.927686
     0.932877    0.942813    1.006211

 Minimum Search - Taking Simple RFO Step
 Searching for Lamda that Minimizes Along All modes
 Value Taken    Lamda =  -0.00000224
 Step Taken.  Stepsize is  0.015185

                             Maximum     Tolerance    Cnvgd?
         Gradient           0.000084      0.000300     YES
         Displacement       0.007188      0.001200      NO
         Energy change     -0.000001      0.000001     YES

 Final energy is   -1510.27139666268     


 ******************************
 **  OPTIMIZATION CONVERGED  **
 ******************************

                       Coordinates (Angstroms)
     ATOM                X               Y               Z
      1  O        -4.0504844206   -1.3623757058    2.1529667326
      2  C        -4.5255262112   -0.9892962612    1.0588862018
      3  C        -4.6473165141    0.4869985963    0.5340689149
      4  C        -3.3019491916    1.3003658320    0.2829934677
      5  C        -1.9378058228    0.5196899492    0.1380301894
      6  O        -1.8518985542   -0.5557729164    1.0740206890
      7  C        -0.4934917704   -1.1490859388    1.0728739258
      8  C         0.4439153125   -0.3535576490    2.0649259493
      9  O         1.8813101639   -0.7100065398    1.9598392033
     10  C         2.4494784012   -0.3076372700    0.7027023566
     11  C         3.9784596339   -0.0525315751    0.9183870730
     12  C         4.8722146315   -0.4862054268   -0.3153902178
     13  C         4.0555386424   -1.1503770704   -1.4819149302
     14  O         3.9828610481   -0.7707920188   -2.6690021397
     15  O        -5.0329188966   -1.8945698418    0.0699632338
     16  O         3.4419077271   -2.3423004796   -0.9705366391
     17  O         1.8073627496   -0.1260966366   -0.3561616960
     18  C         2.5652123365   -2.9393156284   -2.0028318235
     19  C         4.2704955039    1.5125352245    0.9548473669
     20  C         5.7324080147    1.7304100949    1.5142988538
     21  C         6.6003493647    1.3208636576    0.2664859225
     22  C         5.4772326655    0.9078774543   -0.7622340316
     23  O         4.3821552993    1.8661587517   -0.4764637501
     24  H         4.2899269019   -0.5489872384    1.8537096782
     25  H         5.6596612022   -1.1928923804    0.0046337472
     26  H         3.4829764831    2.1167877048    1.4458420427
     27  H         5.8867532708    2.7866005298    1.7864982613
     28  H         5.9347385707    1.1042362743    2.3980283466
     29  H         7.1773327528    2.1758865507   -0.1200547892
     30  H         7.2950898343    0.4933391326    0.4816181293
     31  H         5.7568077305    0.9520980241   -1.8327630313
     32  O        -1.0274580865    0.8238942219   -0.6641199226
     33  C        -4.9036954721   -3.2886378597    0.5514342058
     34  C        -5.3790163960    0.6681734377   -0.8669186949
     35  C        -6.0430182183    2.1008708810   -0.8758750534
     36  C        -4.7686346166    3.0170034817   -0.9959277609
     37  C        -3.6241106462    1.9377937915   -1.1338313543
     38  O        -4.2743916054    0.8085043313   -1.8414140467
     39  H        -5.2164247719    1.0231554943    1.3171998588
     40  H        -3.1648651081    2.0669891120    1.0684752823
     41  H        -5.4900305083   -3.4589090853    1.4777114296
     42  H        -6.0417868733   -0.1729053642   -1.1452212264
     43  H        -6.7008086497    2.2118424288   -1.7527531658
     44  H        -6.6310075062    2.2989600445    0.0346482617
     45  H        -4.8093847676    3.6538557585   -1.8935330538
     46  H        -4.6235698852    3.6605863084   -0.1133498093
     47  H        -2.7144358691    2.2620601983   -1.6762759691
     48  H        -3.8455734772   -3.5528614588    0.7531855416
     49  H        -5.2980348876   -3.9288778628   -0.2590384248
     50  H         2.2031094476   -3.8962003054   -1.5838368574
     51  H         3.1128359350   -3.1282408212   -2.9484264461
     52  H         1.7006704745   -2.2783758610   -2.2207315301
     53  H         0.3097973677    0.7331022302    1.8688390169
     54  H         0.1656238571   -0.5632892273    3.1171744890
     55  H        -0.0367319452   -1.0802612020    0.0615748799
     56  H        -0.6061736493   -2.2037237884    1.3907703217

Z-matrix Print:
$molecule
0 1
O 
C  1 1.251584
O  2 1.437049 1 125.301026
C  3 1.484656 2 112.177797 1 -24.115501 0
H  4 1.108450 3 105.357275 2 -171.318429 0
H  4 1.112325 3 109.804218 2 -54.335266 0
C  2 1.565050 1 126.453344 3 -175.813595 0
H  7 1.103770 2 108.611396 1 -165.289961 0
C  4 1.579799 3 114.150471 2 67.144962 0
H  9 1.107256 4 111.083559 3 72.430137 0
H  9 1.111797 4 107.232552 3 -49.285468 0
O  9 1.482326 4 109.982042 3 -169.643010 0
C  12 1.428313 9 110.854088 4 86.500030 0
O  13 1.250887 12 124.026043 9 6.649210 0
C  13 1.578403 12 111.358940 9 -171.341997 0
H  15 1.106113 13 107.511985 12 86.091384 0
C  7 1.584007 2 113.532164 1 -39.747526 0
H  17 1.105393 7 110.577645 2 -124.917388 0
C  17 1.571262 7 113.623439 2 -2.817189 0
O  19 1.248416 17 127.421677 7 121.577988 0
O  19 1.434828 17 107.988456 7 -61.542985 0
C  21 1.480086 19 109.866051 17 175.081656 0
H  22 1.105578 21 106.188136 19 174.731805 0
H  22 1.108934 21 111.773401 19 55.106215 0
H  22 1.109844 21 110.985320 19 -66.279761 0
C  17 1.584040 7 101.202492 2 116.418783 0
H  26 1.107317 17 113.847213 7 -153.941860 0
O  26 1.482957 17 103.432515 7 -34.235026 0
C  28 1.478570 26 95.034859 17 56.639989 0
H  29 1.107422 28 110.634274 26 179.727862 0
C  26 1.578041 17 108.558151 7 75.064974 0
H  31 1.101539 26 110.314803 17 168.660766 0
H  31 1.101700 26 112.304776 17 47.185704 0
C  31 1.574194 26 101.093784 17 -73.355241 0
H  34 1.101569 31 111.596157 26 -118.896629 0
H  34 1.101821 31 112.747433 26 118.399395 0
C  15 1.586662 13 106.987997 12 -152.980372 0
H  37 1.107657 15 112.840107 13 -34.842338 0
O  37 1.482846 15 102.074849 13 83.700996 0
C  39 1.479706 37 94.895671 15 59.639243 0
H  40 1.106404 39 110.709169 37 -178.139975 0
C  40 1.579114 39 102.951363 37 57.412108 0
H  42 1.101780 40 110.300190 39 79.551420 0
H  42 1.101827 40 112.508476 39 -158.864653 0
C  42 1.574092 40 100.838836 39 -38.224521 0
H  45 1.101334 42 111.638704 40 121.387079 0
H  45 1.101901 42 112.670205 40 -116.017354 0
C  40 1.590904 39 104.324453 37 -54.812960 0
H  48 1.106636 40 109.359137 39 142.169049 0
C  48 1.571532 40 115.894171 39 -99.450691 0
O  50 1.249746 48 127.031016 40 -176.404172 0
O  50 1.433505 48 109.598556 40 4.501840 0
C  52 1.480520 50 109.839998 48 179.231551 0
H  53 1.105566 52 106.007082 50 -179.266581 0
H  53 1.109117 52 111.514884 50 -60.027054 0
H  53 1.109401 52 111.710200 50 61.459374 0
$end

 
 --------------------------------------------------------------
 
                    Orbital Energies (a.u.)
 --------------------------------------------------------------
 
 Alpha MOs
 -- Occupied --
-18.933 -18.932 -18.931 -18.925 -18.887 -18.883 -18.881 -18.874
-18.870 -18.870 -10.103 -10.097 -10.096 -10.093 -10.073 -10.063
-10.062 -10.061 -10.057 -10.056 -10.054 -10.053 -10.037 -10.037
-10.034 -10.034 -10.021 -10.019 -10.017 -10.016  -1.015  -1.010
 -1.005  -1.002  -0.969  -0.965  -0.941  -0.935  -0.930  -0.929
 -0.762  -0.759  -0.725  -0.719  -0.709  -0.703  -0.694  -0.658
 -0.656  -0.618  -0.596  -0.584  -0.545  -0.539  -0.536  -0.533
 -0.510  -0.509  -0.480  -0.474  -0.464  -0.459  -0.451  -0.443
 -0.432  -0.429  -0.425  -0.409  -0.408  -0.406  -0.406  -0.394
 -0.387  -0.377  -0.376  -0.368  -0.358  -0.357  -0.351  -0.345
 -0.342  -0.335  -0.333  -0.331  -0.326  -0.325  -0.323  -0.311
 -0.309  -0.303  -0.302  -0.293  -0.291  -0.288  -0.282  -0.275
 -0.270  -0.257  -0.250  -0.248  -0.235  -0.233  -0.229  -0.190
 -0.173  -0.170  -0.165  -0.155  -0.151  -0.148  -0.146  -0.143
 -0.138
 -- Virtual --
  0.088   0.100   0.107   0.113   0.209   0.239   0.246   0.252
  0.266   0.280   0.284   0.286   0.304   0.315   0.328   0.330
  0.337   0.337   0.341   0.347   0.352   0.361   0.367   0.373
  0.376   0.387   0.390   0.402   0.402   0.407   0.413   0.415
  0.419   0.420   0.422   0.424   0.430   0.431   0.433   0.437
  0.438   0.439   0.441   0.441   0.444   0.447   0.455   0.460
  0.467   0.474   0.485   0.489   0.493   0.507   0.512   0.542
  0.542   0.552   0.559   0.636   0.646   0.648   0.652
 --------------------------------------------------------------
 
          Ground-State Mulliken Net Atomic Charges

     Atom                 Charge (a.u.)
  ----------------------------------------
      1 O                    -0.209252
      2 C                     0.210924
      3 C                    -0.080543
      4 C                    -0.076621
      5 C                     0.207122
      6 O                    -0.169641
      7 C                    -0.059478
      8 C                    -0.049713
      9 O                    -0.174769
     10 C                     0.214997
     11 C                    -0.078461
     12 C                    -0.079732
     13 C                     0.215036
     14 O                    -0.208364
     15 O                    -0.169712
     16 O                    -0.176228
     17 O                    -0.200403
     18 C                    -0.129497
     19 C                     0.025734
     20 C                    -0.143624
     21 C                    -0.143964
     22 C                     0.024660
     23 O                    -0.186036
     24 H                     0.086808
     25 H                     0.083962
     26 H                     0.081397
     27 H                     0.078128
     28 H                     0.073772
     29 H                     0.078369
     30 H                     0.073265
     31 H                     0.091230
     32 O                    -0.206492
     33 C                    -0.127635
     34 C                     0.022901
     35 C                    -0.143269
     36 C                    -0.145532
     37 C                     0.022975
     38 O                    -0.190804
     39 H                     0.081681
     40 H                     0.083464
     41 H                     0.087358
     42 H                     0.091249
     43 H                     0.077198
     44 H                     0.071592
     45 H                     0.078316
     46 H                     0.072116
     47 H                     0.092627
     48 H                     0.089283
     49 H                     0.090091
     50 H                     0.087162
     51 H                     0.089632
     52 H                     0.092973
     53 H                     0.083199
     54 H                     0.091124
     55 H                     0.112150
     56 H                     0.087275
  ----------------------------------------
  Sum of atomic charges =    -0.000000

 -----------------------------------------------------------------
                    Cartesian Multipole Moments
 -----------------------------------------------------------------
    Charge (ESU x 10^10)
                -0.0000
    Dipole Moment (Debye)
         X      -0.2651      Y      -0.5851      Z       2.9989
       Tot       3.0669
    Quadrupole Moments (Debye-Ang)
        XX    -137.6950     XY      -3.8816     YY    -149.1165
        XZ       5.6595     YZ       6.7544     ZZ    -168.4760
    Octopole Moments (Debye-Ang^2)
       XXX      24.3586    XXY       3.0254    XYY     -36.4788
       YYY     -41.4494    XXZ      34.5966    XYZ      10.2993
       YYZ      -7.9610    XZZ      10.4335    YZZ      -0.8611
       ZZZ       0.6174
    Hexadecapole Moments (Debye-Ang^3)
      XXXX  -15421.8259   XXXY      65.3009   XXYY   -3025.3288
      XYYY     110.8764   YYYY   -2541.6357   XXXZ      45.8633
      XXYZ      45.9501   XYYZ     -12.2231   YYYZ      71.7851
      XXZZ   -3144.2672   XYZZ     -14.7828   YYZZ    -682.5759
      XZZZ      58.0791   YZZZ      62.3203   ZZZZ   -1708.0239
 -----------------------------------------------------------------
Archival summary:
1\1\vega02.cac.cornell.edu\OPT\ProcedureUnspecified\STO-3G\102026\jj585\MonJan1506:34:032018MonJan1506:34:032018\0\\#,OPT,ProcedureUnspecified,STO-3G,\\0,1\O\C,1,1.25158\O,2,1.43705,1,125.301\C,3,1.48466,2,112.178,1,-24.1155,0\H,4,1.10845,3,105.357,2,-171.318,0\H,4,1.11233,3,109.804,2,-54.3353,0\C,2,1.56505,1,126.453,3,-175.814,0\H,7,1.10377,2,108.611,1,-165.29,0\C,4,1.5798,3,114.15,2,67.145,0\H,9,1.10726,4,111.084,3,72.4301,0\H,9,1.1118,4,107.233,3,-49.2855,0\O,9,1.48233,4,109.982,3,-169.643,0\C,12,1.42831,9,110.854,4,86.5,0\O,13,1.25089,12,124.026,9,6.64921,0\C,13,1.5784,12,111.359,9,-171.342,0\H,15,1.10611,13,107.512,12,86.0914,0\C,7,1.58401,2,113.532,1,-39.7475,0\H,17,1.10539,7,110.578,2,-124.917,0\C,17,1.57126,7,113.623,2,-2.81719,0\O,19,1.24842,17,127.422,7,121.578,0\O,19,1.43483,17,107.988,7,-61.543,0\C,21,1.48009,19,109.866,17,175.082,0\H,22,1.10558,21,106.188,19,174.732,0\H,22,1.10893,21,111.773,19,55.1062,0\H,22,1.10984,21,110.985,19,-66.2798,0\C,17,1.58404,7,101.202,2,116.419,0\H,26,1.10732,17,113.847,7,-153.942,0\O,26,1.48296,17,103.433,7,-34.235,0\C,28,1.47857,26,95.0349,17,56.64,0\H,29,1.10742,28,110.634,26,179.728,0\C,26,1.57804,17,108.558,7,75.065,0\H,31,1.10154,26,110.315,17,168.661,0\H,31,1.1017,26,112.305,17,47.1857,0\C,31,1.57419,26,101.094,17,-73.3552,0\H,34,1.10157,31,111.596,26,-118.897,0\H,34,1.10182,31,112.747,26,118.399,0\C,15,1.58666,13,106.988,12,-152.98,0\H,37,1.10766,15,112.84,13,-34.8423,0\O,37,1.48285,15,102.075,13,83.701,0\C,39,1.47971,37,94.8957,15,59.6392,0\H,40,1.1064,39,110.709,37,-178.14,0\C,40,1.57911,39,102.951,37,57.4121,0\H,42,1.10178,40,110.3,39,79.5514,0\H,42,1.10183,40,112.508,39,-158.865,0\C,42,1.57409,40,100.839,39,-38.2245,0\H,45,1.10133,42,111.639,40,121.387,0\H,45,1.1019,42,112.67,40,-116.017,0\C,40,1.5909,39,104.324,37,-54.813,0\H,48,1.10664,40,109.359,39,142.169,0\C,48,1.57153,40,115.894,39,-99.4507,0\O,50,1.24975,48,127.031,40,-176.404,0\O,50,1.4335,48,109.599,40,4.50184,0\C,52,1.48052,50,109.84,48,179.232,0\H,53,1.10557,52,106.007,50,-179.267,0\H,53,1.10912,52,111.515,50,-60.0271,0\H,53,1.1094,52,111.71,50,61.4594,0\\\@

 Total job time:  56.01s(wall), 2662.51s(cpu) 
 Mon Jan 15 06:34:03 2018

        *************************************************************
        *                                                           *
        *  Thank you very much for using Q-Chem.  Have a nice day.  *
        *                                                           *
        *************************************************************


0 sent ACK to 0 
now end server 0 ... 
