mFile = /opt/software/qchem/qchem-5.0.1//bin/mpi/machines
Process 0 of 1 is on vega02.cac.cornell.edu - thread support 0
initial socket setup ...start
initial socket setup ...done 
now start server 0 ... 
vega02.cac.cornell.edu 10.84.3
Q-Chem Developer Version! Running on 10.84.3.*
                  Welcome to Q-Chem
     A Quantum Leap Into The Future Of Chemistry


 Q-Chem 5.0, Q-Chem, Inc., Pleasanton, CA (2017)

 Yihan Shao,  Zhengting Gan,  E. Epifanovsky,  A. T. B. Gilbert,  M. Wormit,  
 J. Kussmann,  A. W. Lange,  A. Behn,  Jia Deng,  Xintian Feng,  D. Ghosh,  
 M. Goldey,  P. R. Horn,  L. D. Jacobson,  I. Kaliman,  T. Kus,  A. Landau,  
 Jie Liu,  E. I. Proynov,  R. M. Richard,  R. P. Steele,  E. J. Sundstrom,  
 H. L. Woodcock III,  P. M. Zimmerman,  D. Zuev,  B. Albrecht,  E. Alguire,  
 S. A. Baeppler,  Z. Benda,  Y. A. Bernard,  E. J. Berquist,  K. B. Bravaya,  
 D. Casanova,  Chun-Min Chang,  Yunqing Chen,  A. Chien,  K. D. Closser,  
 M. P. Coons,  S. Dasgupta,  M. Diedenhofen,  Hainam Do,  R. G. Edgar,  
 Po-Tung Fang,  S. Fatehi,  Qingguo Feng,  Qinghui Ge,  A. Ghysels,  
 J. Gomes,  J. Gonthier,  A. Gunina,  M. W. D. Hanson-Heine,  
 P. H. P. Harbach,  A. W. Hauser,  J. E. Herr,  E. G. Hohenstein,  
 Z. C. Holden,  Kerwin Hui,  T.-C. Jagau,  Hyunjun Ji,  B. Kaduk,  
 K. Khistyaev,  Jaehoon Kim,  P. Klunzinger,  K. Koh,  D. Kosenkov,  
 T. Kowalczyk,  C. M. Krauter,  A. Kunitsa,  Ka Un Lao,  A. Laurent,  
 K. V. Lawler,  Joonho Lee,  D. Lefrancois,  S. Lehtola,  D. S. Levine,  
 Yi-Pei Li,  You-Sheng Lin,  Fenglai Liu,  E. Livshits,  A. Luenser,  
 P. Manohar,  E. Mansoor,  S. F. Manzer,  Shan-Ping Mao,  Yuezhi Mao,  
 N. Mardirossian,  A. V. Marenich,  L. A. Martinez-Martinez,  S. A. Maurer,  
 N. J. Mayhall,  S. C. McKenzie,  J.-M. Mewes,  A. F. Morrison,  K. Nanda,  
 T. S. Nguyen-Beck,  R. Olivares-Amaya,  J. A. Parkhill,  T. M. Perrine,  
 F. Plasser,  S. Prager,  A. Prociuk,  D. R. Rehn,  F. Rob,  M. Schneider,  
 N. Sergueev,  S. M. Sharada,  S. Sharma,  D. W. Small,  T. Stauch,  
 T. Stein,  Yu-Chuan Su,  A. J. W. Thom,  T. Tsuchimochi,  L. Vogt,  
 O. Vydrov,  M. A. Watson,  J. Wenzel,  M. de Wergifosse,  T. A. Wesolowski,  
 A. White,  J. Witte,  A. Yamada,  Jun Yang,  K. Yao,  S. Yeganeh,  
 S. R. Yost,  Zhi-Qiang You,  A. Zech,  Igor Ying Zhang,  Xing Zhang,  
 Yan Zhao,  Ying Zhu,  B. R. Brooks,  G. K. L. Chan,  C. J. Cramer,  
 M. S. Gordon,  W. J. Hehre,  A. Klamt,  M. W. Schmidt,  C. D. Sherrill,  
 D. G. Truhlar,  A. Aspuru-Guzik,  R. Baer,  A. T. Bell,  N. A. Besley,  
 Jeng-Da Chai,  A. Dreuw,  B. D. Dunietz,  T. R. Furlani,  Chao-Ping Hsu,  
 Yousung Jung,  Jing Kong,  D. S. Lambrecht,  WanZhen Liang,  C. Ochsenfeld,  
 V. A. Rassolov,  L. V. Slipchenko,  J. E. Subotnik,  T. Van Voorhis,  
 J. M. Herbert,  A. I. Krylov,  P. M. W. Gill,  M. Head-Gordon

 Contributors to earlier versions of Q-Chem not listed above: 
 R. D. Adamson,  B. Austin,  J. Baker,  G. J. O. Beran,  K. Brandhorst,  
 S. T. Brown,  E. F. C. Byrd,  A. K. Chakraborty,  C.-L. Cheng,  
 Siu Hung Chien,  D. M. Chipman,  D. L. Crittenden,  H. Dachsel,  
 R. A. DiStasio Jr.,  R. J. Doerksen,  A. D. Dutoi,  L. Fusti-Molnar,  
 W. A. Goddard III,  A. Golubeva-Zadorozhnaya,  S. R. Gwaltney,  G. Hawkins,  
 A. Heyden,  S. Hirata,  G. Kedziora,  F. J. Keil,  C. Kelley,  Jihan Kim,  
 R. A. King,  R. Z. Khaliullin,  P. P. Korambath,  W. Kurlancheek,  
 A. M. Lee,  M. S. Lee,  S. V. Levchenko,  Ching Yeh Lin,  D. Liotard,  
 R. C. Lochan,  I. Lotan,  P. E. Maslen,  N. Nair,  D. P. O'Neill,  
 D. Neuhauser,  E. Neuscamman,  C. M. Oana,  R. Olson,  B. Peters,  
 R. Peverati,  P. A. Pieniazek,  Y. M. Rhee,  J. Ritchie,  M. A. Rohrdanz,  
 E. Rosta,  N. J. Russ,  H. F. Schaefer III,  N. E. Schultz,  N. Shenvi,  
 A. C. Simmonett,  A. Sodt,  D. Stuck,  K. S. Thanthiriwatte,  V. Vanovschi,  
 Tao Wang,  A. Warshel,  C. F. Williams,  Q. Wu,  X. Xu,  W. Zhang

 Please cite Q-Chem as follows:
 Y. Shao et al., Mol. Phys. 113, 184-215 (2015)
 DOI: 10.1080/00268976.2014.952696

 Q-Chem 5.0.1 for Intel X86 EM64T Linux

 Parts of Q-Chem use Armadillo 5.200.1 (Boston Tea Smuggler).
 http://arma.sourceforge.net/

 Q-Chem begins on Mon Jan 15 07:12:48 2018  

Host: vega02.cac.cornell.edu
0

     Scratch files written to /scratch/jj585/SOT1001/0704c.save//
 Parallel job on  1  processors

Checking the input file for inconsistencies... 	...done.

--------------------------------------------------------------
User input:
--------------------------------------------------------------
$molecule
0  1
O -3.94934 -3.66094 2.70899
C -3.26408 -4.56952 2.26188
C -3.36658 -6.02376 2.66595
C -4.77843 -6.6154 2.80909
C -5.92601 -5.73807 2.36026
O -6.50945 -5.14662 3.44433
C -7.83103 -4.66443 3.17946
C -8.86592 -5.61225 3.77678
O -8.42608 -6.97175 3.6312
C -8.91813 -7.84481 4.54487
C -8.65391 -9.28687 4.1825
C -9.14511 -10.31379 5.21325
C -10.1208 -9.7945 6.25011
O -10.69553 -10.47605 7.08662
O -2.43936 -4.28315 1.2186
O -10.90087 -8.73579 5.87485
O -8.87659 -7.49065 5.71957
C -11.97631 -8.2243 6.57714
C -9.40915 -9.75225 2.92394
C -8.68544 -10.94992 2.31129
C -8.98955 -12.01986 3.34125
C -9.9324 -11.24628 4.27121
O -10.58712 -10.33947 3.41678
H -7.55639 -9.37595 4.01094
H -8.32256 -10.8316 5.7532
H -9.54129 -8.95033 2.1652
H -9.21958 -11.20316 1.36742
H -7.60694 -10.79598 2.09081
H -9.52835 -12.85079 2.8341
H -8.10832 -12.4146 3.89196
H -10.59087 -11.95008 4.82694
O -6.09916 -5.39004 1.19759
C -2.27255 -3.02634 0.67521
C -2.75824 -7.02072 1.6547
C -2.42628 -8.3433 2.35049
C -3.81166 -8.92707 2.53005
C -4.66147 -7.83499 1.87911
O -3.84608 -7.36492 0.83111
H -2.82807 -6.08522 3.63785
H -4.98079 -6.93116 3.85905
H -1.88271 -2.32576 1.4443
H -1.8499 -6.64151 1.13971
H -1.86637 -8.98415 1.63243
H -1.8333 -8.22758 3.28323
H -3.88446 -9.85588 1.92092
H -4.10716 -9.14256 3.57964
H -5.65446 -8.24271 1.58531
H -3.23945 -2.64948 0.27836
H -1.54296 -3.08455 -0.15832
H -12.39048 -7.35696 6.02377
H -11.64646 -7.88371 7.58179
H -12.77209 -8.99244 6.68073
H -8.86569 -5.33177 4.85379
H -9.89347 -5.44916 3.3855
H -8.07252 -4.63797 2.09298
H -7.96002 -3.62086 3.53768
$end

$opt
CONSTRAINT
tors           1           2           3           4     +43.385
tors           3           4           5           6    -100.129
tors           4           5           6           7    -160.885
tors           5           6           7           8    +103.128
tors           6           7           8           9     -37.495
tors           7           8           9          10    +154.109
tors           8           9          10          11    +168.300
tors           9          10          11          12    +177.780
tors          11          12          13          14    +174.323
ENDCONSTRAINT
$end

$rem
JOBTYPE                   OPT
METHOD                    B3LYP
DFT_D                     d3_op
BASIS                     STO-3G
GEOM_OPT_MAX_CYCLES       100
GEOM_OPT_TOL_GRADIENT     300
GEOM_OPT_TOL_DISPLACEMENT 1200
GEOM_OPT_TOL_ENERGY       100
SYMMETRY                  False
THRESH                    12
SCF_CONVERGENCE           8
MAX_SUB_FILE_NUM          128
MEM_STATIC                400
MEM_TOTAL                 4000
$end
--------------------------------------------------------------
 Adding empirical dispersion correction 
 ----------------------------------------------------------------
 Doing -D3(op) with
 s6 =   1.00000
 s8 =   0.78311
 a1 =   0.30000
 a2 =   4.25000
 n  =  10.00000
 -D3 energy without 3body term =     -0.0668960138 hartrees
 ----------------------------------------------------------------
             Standard Nuclear Orientation (Angstroms)
    I     Atom           X                Y                Z
 ----------------------------------------------------------------
    1      O       4.5481134807    -1.9033171908    -0.5588136823
    2      C       4.7837091025    -0.7035910924    -0.5713925523
    3      C       3.8103163186     0.3753430602    -0.9921066774
    4      C       2.3638150159     0.2530058427    -0.4856336197
    5      C       2.0943346224    -0.8360660284     0.5289593683
    6      O       1.5345995780    -1.9178040058    -0.0890719654
    7      C       0.8596416490    -2.7970851921     0.8167610208
    8      C      -0.6491346997    -2.5977595843     0.7166886541
    9      O      -0.9471380488    -1.2062119370     0.5225697188
   10      C      -2.1182036730    -0.9432284760    -0.1087660382
   11      C      -2.5118857158     0.5129147260    -0.0358092464
   12      C      -3.8050444962     0.8720423578    -0.7821706880
   13      C      -4.6867246233    -0.2959274086    -1.1761231193
   14      O      -5.7948407484    -0.2075248105    -1.6848839564
   15      O       5.9618252224    -0.2863156782    -0.0342448536
   16      O      -4.6076848304    -1.4106798802    -0.3879126303
   17      O      -2.3503580138    -1.5905714564    -1.1256860916
   18      C      -5.4437307867    -2.5104338633    -0.4424359574
   19      C      -2.8560510009     0.9855359642     1.3886621283
   20      C      -2.6754214513     2.4997221057     1.4787893164
   21      C      -3.8456682989     2.9734768155     0.6396523265
   22      C      -4.5318931886     1.6341695389     0.3437314587
   23      O      -4.2520130731     0.8488127059     1.4777045824
   24      H      -1.6444244410     1.0968077084    -0.4211638263
   25      H      -3.6379264062     1.4904430384    -1.6909687092
   26      H      -2.2621335334     0.4771716212     2.1792636652
   27      H      -2.8597919827     2.7854994604     2.5392917562
   28      H      -1.6802667416     2.8826114176     1.1648879263
   29      H      -4.4934331545     3.6178714908     1.2745597385
   30      H      -3.5745617669     3.5074695721    -0.2968413835
   31      H      -5.6097371419     1.7932609486     0.1185751809
   32      O       2.5781583977    -0.8484380278     1.6553113649
   33      C       6.9370217902    -1.1266479326     0.4612377403
   34      C       4.1550315571     1.7923565386    -0.4823247964
   35      C       3.4739454035     2.8488677440    -1.3560780489
   36      C       2.0381160933     2.7195607437    -0.8934974154
   37      C       2.1846622501     1.6320885513     0.1716162410
   38      O       3.4509881347     1.8895971065     0.7321862678
   39      H       3.8270497140     0.3523201170    -2.1045588783
   40      H       1.6490056232     0.1167719869    -1.3303571351
   41      H       7.3040916032    -1.8016626835    -0.3411971970
   42      H       5.2450508821     2.0023240534    -0.4391045049
   43      H       3.8517458513     3.8506282891    -1.0502337648
   44      H       3.6378947644     2.7086926115    -2.4462577798
   45      H       1.7390906048     3.6722746866    -0.4016162171
   46      H       1.3025967543     2.4589530981    -1.6850088274
   47      H       1.3209343217     1.6601469925     0.8728793642
   48      H       6.5323621493    -1.7281377287     1.3031816768
   49      H       7.7865984783    -0.5181341867     0.8332494405
   50      H      -5.1121129978    -3.2548619547     0.3098208341
   51      H      -5.3956788026    -2.9743837445    -1.4506847897
   52      H      -6.4892624729    -2.2141117284    -0.2120179858
   53      H      -0.9137711119    -3.1690728223    -0.2010195658
   54      H      -1.2117167726    -3.0429882701     1.5657058610
   55      H       1.0979190912    -2.5857591360     1.8835419265
   56      H       1.1562614893    -3.8545759088     0.6502425898
 ----------------------------------------------------------------
 Molecular Point Group                 C1    NOp =  1
 Largest Abelian Subgroup              C1    NOp =  1
 Nuclear Repulsion Energy =  3212.7342857866 hartrees
 There are      113 alpha and      113 beta electrons
 Requested basis set is STO-3G
 There are 86 shells and 176 basis functions

 Total QAlloc Memory Limit   4000 MB
 Mega-Array Size       392 MB
 MEM_STATIC part       400 MB
 A cutoff of  1.0D-12 yielded   2288 shell pairs
 There are     10814 function pairs
 
 -------------------------------------------------------
 OpenMP Integral Computing Module                       
 Release: version 1.0, May 2013, Q-Chem Inc. Pittsburgh 
 -------------------------------------------------------
 Integral Job Info:
 Integral job number is                      11
 Integral operator is                         1
 short-range coefficients                     0
 long-range coefficients              100000000
 Omega coefficients                           0
 if combine SR and LR in K                    0
 Integral screening is                        0
 Integral computing path is                   2
 max size of driver memory is            800000
 size of driver memory is                 45569
 size of scratch memory is              1046100
 max col of scratch BK array                289
 max len of scratch array in speh3           22
 max len of scratch index in speh4            8
 max int batch size is                      520
 min int batch size is                       52
 fixed nKL is                                52
 max L of basis functions is                  1
 order of int derivative is                   0
 number of shells is                         86
 number of basis is                         176
 number of cartesian basis is               176
 number of contracted shell pairs          2288
 number of primitive shell pairs          11441
 maxK2 (contraction) of shell pair            9
 max number of K2 of shell pair               1
 max number of CS2 of shell pair            344
 max number of PS2 of shell pair           1284
 mem total for path MDJ                   50922
 -------------------------------------------------------
 Smallest overlap matrix eigenvalue = 1.93E-01

 Scale SEOQF with 1.000000e-02/1.000000e-01/1.000000e-01

 Standard Electronic Orientation quadrupole field applied
 Nucleus-field energy     =     0.0000000403 hartrees
 Guess from superposition of atomic densities
 Warning:  Energy on first SCF cycle will be non-variational
 A restricted hybrid HF-DFT SCF calculation will be
 performed using Pulay DIIS extrapolation
 Exchange:     0.2000 Hartree-Fock + 0.0800 Slater + 0.7200 B88
 Correlation:  0.1900 VWN1RPA + 0.8100 LYP
 Using SG-1 standard quadrature grid
 Dispersion:   Grimme D3
 SCF converges when DIIS error is below 1.0E-08
 using 48 threads for integral computing
 -------------------------------------------------------
 OpenMP Integral computing Module                
 Release: version 1.0, May 2013, Q-Chem Inc. Pittsburgh 
 -------------------------------------------------------
 -------------------------------------------------------
 OpenMP BLAS3 based DFT computing Module                
 Release: version 1.0, May 2013, Q-Chem Inc. Pittsburgh 
 -------------------------------------------------------
 ---------------------------------------
  Cycle       Energy         DIIS Error
 ---------------------------------------
    1   -1509.4441731831      8.29E-02
    2   -1509.5405761482      1.05E-02
    3   -1507.5013373850      2.52E-02
    4   -1510.0439015279      3.48E-03
    5   -1510.0919750670      1.25E-03
    6   -1510.0988796314      2.99E-04
    7   -1510.0992194842      1.25E-04
    8   -1510.0992823682      3.39E-05
    9   -1510.0992873404      7.35E-06
   10   -1510.0992875253      3.73E-06
   11   -1510.0992875824      1.13E-06
   12   -1510.0992875882      2.12E-07
   13   -1510.0992875884      6.26E-08
   14   -1510.0992875884      2.21E-08
   15   -1510.0992875885      1.71E-08
   16   -1510.0992875884      2.74E-09 Convergence criterion met
 ---------------------------------------
 SCF time:  CPU 124.45 s  wall 2.64 s
 SCF   energy in the final basis set = -1510.09928759
 Total energy in the final basis set = -1510.09928759
 
 --------------------------------------------------------------
 
                    Orbital Energies (a.u.)
 --------------------------------------------------------------
 
 Alpha MOs
 -- Occupied --
-18.945 -18.938 -18.928 -18.908 -18.903 -18.898 -18.868 -18.864
-18.853 -18.844 -10.113 -10.110 -10.109 -10.104 -10.081 -10.080
-10.079 -10.072 -10.071 -10.069 -10.068 -10.066 -10.048 -10.042
-10.042 -10.035 -10.020 -10.018 -10.018 -10.016  -1.052  -1.042
 -1.038  -1.034  -1.026  -1.022  -0.954  -0.944  -0.943  -0.927
 -0.786  -0.782  -0.748  -0.744  -0.738  -0.727  -0.718  -0.677
 -0.670  -0.634  -0.612  -0.588  -0.557  -0.550  -0.541  -0.537
 -0.530  -0.523  -0.500  -0.498  -0.488  -0.485  -0.462  -0.460
 -0.451  -0.448  -0.436  -0.426  -0.425  -0.422  -0.420  -0.417
 -0.404  -0.394  -0.393  -0.388  -0.381  -0.369  -0.367  -0.354
 -0.353  -0.350  -0.339  -0.337  -0.335  -0.330  -0.324  -0.318
 -0.313  -0.310  -0.307  -0.305  -0.294  -0.293  -0.290  -0.280
 -0.276  -0.249  -0.245  -0.239  -0.236  -0.223  -0.212  -0.177
 -0.175  -0.169  -0.160  -0.158  -0.156  -0.150  -0.137  -0.137
 -0.123
 -- Virtual --
  0.088   0.101   0.106   0.122   0.235   0.250   0.262   0.270
  0.285   0.301   0.316   0.333   0.336   0.341   0.350   0.361
  0.367   0.374   0.379   0.381   0.386   0.387   0.395   0.401
  0.405   0.407   0.407   0.409   0.413   0.416   0.422   0.428
  0.430   0.435   0.437   0.439   0.443   0.450   0.456   0.458
  0.467   0.467   0.474   0.475   0.478   0.483   0.487   0.491
  0.491   0.492   0.499   0.526   0.534   0.538   0.544   0.562
  0.568   0.579   0.584   0.661   0.687   0.692   0.695
 --------------------------------------------------------------
 
          Ground-State Mulliken Net Atomic Charges

     Atom                 Charge (a.u.)
  ----------------------------------------
      1 O                    -0.236292
      2 C                     0.237159
      3 C                    -0.080333
      4 C                    -0.081246
      5 C                     0.240843
      6 O                    -0.179724
      7 C                    -0.038567
      8 C                    -0.039706
      9 O                    -0.201826
     10 C                     0.241051
     11 C                    -0.080558
     12 C                    -0.076823
     13 C                     0.238980
     14 O                    -0.239887
     15 O                    -0.211309
     16 O                    -0.212958
     17 O                    -0.217549
     18 C                    -0.095336
     19 C                     0.038156
     20 C                    -0.142145
     21 C                    -0.143860
     22 C                     0.040669
     23 O                    -0.210244
     24 H                     0.087910
     25 H                     0.091215
     26 H                     0.085730
     27 H                     0.075263
     28 H                     0.070965
     29 H                     0.077794
     30 H                     0.072641
     31 H                     0.089444
     32 O                    -0.220700
     33 C                    -0.097293
     34 C                     0.039596
     35 C                    -0.142907
     36 C                    -0.143970
     37 C                     0.041020
     38 O                    -0.206724
     39 H                     0.087991
     40 H                     0.084505
     41 H                     0.085161
     42 H                     0.092553
     43 H                     0.074688
     44 H                     0.071327
     45 H                     0.073827
     46 H                     0.070149
     47 H                     0.081931
     48 H                     0.090097
     49 H                     0.093933
     50 H                     0.089452
     51 H                     0.086582
     52 H                     0.084957
     53 H                     0.091724
     54 H                     0.085776
     55 H                     0.092618
     56 H                     0.094253
  ----------------------------------------
  Sum of atomic charges =    -0.000000

 -----------------------------------------------------------------
                    Cartesian Multipole Moments
 -----------------------------------------------------------------
    Charge (ESU x 10^10)
                 0.0000
    Dipole Moment (Debye)
         X       1.2286      Y       0.9835      Z      -0.2759
       Tot       1.5978
    Quadrupole Moments (Debye-Ang)
        XX    -165.3909     XY       1.2168     YY    -150.2877
        XZ     -11.2314     YZ      -7.5374     ZZ    -164.4199
    Octopole Moments (Debye-Ang^2)
       XXX     195.4600    XXY     -21.3760    XYY     -38.5631
       YYY     -53.2223    XXZ      18.8869    XYZ     -10.4322
       YYZ      13.0099    XZZ      18.1138    YZZ     -11.0650
       ZZZ      -2.2470
    Hexadecapole Moments (Debye-Ang^3)
      XXXX  -13336.0169   XXXY     -36.9318   XXYY   -2709.3881
      XYYY      77.6950   YYYY   -3102.3261   XXXZ    -155.1740
      XXYZ     -46.6884   XYYZ      13.3201   YYYZ     -11.0391
      XXZZ   -2588.2040   XYZZ      -9.9609   YYZZ    -688.9464
      XZZZ       3.5691   YZZZ      18.2554   ZZZZ    -959.4838
 -----------------------------------------------------------------
 Calculating analytic gradient of the SCF energy
 Gradient of SCF Energy
            1           2           3           4           5           6
    1   0.0267446  -0.0013109  -0.0136994   0.0359623  -0.0345572   0.0252417
    2   0.0688513   0.0261320  -0.0111310   0.0066882  -0.0126330   0.0262620
    3   0.0122011  -0.0234700   0.0446686   0.0396690   0.0037124   0.0461874
            7           8           9          10          11          12
    1  -0.0140191   0.0242455  -0.0557668  -0.0065829  -0.0250799  -0.0253732
    2   0.0159478   0.0381703  -0.0244335  -0.0112192  -0.0229557  -0.0094865
    3  -0.0570197   0.0400911  -0.0823194   0.0537834  -0.0039453   0.0333242
           13          14          15          16          17          18
    1   0.0419942   0.0630736  -0.0023069  -0.1106513   0.0338496   0.0401904
    2   0.0230072  -0.0371784  -0.1255117  -0.0000062   0.0493347   0.0221192
    3  -0.0197939   0.0766125   0.0096160  -0.0799504   0.0508484   0.0221483
           19          20          21          22          23          24
    1  -0.0639629  -0.0339959   0.0099950   0.0555881   0.0525638   0.0046888
    2   0.0074828  -0.0294039  -0.0439007  -0.0326234   0.0438421   0.0047650
    3  -0.0278413  -0.0288337   0.0140696   0.0348679  -0.0533162  -0.0008707
           25          26          27          28          29          30
    1  -0.0006696   0.0107199  -0.0082244   0.0067814  -0.0004424   0.0008500
    2   0.0025625   0.0069255  -0.0007808   0.0045467   0.0027427   0.0009331
    3  -0.0061036   0.0014981   0.0080389  -0.0019476   0.0129518  -0.0089217
           31          32          33          34          35          36
    1  -0.0007083  -0.0059872  -0.0232613  -0.0591504  -0.0193231   0.0411960
    2   0.0105385  -0.0012613   0.0518931  -0.0072169  -0.0327529  -0.0268612
    3  -0.0070589  -0.0566995  -0.0123792   0.0340570   0.0344576   0.0148563
           37          38          39          40          41          42
    1   0.0660665  -0.0247051   0.0029361  -0.0070089  -0.0046006   0.0025643
    2   0.0020904  -0.0152467  -0.0017991  -0.0003298   0.0071904   0.0073729
    3  -0.0126911  -0.0815002  -0.0040586  -0.0049358  -0.0038361  -0.0134235
           43          44          45          46          47          48
    1  -0.0015738   0.0013496   0.0054089  -0.0055126  -0.0115282  -0.0049298
    2   0.0081589  -0.0012499   0.0092626  -0.0032017   0.0017640   0.0068989
    3   0.0086541  -0.0079806   0.0058024  -0.0053508  -0.0074866  -0.0013633
           49          50          51          52          53          54
    1   0.0023252  -0.0030770   0.0072978   0.0065314   0.0152141  -0.0035777
    2  -0.0025620  -0.0026182   0.0056909   0.0055172  -0.0025115  -0.0021323
    3   0.0012568  -0.0006640   0.0007559   0.0029808   0.0004876  -0.0038498
           55          56
    1  -0.0156077   0.0038157
    2  -0.0044401  -0.0012430
    3   0.0029510   0.0070637
 Max gradient component =       1.255E-01
 RMS gradient           =       3.011E-02
 Gradient time:  CPU 32.85 s  wall 0.71 s
 Geometry Optimization Parameters
   NAtoms,    NIC,     NZ,  NCons,   NDum,   NFix, NCnnct, MaxDiis
       56     458       0       9       0       0       0       0


** CONSTRAINED OPTIMIZATION IN DELOCALIZED INTERNAL COORDINATES **
   Searching for a Minimum

   Optimization Cycle:   1

                       Coordinates (Angstroms)
     ATOM                X               Y               Z
      1  O         4.5481134807   -1.9033171908   -0.5588136823
      2  C         4.7837091025   -0.7035910924   -0.5713925523
      3  C         3.8103163186    0.3753430602   -0.9921066774
      4  C         2.3638150159    0.2530058427   -0.4856336197
      5  C         2.0943346224   -0.8360660284    0.5289593683
      6  O         1.5345995780   -1.9178040058   -0.0890719654
      7  C         0.8596416490   -2.7970851921    0.8167610208
      8  C        -0.6491346997   -2.5977595843    0.7166886541
      9  O        -0.9471380488   -1.2062119370    0.5225697188
     10  C        -2.1182036730   -0.9432284760   -0.1087660382
     11  C        -2.5118857158    0.5129147260   -0.0358092464
     12  C        -3.8050444962    0.8720423578   -0.7821706880
     13  C        -4.6867246233   -0.2959274086   -1.1761231193
     14  O        -5.7948407484   -0.2075248105   -1.6848839564
     15  O         5.9618252224   -0.2863156782   -0.0342448536
     16  O        -4.6076848304   -1.4106798802   -0.3879126303
     17  O        -2.3503580138   -1.5905714564   -1.1256860916
     18  C        -5.4437307867   -2.5104338633   -0.4424359574
     19  C        -2.8560510009    0.9855359642    1.3886621283
     20  C        -2.6754214513    2.4997221057    1.4787893164
     21  C        -3.8456682989    2.9734768155    0.6396523265
     22  C        -4.5318931886    1.6341695389    0.3437314587
     23  O        -4.2520130731    0.8488127059    1.4777045824
     24  H        -1.6444244410    1.0968077084   -0.4211638263
     25  H        -3.6379264062    1.4904430384   -1.6909687092
     26  H        -2.2621335334    0.4771716212    2.1792636652
     27  H        -2.8597919827    2.7854994604    2.5392917562
     28  H        -1.6802667416    2.8826114176    1.1648879263
     29  H        -4.4934331545    3.6178714908    1.2745597385
     30  H        -3.5745617669    3.5074695721   -0.2968413835
     31  H        -5.6097371419    1.7932609486    0.1185751809
     32  O         2.5781583977   -0.8484380278    1.6553113649
     33  C         6.9370217902   -1.1266479326    0.4612377403
     34  C         4.1550315571    1.7923565386   -0.4823247964
     35  C         3.4739454035    2.8488677440   -1.3560780489
     36  C         2.0381160933    2.7195607437   -0.8934974154
     37  C         2.1846622501    1.6320885513    0.1716162410
     38  O         3.4509881347    1.8895971065    0.7321862678
     39  H         3.8270497140    0.3523201170   -2.1045588783
     40  H         1.6490056232    0.1167719869   -1.3303571351
     41  H         7.3040916032   -1.8016626835   -0.3411971970
     42  H         5.2450508821    2.0023240534   -0.4391045049
     43  H         3.8517458513    3.8506282891   -1.0502337648
     44  H         3.6378947644    2.7086926115   -2.4462577798
     45  H         1.7390906048    3.6722746866   -0.4016162171
     46  H         1.3025967543    2.4589530981   -1.6850088274
     47  H         1.3209343217    1.6601469925    0.8728793642
     48  H         6.5323621493   -1.7281377287    1.3031816768
     49  H         7.7865984783   -0.5181341867    0.8332494405
     50  H        -5.1121129978   -3.2548619547    0.3098208341
     51  H        -5.3956788026   -2.9743837445   -1.4506847897
     52  H        -6.4892624729   -2.2141117284   -0.2120179858
     53  H        -0.9137711119   -3.1690728223   -0.2010195658
     54  H        -1.2117167726   -3.0429882701    1.5657058610
     55  H         1.0979190912   -2.5857591360    1.8835419265
     56  H         1.1562614893   -3.8545759088    0.6502425898
   Point Group: c1    Number of degrees of freedom:   162


   Energy is  -1510.099287588

              Constraints and their Current Values
                                        Value     Constraint
   Dihedral:        1   2   3   4       43.384       43.385
   Dihedral:        3   4   5   6     -100.129     -100.129
   Dihedral:        4   5   6   7     -160.885     -160.885
   Dihedral:        5   6   7   8      103.128      103.128
   Dihedral:        6   7   8   9      -37.495      -37.495
   Dihedral:        7   8   9  10      154.110      154.109
   Dihedral:        8   9  10  11      168.300      168.300
   Dihedral:        9  10  11  12      177.780      177.780
   Dihedral:       11  12  13  14      174.323      174.323

 Attempting to Generate Delocalized Internal Coordinates

   Using Lagrange Multiplier Algorithm


169 Hessian modes will be used to form the next step
  Hessian Eigenvalues:
    -0.977753   -0.977753   -0.977753   -0.977753   -0.977753   -0.977753
    -0.977753   -0.977753    0.045000    0.045000    0.045000    0.045000
     0.045217    0.045542    0.045590    0.046051    0.048854    0.048875
     0.049293    0.051001    0.054281    0.059970    0.060023    0.062270
     0.063008    0.066970    0.067136    0.067737    0.067872    0.069280
     0.070576    0.072582    0.074000    0.074234    0.075735    0.076032
     0.076817    0.077303    0.082360    0.082543    0.083496    0.083751
     0.084278    0.084508    0.085335    0.085784    0.086794    0.086994
     0.087235    0.087632    0.088283    0.088869    0.089079    0.089388
     0.089809    0.089860    0.093712    0.093782    0.096630    0.096650
     0.111523    0.111672    0.114526    0.114649    0.115908    0.115994
     0.116790    0.116898    0.117976    0.118664    0.118725    0.121677
     0.123593    0.130681    0.131072    0.131950    0.139630    0.141407
     0.160000    0.160000    0.160000    0.160000    0.160000    0.160000
     0.171099    0.172084    0.172210    0.173505    0.214068    0.219611
     0.220603    0.234114    0.239265    0.241266    0.243339    0.249103
     0.250000    0.250000    0.250000    0.250000    0.250000    0.250000
     0.250000    0.250000    0.258454    0.258845    0.267193    0.267543
     0.278193    0.279268    0.284235    0.284537    0.295110    0.295819
     0.298738    0.308051    0.310698    0.310861    0.313318    0.320835
     0.321371    0.322115    0.322362    0.322522    0.322723    0.322915
     0.322932    0.323037    0.323229    0.323322    0.324025    0.324043
     0.324306    0.324358    0.324399    0.324435    0.324612    0.324902
     0.324960    0.325037    0.325050    0.325079    0.325097    0.326783
     0.326988    0.367556    0.369177    0.382633    0.384395    0.401004
     0.407723    0.486417    0.492171    0.514501    0.517913    0.528730
     0.537336    0.920811    0.928029    0.941950    0.942720    1.022753
     1.022753    1.022753    1.022753    1.022753    1.022753    1.022753
     1.022753

 Minimum Search - Taking P-RFO Step
 Searching for Lamda that Maximizes Along the Constraint modes Only
 Value Taken    Lamda =   0.00248576
 Searching for Lamda that Minimizes Along All other modes
 Value Taken    Lamda =  -0.19216437
 Calculated Step too Large.  Step scaled by  0.492772
 Step Taken.  Stepsize is  0.300000

                             Maximum     Tolerance    Cnvgd?
         Gradient            0.124548       0.000300      NO
         Displacement        0.100399       0.001200      NO
         Energy change     *********       0.000001      NO


 New Cartesian Coordinates Obtained by Inverse Iteration

 Displacement from previous Coordinates is:  1.450376
 Adding empirical dispersion correction 
 ----------------------------------------------------------------
 Doing -D3(op) with
 s6 =   1.00000
 s8 =   0.78311
 a1 =   0.30000
 a2 =   4.25000
 n  =  10.00000
 -D3 energy without 3body term =     -0.0666901773 hartrees
 ----------------------------------------------------------------
             Standard Nuclear Orientation (Angstroms)
    I     Atom           X                Y                Z
 ----------------------------------------------------------------
    1      O       4.5780625327    -1.8910704618    -0.5111837668
    2      C       4.8062410748    -0.6731381227    -0.5372028168
    3      C       3.8151632749     0.4009079820    -0.9901871393
    4      C       2.3544925453     0.2521555714    -0.4858607995
    5      C       2.1088381076    -0.8536404779     0.5473272377
    6      O       1.5688333544    -1.9666014080    -0.0834539468
    7      C       0.9069170488    -2.8716990656     0.8265152636
    8      C      -0.6232921639    -2.6990431520     0.7123500538
    9      O      -0.9232784773    -1.2978287229     0.5171046438
   10      C      -2.1146348505    -1.0413162464    -0.1416888181
   11      C      -2.4835518443     0.4443978479    -0.0450749311
   12      C      -3.7804603158     0.8611273926    -0.7999830370
   13      C      -4.7467763911    -0.2647398000    -1.1979955543
   14      O      -5.8641900615    -0.0754191416    -1.7099566934
   15      O       5.9767341680    -0.1802431233    -0.0013143799
   16      O      -4.6758812129    -1.3850730361    -0.3788184039
   17      O      -2.3733070623    -1.7061586185    -1.1621444479
   18      C      -5.6146715072    -2.4267885255    -0.4502106168
   19      C      -2.8114153858     0.9268125093     1.4006199691
   20      C      -2.5708386128     2.4523300920     1.4931348839
   21      C      -3.7392043855     2.9774026078     0.6456597446
   22      C      -4.4899596748     1.6518963465     0.3450782972
   23      O      -4.2375283020     0.8354805333     1.4948095724
   24      H      -1.6005357042     0.9978232491    -0.4306100964
   25      H      -3.5888461187     1.4784069477    -1.7007780673
   26      H      -2.2390738894     0.3902642752     2.1859205387
   27      H      -2.7356911200     2.7449096182     2.5503078729
   28      H      -1.5659477309     2.7939685824     1.1772508951
   29      H      -4.3617716819     3.6448686069     1.2737333743
   30      H      -3.4481486844     3.4999916643    -0.2863806313
   31      H      -5.5603957391     1.8474813258     0.1223896720
   32      O       2.5756271389    -0.8532261737     1.6946060193
   33      C       6.9555818544    -1.0441503579     0.5166279498
   34      C       4.1383369221     1.8445965860    -0.4916559396
   35      C       3.4301580652     2.8806157496    -1.4029942499
   36      C       1.9725986777     2.7271190625    -0.9395073417
   37      C       2.1368838415     1.6515561429     0.1636003522
   38      O       3.4145315534     1.9496744861     0.7396802056
   39      H       3.8388748299     0.3653757260    -2.1000879992
   40      H       1.6520333675     0.0900580786    -1.3308384532
   41      H       7.3347671914    -1.7357378485    -0.2680507680
   42      H       5.2233893147     2.0679598349    -0.4361897342
   43      H       3.7865169788     3.8922506575    -1.1218271552
   44      H       3.6031869810     2.7207259821    -2.4848233317
   45      H       1.6445598203     3.6775184471    -0.4726183118
   46      H       1.2518560382     2.4345638257    -1.7276313909
   47      H       1.2753518057     1.6687206013     0.8644836097
   48      H       6.5512149549    -1.6422922224     1.3630676115
   49      H       7.8016740264    -0.4312496403     0.8881695550
   50      H      -5.3281828325    -3.2034064056     0.2876124405
   51      H      -5.6237352313    -2.8851781096    -1.4636179138
   52      H      -6.6379529252    -2.0647968689    -0.2043444415
   53      H      -0.8979220324    -3.2660066077    -0.2067975006
   54      H      -1.1820933578    -3.1500885999     1.5609763356
   55      H       1.1604936768    -2.6538288952     1.8891593023
   56      H       1.2206381182    -3.9227885349     0.6547315222
 ----------------------------------------------------------------
 Molecular Point Group                 C1    NOp =  1
 Largest Abelian Subgroup              C1    NOp =  1
 Nuclear Repulsion Energy =  3185.9772531987 hartrees
 There are      113 alpha and      113 beta electrons
 Applying Cartesian multipole field
    Component          Value
    ---------          -----
     (2,0,0)        1.00000E-12
     (0,2,0)        2.00000E-11
     (0,0,2)       -3.00000E-11
 Nucleus-field energy     =     0.0000000404 hartrees
 Requested basis set is STO-3G
 There are 86 shells and 176 basis functions
 A cutoff of  1.0D-12 yielded   2282 shell pairs
 There are     10808 function pairs
 Smallest overlap matrix eigenvalue = 2.01E-01
 Guess MOs from SCF MO coefficient file
 Reading MOs from coefficient file
 Reading MOs from coefficient file
 A restricted hybrid HF-DFT SCF calculation will be
 performed using Pulay DIIS extrapolation
 Exchange:     0.2000 Hartree-Fock + 0.0800 Slater + 0.7200 B88
 Correlation:  0.1900 VWN1RPA + 0.8100 LYP
 Using SG-1 standard quadrature grid
 Dispersion:   Grimme D3
 SCF converges when DIIS error is below 1.0E-08
 Geometry optimization detected.  Setting ReadMinima to 0
 Setting SaveMinima to 0
 using 48 threads for integral computing
 -------------------------------------------------------
 OpenMP Integral computing Module                
 Release: version 1.0, May 2013, Q-Chem Inc. Pittsburgh 
 -------------------------------------------------------
 -------------------------------------------------------
 OpenMP BLAS3 based DFT computing Module                
 Release: version 1.0, May 2013, Q-Chem Inc. Pittsburgh 
 -------------------------------------------------------
 ---------------------------------------
  Cycle       Energy         DIIS Error
 ---------------------------------------
    1   -1509.9989310074      3.65E-03
    2   -1510.1709459729      9.41E-04
    3   -1510.1640010848      1.59E-03
    4   -1510.1746180206      3.08E-04
    5   -1510.1750634161      5.92E-05
    6   -1510.1750782847      2.12E-05
    7   -1510.1750794247      1.44E-05
    8   -1510.1750803360      2.44E-06
    9   -1510.1750803664      7.64E-07
   10   -1510.1750803682      4.92E-07
   11   -1510.1750803691      1.27E-07
   12   -1510.1750803693      2.67E-08
   13   -1510.1750803693      1.43E-08
   14   -1510.1750803693      8.11E-09 Convergence criterion met
 ---------------------------------------
 SCF time:  CPU 107.38 s  wall 2.24 s
 SCF   energy in the final basis set = -1510.17508037
 Total energy in the final basis set = -1510.17508037
 
 --------------------------------------------------------------
 
                    Orbital Energies (a.u.)
 --------------------------------------------------------------
 
 Alpha MOs
 -- Occupied --
-18.940 -18.935 -18.933 -18.917 -18.900 -18.897 -18.869 -18.867
-18.857 -18.849 -10.107 -10.105 -10.105 -10.098 -10.079 -10.078
-10.076 -10.069 -10.069 -10.067 -10.066 -10.063 -10.045 -10.042
-10.041 -10.035 -10.020 -10.018 -10.018 -10.016  -1.037  -1.031
 -1.025  -1.020  -1.007  -1.004  -0.947  -0.939  -0.937  -0.925
 -0.777  -0.775  -0.740  -0.736  -0.730  -0.719  -0.710  -0.673
 -0.665  -0.628  -0.607  -0.585  -0.553  -0.548  -0.539  -0.536
 -0.525  -0.519  -0.495  -0.492  -0.481  -0.478  -0.455  -0.455
 -0.445  -0.443  -0.431  -0.420  -0.419  -0.418  -0.415  -0.413
 -0.399  -0.389  -0.388  -0.382  -0.376  -0.364  -0.362  -0.350
 -0.349  -0.346  -0.339  -0.336  -0.334  -0.329  -0.324  -0.316
 -0.312  -0.308  -0.305  -0.302  -0.292  -0.290  -0.287  -0.278
 -0.272  -0.249  -0.244  -0.238  -0.237  -0.229  -0.220  -0.175
 -0.173  -0.171  -0.161  -0.156  -0.155  -0.149  -0.140  -0.140
 -0.132
 -- Virtual --
  0.083   0.097   0.098   0.115   0.230   0.247   0.257   0.263
  0.280   0.293   0.302   0.320   0.330   0.338   0.344   0.352
  0.361   0.364   0.368   0.373   0.375   0.380   0.382   0.390
  0.394   0.402   0.402   0.407   0.408   0.410   0.413   0.417
  0.424   0.426   0.431   0.435   0.437   0.439   0.441   0.450
  0.454   0.455   0.460   0.465   0.471   0.472   0.474   0.478
  0.481   0.484   0.491   0.502   0.510   0.523   0.528   0.553
  0.557   0.559   0.562   0.635   0.658   0.664   0.673
 --------------------------------------------------------------
 
          Ground-State Mulliken Net Atomic Charges

     Atom                 Charge (a.u.)
  ----------------------------------------
      1 O                    -0.227806
      2 C                     0.225833
      3 C                    -0.079286
      4 C                    -0.079903
      5 C                     0.231313
      6 O                    -0.176393
      7 C                    -0.040825
      8 C                    -0.042270
      9 O                    -0.195631
     10 C                     0.229100
     11 C                    -0.078952
     12 C                    -0.075713
     13 C                     0.224994
     14 O                    -0.230626
     15 O                    -0.198505
     16 O                    -0.198097
     17 O                    -0.209974
     18 C                    -0.103041
     19 C                     0.033625
     20 C                    -0.143029
     21 C                    -0.144633
     22 C                     0.035575
     23 O                    -0.201421
     24 H                     0.087009
     25 H                     0.089288
     26 H                     0.086046
     27 H                     0.075954
     28 H                     0.071649
     29 H                     0.077775
     30 H                     0.073132
     31 H                     0.088786
     32 O                    -0.215525
     33 C                    -0.104867
     34 C                     0.034871
     35 C                    -0.143765
     36 C                    -0.144767
     37 C                     0.036188
     38 O                    -0.198631
     39 H                     0.086848
     40 H                     0.085007
     41 H                     0.085697
     42 H                     0.092605
     43 H                     0.075152
     44 H                     0.072064
     45 H                     0.074286
     46 H                     0.070933
     47 H                     0.081830
     48 H                     0.090557
     49 H                     0.093749
     50 H                     0.090259
     51 H                     0.086690
     52 H                     0.085550
     53 H                     0.090640
     54 H                     0.084995
     55 H                     0.092418
     56 H                     0.093242
  ----------------------------------------
  Sum of atomic charges =    -0.000000

 -----------------------------------------------------------------
                    Cartesian Multipole Moments
 -----------------------------------------------------------------
    Charge (ESU x 10^10)
                 0.0000
    Dipole Moment (Debye)
         X       1.2473      Y       0.8097      Z      -0.3397
       Tot       1.5254
    Quadrupole Moments (Debye-Ang)
        XX    -163.5453     XY       1.9184     YY    -150.3553
        XZ     -10.7657     YZ      -7.5106     ZZ    -164.4314
    Octopole Moments (Debye-Ang^2)
       XXX     191.6155    XXY     -30.3264    XYY     -38.1697
       YYY     -52.9834    XXZ      19.2837    XYZ     -12.5127
       YYZ      12.9836    XZZ      18.9466    YZZ     -11.4023
       ZZZ      -2.6454
    Hexadecapole Moments (Debye-Ang^3)
      XXXX  -13277.4001   XXXY     -14.6712   XXYY   -2721.5805
      XYYY      37.0305   YYYY   -3133.6638   XXXZ    -164.4663
      XXYZ     -32.6459   XYYZ      -1.0985   YYYZ      -0.3573
      XXZZ   -2599.2522   XYZZ     -16.8852   YYZZ    -700.0524
      XZZZ     -27.5311   YZZZ      34.6629   ZZZZ    -985.0921
 -----------------------------------------------------------------
 Calculating analytic gradient of the SCF energy
 Gradient of SCF Energy
            1           2           3           4           5           6
    1   0.0117301   0.0041186  -0.0111154   0.0260478  -0.0323866   0.0179787
    2   0.0321965   0.0332817  -0.0097992   0.0046204  -0.0060442   0.0155538
    3   0.0080298  -0.0214064   0.0316703   0.0244246  -0.0032082   0.0338525
            7           8           9          10          11          12
    1  -0.0083622   0.0139937  -0.0294221  -0.0123649  -0.0118333  -0.0193505
    2   0.0082922   0.0313249  -0.0210030  -0.0036848  -0.0119529  -0.0022465
    3  -0.0476206   0.0372507  -0.0614261   0.0582340  -0.0035001   0.0183015
           13          14          15          16          17          18
    1   0.0525366   0.0194721  -0.0001924  -0.0822647   0.0236772   0.0354513
    2   0.0104921  -0.0190920  -0.0893708  -0.0019416   0.0280262   0.0161997
    3  -0.0178698   0.0458598   0.0096083  -0.0487403   0.0158230   0.0176793
           19          20          21          22          23          24
    1  -0.0438255  -0.0190228   0.0043794   0.0321704   0.0333346   0.0032654
    2   0.0033338  -0.0166057  -0.0249598  -0.0272782   0.0264468   0.0019082
    3  -0.0150064  -0.0185560   0.0072986   0.0241767  -0.0332905  -0.0003446
           25          26          27          28          29          30
    1  -0.0011626   0.0098575  -0.0062668   0.0041646   0.0008365  -0.0002604
    2   0.0009335   0.0065102  -0.0009728   0.0034333   0.0011079   0.0003950
    3  -0.0042637   0.0003344   0.0049955   0.0000402   0.0093705  -0.0057469
           31          32          33          34          35          36
    1   0.0006609   0.0034636  -0.0173199  -0.0360596  -0.0093502   0.0221219
    2   0.0095048  -0.0013360   0.0411094  -0.0056569  -0.0199317  -0.0159183
    3  -0.0066366  -0.0310549  -0.0100115   0.0265292   0.0184642   0.0082756
           37          38          39          40          41          42
    1   0.0436766  -0.0152461   0.0027968  -0.0045544  -0.0017985   0.0017002
    2   0.0028381  -0.0110615  -0.0015931  -0.0001236   0.0035857   0.0056402
    3  -0.0033925  -0.0519210  -0.0025428  -0.0028504  -0.0030289  -0.0122323
           43          44          45          46          47          48
    1  -0.0017454   0.0014848   0.0044189  -0.0039099  -0.0095706  -0.0028583
    2   0.0049303   0.0000634   0.0060335  -0.0016918   0.0009512   0.0035331
    3   0.0063285  -0.0048539   0.0038660  -0.0026720  -0.0075669   0.0003152
           49          50          51          52          53          54
    1   0.0026150  -0.0027389   0.0047156   0.0029138   0.0106795  -0.0033882
    2  -0.0022901  -0.0026659   0.0023583   0.0029254  -0.0019453  -0.0030491
    3   0.0014107  -0.0001999  -0.0004618   0.0024502  -0.0005301  -0.0042907
           55          56
    1  -0.0108019   0.0029102
    2  -0.0042567  -0.0010581
    3   0.0029089   0.0077275
 Max gradient component =       8.937E-02
 RMS gradient           =       2.069E-02
 Gradient time:  CPU 31.03 s  wall 0.66 s
 Geometry Optimization Parameters
   NAtoms,    NIC,     NZ,  NCons,   NDum,   NFix, NCnnct, MaxDiis
       56     458       0       9       0       0       0       0

 Cartesian Hessian Update
 Hessian Updated using BFGS Update


** CONSTRAINED OPTIMIZATION IN DELOCALIZED INTERNAL COORDINATES **
   Searching for a Minimum

   Optimization Cycle:   2

                       Coordinates (Angstroms)
     ATOM                X               Y               Z
      1  O         4.5780625327   -1.8910704618   -0.5111837668
      2  C         4.8062410748   -0.6731381227   -0.5372028168
      3  C         3.8151632749    0.4009079820   -0.9901871393
      4  C         2.3544925453    0.2521555714   -0.4858607995
      5  C         2.1088381076   -0.8536404779    0.5473272377
      6  O         1.5688333544   -1.9666014080   -0.0834539468
      7  C         0.9069170488   -2.8716990656    0.8265152636
      8  C        -0.6232921639   -2.6990431520    0.7123500538
      9  O        -0.9232784773   -1.2978287229    0.5171046438
     10  C        -2.1146348505   -1.0413162464   -0.1416888181
     11  C        -2.4835518443    0.4443978479   -0.0450749311
     12  C        -3.7804603158    0.8611273926   -0.7999830370
     13  C        -4.7467763911   -0.2647398000   -1.1979955543
     14  O        -5.8641900615   -0.0754191416   -1.7099566934
     15  O         5.9767341680   -0.1802431233   -0.0013143799
     16  O        -4.6758812129   -1.3850730361   -0.3788184039
     17  O        -2.3733070623   -1.7061586185   -1.1621444479
     18  C        -5.6146715072   -2.4267885255   -0.4502106168
     19  C        -2.8114153858    0.9268125093    1.4006199691
     20  C        -2.5708386128    2.4523300920    1.4931348839
     21  C        -3.7392043855    2.9774026078    0.6456597446
     22  C        -4.4899596748    1.6518963465    0.3450782972
     23  O        -4.2375283020    0.8354805333    1.4948095724
     24  H        -1.6005357042    0.9978232491   -0.4306100964
     25  H        -3.5888461187    1.4784069477   -1.7007780673
     26  H        -2.2390738894    0.3902642752    2.1859205387
     27  H        -2.7356911200    2.7449096182    2.5503078729
     28  H        -1.5659477309    2.7939685824    1.1772508951
     29  H        -4.3617716819    3.6448686069    1.2737333743
     30  H        -3.4481486844    3.4999916643   -0.2863806313
     31  H        -5.5603957391    1.8474813258    0.1223896720
     32  O         2.5756271389   -0.8532261737    1.6946060193
     33  C         6.9555818544   -1.0441503579    0.5166279498
     34  C         4.1383369221    1.8445965860   -0.4916559396
     35  C         3.4301580652    2.8806157496   -1.4029942499
     36  C         1.9725986777    2.7271190625   -0.9395073417
     37  C         2.1368838415    1.6515561429    0.1636003522
     38  O         3.4145315534    1.9496744861    0.7396802056
     39  H         3.8388748299    0.3653757260   -2.1000879992
     40  H         1.6520333675    0.0900580786   -1.3308384532
     41  H         7.3347671914   -1.7357378485   -0.2680507680
     42  H         5.2233893147    2.0679598349   -0.4361897342
     43  H         3.7865169788    3.8922506575   -1.1218271552
     44  H         3.6031869810    2.7207259821   -2.4848233317
     45  H         1.6445598203    3.6775184471   -0.4726183118
     46  H         1.2518560382    2.4345638257   -1.7276313909
     47  H         1.2753518057    1.6687206013    0.8644836097
     48  H         6.5512149549   -1.6422922224    1.3630676115
     49  H         7.8016740264   -0.4312496403    0.8881695550
     50  H        -5.3281828325   -3.2034064056    0.2876124405
     51  H        -5.6237352313   -2.8851781096   -1.4636179138
     52  H        -6.6379529252   -2.0647968689   -0.2043444415
     53  H        -0.8979220324   -3.2660066077   -0.2067975006
     54  H        -1.1820933578   -3.1500885999    1.5609763356
     55  H         1.1604936768   -2.6538288952    1.8891593023
     56  H         1.2206381182   -3.9227885349    0.6547315222
   Point Group: c1    Number of degrees of freedom:   162


   Energy is  -1510.175080369

              Constraints and their Current Values
                                        Value     Constraint
   Dihedral:        1   2   3   4       43.374       43.385
   Dihedral:        3   4   5   6     -100.096     -100.129
   Dihedral:        4   5   6   7     -160.879     -160.885
   Dihedral:        5   6   7   8      103.111      103.128
   Dihedral:        6   7   8   9      -37.495      -37.495
   Dihedral:        7   8   9  10      154.074      154.109
   Dihedral:        8   9  10  11      168.301      168.300
   Dihedral:        9  10  11  12      177.692      177.780
   Dihedral:       11  12  13  14      174.206      174.323
 Hessian Updated using BFGS Update

   Using Lagrange Multiplier Algorithm


157 Hessian modes will be used to form the next step
  Hessian Eigenvalues:
    -0.977753   -0.977753   -0.977753   -0.977753   -0.977753   -0.977753
    -0.977753   -0.976549    0.044998    0.045000    0.045209    0.045542
     0.045624    0.046049    0.048852    0.048913    0.049077    0.050767
     0.054252    0.059916    0.060026    0.062272    0.063186    0.066967
     0.067199    0.067734    0.067825    0.069273    0.070559    0.072972
     0.073987    0.074233    0.075735    0.076068    0.076760    0.077270
     0.082355    0.082597    0.083496    0.083727    0.084276    0.084533
     0.085338    0.085797    0.086779    0.086847    0.087354    0.087633
     0.088270    0.088882    0.089063    0.089412    0.089823    0.089852
     0.093713    0.093820    0.096631    0.096650    0.111537    0.111681
     0.114533    0.114657    0.115908    0.115994    0.116750    0.117299
     0.117962    0.118725    0.119335    0.121689    0.123608    0.130685
     0.131689    0.131955    0.140004    0.141386    0.159675    0.161251
     0.170877    0.171728    0.172473    0.173525    0.212774    0.218929
     0.219985    0.228189    0.238251    0.239558    0.241336    0.243429
     0.249251    0.254863    0.258492    0.263129    0.267528    0.267590
     0.278459    0.281002    0.284367    0.288465    0.295459    0.297286
     0.302000    0.308832    0.310453    0.312081    0.319999    0.321031
     0.321575    0.322194    0.322478    0.322558    0.322830    0.322920
     0.323004    0.323080    0.323314    0.323569    0.324038    0.324085
     0.324327    0.324357    0.324417    0.324515    0.324621    0.324927
     0.325001    0.325042    0.325059    0.325096    0.326738    0.326944
     0.330376    0.367570    0.369152    0.383107    0.399692    0.405565
     0.411174    0.473594    0.490258    0.516208    0.522666    0.527341
     0.545085    0.924541    0.929484    0.941987    0.997408    1.022753
     1.022753    1.022753    1.022753    1.022753    1.022753    1.022753
     1.043410

 Minimum Search - Taking P-RFO Step
 Searching for Lamda that Maximizes Along the Constraint modes Only
 Value Taken    Lamda =   0.00010446
 Searching for Lamda that Minimizes Along All other modes
 Value Taken    Lamda =  -0.09609952
 Calculated Step too Large.  Step scaled by  0.555023
 Step Taken.  Stepsize is  0.300000

                             Maximum     Tolerance    Cnvgd?
         Gradient            0.071700       0.000300      NO
         Displacement        0.082658       0.001200      NO
         Energy change     -0.075793       0.000001      NO


 New Cartesian Coordinates Obtained by Inverse Iteration

 Displacement from previous Coordinates is:  1.212943
 Adding empirical dispersion correction 
 ----------------------------------------------------------------
 Doing -D3(op) with
 s6 =   1.00000
 s8 =   0.78311
 a1 =   0.30000
 a2 =   4.25000
 n  =  10.00000
 -D3 energy without 3body term =     -0.0668855903 hartrees
 ----------------------------------------------------------------
             Standard Nuclear Orientation (Angstroms)
    I     Atom           X                Y                Z
 ----------------------------------------------------------------
    1      O       4.5799361345    -1.8658490038    -0.4752762103
    2      C       4.7923398096    -0.6375488559    -0.5048730496
    3      C       3.7894508176     0.4397738608    -0.9799767802
    4      C       2.3189633959     0.2601849103    -0.4804862286
    5      C       2.1010015184    -0.8734115883     0.5501827019
    6      O       1.5805941397    -2.0000495712    -0.1120693344
    7      C       0.9420957227    -2.9233314005     0.8137981318
    8      C      -0.6027233600    -2.7667181640     0.7017193479
    9      O      -0.8869923968    -1.3506399113     0.5034938262
   10      C      -2.0997255757    -1.1111533400    -0.1686197844
   11      C      -2.4426819396     0.3973776712    -0.0622678595
   12      C      -3.7441683327     0.8423021276    -0.8102551056
   13      C      -4.7639174227    -0.2701014832    -1.1754485057
   14      O      -5.8892532787    -0.0584911120    -1.6792352572
   15      O       5.9579753437    -0.0877216063     0.0307738285
   16      O      -4.6555565728    -1.3890332642    -0.3346973092
   17      O      -2.4072392594    -1.8215275386    -1.1523653906
   18      C      -5.6836858215    -2.3772238803    -0.4464439080
   19      C      -2.7298618184     0.9063538745     1.3951335935
   20      C      -2.4404512302     2.4388649903     1.4540833525
   21      C      -3.6200129439     2.9886981261     0.6098742569
   22      C      -4.4256802995     1.6726855063     0.3458495686
   23      O      -4.1768663292     0.8531911083     1.5201100214
   24      H      -1.5562568939     0.9237439918    -0.4711734024
   25      H      -3.5509894721     1.4470182591    -1.7163451244
   26      H      -2.1678647871     0.3554409395     2.1760455899
   27      H      -2.5679519256     2.7592602029     2.5046450114
   28      H      -1.4347310996     2.7380250849     1.1092469741
   29      H      -4.2130433833     3.6879156271     1.2259023068
   30      H      -3.3274242171     3.4819369224    -0.3339074680
   31      H      -5.4954409635     1.8828567365     0.1423010363
   32      O       2.5380888665    -0.8831442001     1.7166740971
   33      C       6.9105346816    -1.0227419913     0.5477643332
   34      C       4.0913953521     1.8968877991    -0.4730865405
   35      C       3.3587728444     2.9206275556    -1.4022841549
   36      C       1.8873540493     2.7378305415    -0.9415655763
   37      C       2.0658019078     1.6635333969     0.1798964852
   38      O       3.3507430950     1.9927165062     0.7739395908
   39      H       3.8186767448     0.4073867095    -2.0880318420
   40      H       1.6285186182     0.0842333209    -1.3283160069
   41      H       7.2703580543    -1.7189301293    -0.2409810129
   42      H       5.1718120951     2.1287292259    -0.3961387234
   43      H       3.6946481017     3.9388359595    -1.1336184168
   44      H       3.5390809045     2.7535750886    -2.4786344167
   45      H       1.5306941292     3.6800268477    -0.4874791488
   46      H       1.1826614396     2.4237512989    -1.7317061365
   47      H       1.2107365620     1.6599774080     0.8861023840
   48      H       6.4806361730    -1.6209665689     1.3804808440
   49      H       7.7710178912    -0.4408961040     0.9316622698
   50      H      -5.4383776850    -3.1888026092     0.2660510792
   51      H      -5.7315984539    -2.8034554579    -1.4719887676
   52      H      -6.6822562709    -1.9614936074    -0.1864871139
   53      H      -0.9051981935    -3.3306066373    -0.2109483927
   54      H      -1.1481670701    -3.2109654543     1.5630199011
   55      H       1.2262058961    -2.6932535173     1.8661277244
   56      H       1.2622926763    -3.9702344356     0.6309169561
 ----------------------------------------------------------------
 Molecular Point Group                 C1    NOp =  1
 Largest Abelian Subgroup              C1    NOp =  1
 Nuclear Repulsion Energy =  3178.9020753817 hartrees
 There are      113 alpha and      113 beta electrons
 Applying Cartesian multipole field
    Component          Value
    ---------          -----
     (2,0,0)        1.00000E-12
     (0,2,0)        2.00000E-11
     (0,0,2)       -3.00000E-11
 Nucleus-field energy     =     0.0000000415 hartrees
 Requested basis set is STO-3G
 There are 86 shells and 176 basis functions
 A cutoff of  1.0D-12 yielded   2297 shell pairs
 There are     10886 function pairs
 Smallest overlap matrix eigenvalue = 2.06E-01
 Guess MOs from SCF MO coefficient file
 Reading MOs from coefficient file
 Reading MOs from coefficient file
 A restricted hybrid HF-DFT SCF calculation will be
 performed using Pulay DIIS extrapolation
 Exchange:     0.2000 Hartree-Fock + 0.0800 Slater + 0.7200 B88
 Correlation:  0.1900 VWN1RPA + 0.8100 LYP
 Using SG-1 standard quadrature grid
 Dispersion:   Grimme D3
 SCF converges when DIIS error is below 1.0E-08
 Geometry optimization detected.  Setting ReadMinima to 0
 Setting SaveMinima to 0
 using 48 threads for integral computing
 -------------------------------------------------------
 OpenMP Integral computing Module                
 Release: version 1.0, May 2013, Q-Chem Inc. Pittsburgh 
 -------------------------------------------------------
 -------------------------------------------------------
 OpenMP BLAS3 based DFT computing Module                
 Release: version 1.0, May 2013, Q-Chem Inc. Pittsburgh 
 -------------------------------------------------------
 ---------------------------------------
  Cycle       Energy         DIIS Error
 ---------------------------------------
    1   -1510.0790185625      2.94E-03
    2   -1510.2153265979      7.94E-04
    3   -1510.2096473718      1.40E-03
    4   -1510.2179977697      2.50E-04
    5   -1510.2182826490      5.44E-05
    6   -1510.2182945354      2.17E-05
    7   -1510.2182958599      1.37E-05
    8   -1510.2182966794      2.43E-06
    9   -1510.2182967102      7.73E-07
   10   -1510.2182967119      4.86E-07
   11   -1510.2182967128      1.16E-07
   12   -1510.2182967130      2.74E-08
   13   -1510.2182967130      1.23E-08
   14   -1510.2182967130      7.04E-09 Convergence criterion met
 ---------------------------------------
 SCF time:  CPU 105.01 s  wall 2.19 s
 SCF   energy in the final basis set = -1510.21829671
 Total energy in the final basis set = -1510.21829671
 
 --------------------------------------------------------------
 
                    Orbital Energies (a.u.)
 --------------------------------------------------------------
 
 Alpha MOs
 -- Occupied --
-18.937 -18.935 -18.932 -18.924 -18.898 -18.895 -18.871 -18.870
-18.863 -18.854 -10.104 -10.102 -10.101 -10.095 -10.075 -10.074
-10.071 -10.066 -10.065 -10.064 -10.064 -10.061 -10.043 -10.041
-10.040 -10.036 -10.021 -10.020 -10.019 -10.018  -1.028  -1.024
 -1.018  -1.012  -0.993  -0.990  -0.943  -0.937  -0.933  -0.924
 -0.772  -0.770  -0.734  -0.731  -0.724  -0.714  -0.704  -0.668
 -0.661  -0.623  -0.604  -0.581  -0.551  -0.547  -0.538  -0.536
 -0.522  -0.516  -0.490  -0.487  -0.475  -0.472  -0.453  -0.449
 -0.442  -0.439  -0.427  -0.417  -0.415  -0.414  -0.412  -0.409
 -0.395  -0.384  -0.383  -0.377  -0.371  -0.359  -0.358  -0.348
 -0.345  -0.342  -0.341  -0.335  -0.335  -0.326  -0.324  -0.316
 -0.311  -0.307  -0.305  -0.300  -0.290  -0.289  -0.285  -0.277
 -0.271  -0.251  -0.246  -0.241  -0.239  -0.234  -0.229  -0.177
 -0.175  -0.171  -0.164  -0.155  -0.155  -0.149  -0.143  -0.141
 -0.137
 -- Virtual --
  0.083   0.095   0.096   0.111   0.228   0.244   0.253   0.260
  0.277   0.288   0.292   0.308   0.322   0.331   0.338   0.342
  0.354   0.355   0.359   0.362   0.368   0.371   0.373   0.385
  0.386   0.390   0.397   0.401   0.407   0.408   0.410   0.415
  0.418   0.422   0.427   0.429   0.432   0.435   0.436   0.439
  0.444   0.446   0.450   0.456   0.460   0.467   0.469   0.472
  0.475   0.477   0.480   0.493   0.496   0.516   0.521   0.546
  0.546   0.553   0.555   0.627   0.646   0.651   0.661
 --------------------------------------------------------------
 
          Ground-State Mulliken Net Atomic Charges

     Atom                 Charge (a.u.)
  ----------------------------------------
      1 O                    -0.221621
      2 C                     0.217993
      3 C                    -0.078846
      4 C                    -0.079437
      5 C                     0.225229
      6 O                    -0.172985
      7 C                    -0.044493
      8 C                    -0.045814
      9 O                    -0.190225
     10 C                     0.223341
     11 C                    -0.078816
     12 C                    -0.076324
     13 C                     0.216898
     14 O                    -0.225983
     15 O                    -0.185315
     16 O                    -0.183395
     17 O                    -0.205429
     18 C                    -0.112009
     19 C                     0.030046
     20 C                    -0.143479
     21 C                    -0.145221
     22 C                     0.031244
     23 O                    -0.194684
     24 H                     0.086191
     25 H                     0.087599
     26 H                     0.086727
     27 H                     0.076880
     28 H                     0.072188
     29 H                     0.078032
     30 H                     0.073643
     31 H                     0.087897
     32 O                    -0.212698
     33 C                    -0.113830
     34 C                     0.030421
     35 C                    -0.144353
     36 C                    -0.145342
     37 C                     0.031833
     38 O                    -0.192137
     39 H                     0.085835
     40 H                     0.085431
     41 H                     0.086807
     42 H                     0.092660
     43 H                     0.075883
     44 H                     0.072788
     45 H                     0.074833
     46 H                     0.071479
     47 H                     0.081895
     48 H                     0.091651
     49 H                     0.092789
     50 H                     0.089647
     51 H                     0.087535
     52 H                     0.087051
     53 H                     0.090934
     54 H                     0.084096
     55 H                     0.093640
     56 H                     0.091319
  ----------------------------------------
  Sum of atomic charges =     0.000000

 -----------------------------------------------------------------
                    Cartesian Multipole Moments
 -----------------------------------------------------------------
    Charge (ESU x 10^10)
                 0.0000
    Dipole Moment (Debye)
         X       1.2436      Y       0.8077      Z      -0.5197
       Tot       1.5713
    Quadrupole Moments (Debye-Ang)
        XX    -162.8747     XY       1.6687     YY    -150.6495
        XZ     -10.0560     YZ      -7.5386     ZZ    -164.3332
    Octopole Moments (Debye-Ang^2)
       XXX     181.3466    XXY     -33.9302    XYY     -35.9916
       YYY     -51.2836    XXZ      16.9884    XYZ     -12.7949
       YYZ      12.0206    XZZ      18.3980    YZZ     -11.2750
       ZZZ      -5.6426
    Hexadecapole Moments (Debye-Ang^3)
      XXXX  -13077.5937   XXXY     -31.7311   XXYY   -2700.4768
      XYYY      -2.0136   YYYY   -3184.9022   XXXZ    -172.6235
      XXYZ     -29.8691   XYYZ     -13.7764   YYYZ       4.2807
      XXZZ   -2559.6346   XYZZ     -24.3811   YYZZ    -708.4105
      XZZZ     -50.4421   YZZZ      41.1929   ZZZZ    -975.5387
 -----------------------------------------------------------------
 Calculating analytic gradient of the SCF energy
 Gradient of SCF Energy
            1           2           3           4           5           6
    1   0.0049579   0.0073728  -0.0088874   0.0175797  -0.0284632   0.0131067
    2   0.0142833   0.0240228  -0.0065481   0.0025725  -0.0027595   0.0086317
    3   0.0059088  -0.0169537   0.0210795   0.0132238  -0.0032937   0.0216212
            7           8           9          10          11          12
    1  -0.0041483   0.0054517  -0.0120470  -0.0176036  -0.0061304  -0.0093079
    2   0.0066306   0.0231527  -0.0134200  -0.0025548  -0.0039280   0.0008488
    3  -0.0362181   0.0311981  -0.0462558   0.0514157   0.0001154   0.0088736
           13          14          15          16          17          18
    1   0.0432639   0.0041857  -0.0017475  -0.0499898   0.0146351   0.0245220
    2  -0.0002838  -0.0101558  -0.0544133   0.0028924   0.0155933   0.0104700
    3  -0.0211399   0.0326750   0.0067436  -0.0277799   0.0000315   0.0098599
           19          20          21          22          23          24
    1  -0.0282384  -0.0087808   0.0016006   0.0174002   0.0184357   0.0018140
    2   0.0005894  -0.0091600  -0.0120715  -0.0195725   0.0135983   0.0005339
    3  -0.0069540  -0.0114855   0.0026509   0.0166121  -0.0183925  -0.0003105
           25          26          27          28          29          30
    1  -0.0015661   0.0083255  -0.0046577   0.0022990   0.0014101  -0.0010788
    2   0.0000941   0.0054078  -0.0010818   0.0025984  -0.0000101  -0.0000512
    3  -0.0027101  -0.0006029   0.0026555   0.0012795   0.0062890  -0.0032611
           31          32          33          34          35          36
    1   0.0014206   0.0075246  -0.0118587  -0.0199512  -0.0040325   0.0104336
    2   0.0074913  -0.0018652   0.0266482  -0.0039685  -0.0118635  -0.0092953
    3  -0.0059914  -0.0156957  -0.0070060   0.0187737   0.0075861   0.0030870
           37          38          39          40          41          42
    1   0.0264814  -0.0083313   0.0020662  -0.0024242  -0.0004102   0.0010063
    2   0.0029594  -0.0061701  -0.0010577   0.0000827   0.0015861   0.0038296
    3   0.0014530  -0.0290245  -0.0013887  -0.0014644  -0.0017576  -0.0101736
           43          44          45          46          47          48
    1  -0.0018202   0.0014295   0.0037760  -0.0026423  -0.0073017  -0.0012064
    2   0.0023659   0.0009809   0.0034018  -0.0005506   0.0002609   0.0015969
    3   0.0046598  -0.0024280   0.0025107  -0.0008302  -0.0068598   0.0007337
           49          50          51          52          53          54
    1   0.0016242  -0.0019396   0.0022161   0.0008837   0.0069562  -0.0026796
    2  -0.0015689  -0.0017131   0.0004218   0.0011568  -0.0018193  -0.0041451
    3   0.0008837  -0.0001499  -0.0006327   0.0017023  -0.0011346  -0.0038659
           55          56
    1  -0.0068243   0.0018901
    2  -0.0035570  -0.0011174
    3   0.0028134   0.0073239
 Max gradient component =       5.441E-02
 RMS gradient           =       1.368E-02
 Gradient time:  CPU 32.11 s  wall 0.68 s
 Geometry Optimization Parameters
   NAtoms,    NIC,     NZ,  NCons,   NDum,   NFix, NCnnct, MaxDiis
       56     458       0       9       0       0       0       0

 Cartesian Hessian Update
 Hessian Updated using BFGS Update


** CONSTRAINED OPTIMIZATION IN DELOCALIZED INTERNAL COORDINATES **
   Searching for a Minimum

   Optimization Cycle:   3

                       Coordinates (Angstroms)
     ATOM                X               Y               Z
      1  O         4.5799361345   -1.8658490038   -0.4752762103
      2  C         4.7923398096   -0.6375488559   -0.5048730496
      3  C         3.7894508176    0.4397738608   -0.9799767802
      4  C         2.3189633959    0.2601849103   -0.4804862286
      5  C         2.1010015184   -0.8734115883    0.5501827019
      6  O         1.5805941397   -2.0000495712   -0.1120693344
      7  C         0.9420957227   -2.9233314005    0.8137981318
      8  C        -0.6027233600   -2.7667181640    0.7017193479
      9  O        -0.8869923968   -1.3506399113    0.5034938262
     10  C        -2.0997255757   -1.1111533400   -0.1686197844
     11  C        -2.4426819396    0.3973776712   -0.0622678595
     12  C        -3.7441683327    0.8423021276   -0.8102551056
     13  C        -4.7639174227   -0.2701014832   -1.1754485057
     14  O        -5.8892532787   -0.0584911120   -1.6792352572
     15  O         5.9579753437   -0.0877216063    0.0307738285
     16  O        -4.6555565728   -1.3890332642   -0.3346973092
     17  O        -2.4072392594   -1.8215275386   -1.1523653906
     18  C        -5.6836858215   -2.3772238803   -0.4464439080
     19  C        -2.7298618184    0.9063538745    1.3951335935
     20  C        -2.4404512302    2.4388649903    1.4540833525
     21  C        -3.6200129439    2.9886981261    0.6098742569
     22  C        -4.4256802995    1.6726855063    0.3458495686
     23  O        -4.1768663292    0.8531911083    1.5201100214
     24  H        -1.5562568939    0.9237439918   -0.4711734024
     25  H        -3.5509894721    1.4470182591   -1.7163451244
     26  H        -2.1678647871    0.3554409395    2.1760455899
     27  H        -2.5679519256    2.7592602029    2.5046450114
     28  H        -1.4347310996    2.7380250849    1.1092469741
     29  H        -4.2130433833    3.6879156271    1.2259023068
     30  H        -3.3274242171    3.4819369224   -0.3339074680
     31  H        -5.4954409635    1.8828567365    0.1423010363
     32  O         2.5380888665   -0.8831442001    1.7166740971
     33  C         6.9105346816   -1.0227419913    0.5477643332
     34  C         4.0913953521    1.8968877991   -0.4730865405
     35  C         3.3587728444    2.9206275556   -1.4022841549
     36  C         1.8873540493    2.7378305415   -0.9415655763
     37  C         2.0658019078    1.6635333969    0.1798964852
     38  O         3.3507430950    1.9927165062    0.7739395908
     39  H         3.8186767448    0.4073867095   -2.0880318420
     40  H         1.6285186182    0.0842333209   -1.3283160069
     41  H         7.2703580543   -1.7189301293   -0.2409810129
     42  H         5.1718120951    2.1287292259   -0.3961387234
     43  H         3.6946481017    3.9388359595   -1.1336184168
     44  H         3.5390809045    2.7535750886   -2.4786344167
     45  H         1.5306941292    3.6800268477   -0.4874791488
     46  H         1.1826614396    2.4237512989   -1.7317061365
     47  H         1.2107365620    1.6599774080    0.8861023840
     48  H         6.4806361730   -1.6209665689    1.3804808440
     49  H         7.7710178912   -0.4408961040    0.9316622698
     50  H        -5.4383776850   -3.1888026092    0.2660510792
     51  H        -5.7315984539   -2.8034554579   -1.4719887676
     52  H        -6.6822562709   -1.9614936074   -0.1864871139
     53  H        -0.9051981935   -3.3306066373   -0.2109483927
     54  H        -1.1481670701   -3.2109654543    1.5630199011
     55  H         1.2262058961   -2.6932535173    1.8661277244
     56  H         1.2622926763   -3.9702344356    0.6309169561
   Point Group: c1    Number of degrees of freedom:   162


   Energy is  -1510.218296713

              Constraints and their Current Values
                                        Value     Constraint
   Dihedral:        1   2   3   4       43.375       43.385
   Dihedral:        3   4   5   6     -100.109     -100.129
   Dihedral:        4   5   6   7     -160.880     -160.885
   Dihedral:        5   6   7   8      103.139      103.128
   Dihedral:        6   7   8   9      -37.495      -37.495
   Dihedral:        7   8   9  10      154.106      154.109
   Dihedral:        8   9  10  11      168.298      168.300
   Dihedral:        9  10  11  12      177.761      177.780
   Dihedral:       11  12  13  14      174.300      174.323
 Hessian Updated using BFGS Update

   Using Lagrange Multiplier Algorithm


160 Hessian modes will be used to form the next step
  Hessian Eigenvalues:
    -0.977754   -0.977753   -0.977753   -0.977753   -0.977753   -0.977753
    -0.977713   -0.976358    0.044853    0.045000    0.045001    0.045117
     0.045419    0.045546    0.045956    0.048665    0.048857    0.049744
     0.051772    0.054148    0.058972    0.059998    0.062264    0.062632
     0.066926    0.067052    0.067729    0.067921    0.069243    0.070456
     0.072110    0.073980    0.074226    0.075733    0.076044    0.076982
     0.077270    0.082330    0.082474    0.083491    0.083736    0.084281
     0.084545    0.085344    0.085752    0.086378    0.086803    0.087377
     0.087629    0.088264    0.088965    0.089225    0.089414    0.089818
     0.089994    0.093680    0.093752    0.096611    0.096650    0.111537
     0.111680    0.114522    0.114647    0.115908    0.115994    0.116821
     0.117522    0.117939    0.118725    0.119233    0.121702    0.123624
     0.130684    0.130932    0.131946    0.139874    0.141510    0.159724
     0.160026    0.161449    0.171177    0.171578    0.173119    0.173964
     0.210575    0.219015    0.220243    0.235511    0.238261    0.239482
     0.241891    0.243477    0.249247    0.253279    0.257713    0.259795
     0.264414    0.267545    0.268170    0.279101    0.281017    0.284450
     0.289480    0.295466    0.297421    0.302610    0.308274    0.310522
     0.312398    0.318860    0.320951    0.321499    0.322172    0.322424
     0.322565    0.322791    0.322917    0.323011    0.323091    0.323314
     0.323582    0.324035    0.324067    0.324326    0.324362    0.324416
     0.324485    0.324615    0.324925    0.324997    0.325043    0.325060
     0.325097    0.326767    0.326958    0.332094    0.367572    0.369220
     0.383637    0.390440    0.404445    0.407490    0.462046    0.489705
     0.515996    0.516908    0.525686    0.540116    0.924607    0.931095
     0.942414    1.002504    1.022753    1.022753    1.022753    1.022753
     1.022753    1.022753    1.022984    1.048586

 Minimum Search - Taking P-RFO Step
 Searching for Lamda that Maximizes Along the Constraint modes Only
 Value Taken    Lamda =   0.00003253
 Searching for Lamda that Minimizes Along All other modes
 Value Taken    Lamda =  -0.05282201
 Calculated Step too Large.  Step scaled by  0.565254
 Step Taken.  Stepsize is  0.300000

                             Maximum     Tolerance    Cnvgd?
         Gradient            0.039662       0.000300      NO
         Displacement        0.077327       0.001200      NO
         Energy change     -0.043216       0.000001      NO


 New Cartesian Coordinates Obtained by Inverse Iteration

 Displacement from previous Coordinates is:  2.358077
 Adding empirical dispersion correction 
 ----------------------------------------------------------------
 Doing -D3(op) with
 s6 =   1.00000
 s8 =   0.78311
 a1 =   0.30000
 a2 =   4.25000
 n  =  10.00000
 -D3 energy without 3body term =     -0.0672079748 hartrees
 ----------------------------------------------------------------
             Standard Nuclear Orientation (Angstroms)
    I     Atom           X                Y                Z
 ----------------------------------------------------------------
    1      O       4.6057544188    -1.8010124005    -0.4042682717
    2      C       4.7792169570    -0.5643811869    -0.4519315507
    3      C       3.7485690140     0.4863036391    -0.9646492791
    4      C       2.2737705071     0.2543782150    -0.4733826534
    5      C       2.0995307335    -0.8961569472     0.5608879514
    6      O       1.6216379393    -2.0486507439    -0.1205802103
    7      C       1.0170132487    -2.9972538959     0.8190750413
    8      C      -0.5384361476    -2.8820969678     0.6942719354
    9      O      -0.8275656370    -1.4578024164     0.4862008443
   10      C      -2.0511353008    -1.2392912165    -0.2083580218
   11      C      -2.3721321717     0.2869754866    -0.0887805334
   12      C      -3.6669608849     0.8006633325    -0.8308608629
   13      C      -4.8040928398    -0.2255757698    -1.1649092437
   14      O      -5.9125426782     0.0930889856    -1.6573792887
   15      O       5.9314835404     0.0587793541     0.0752317507
   16      O      -4.7565367655    -1.3596223625    -0.3137593913
   17      O      -2.3891488573    -1.9934219914    -1.1496200915
   18      C      -5.9266684520    -2.2107235891    -0.4461193566
   19      C      -2.6156722155     0.8180256860     1.3764891991
   20      C      -2.2399167283     2.3409256087     1.4174824748
   21      C      -3.4013673571     2.9540280727     0.5773158974
   22      C      -4.2923963183     1.6814103658     0.3337443704
   23      O      -4.0771460501     0.8437224158     1.5208326487
   24      H      -1.4705397099     0.7703930370    -0.5145082457
   25      H      -3.4450795482     1.3921116287    -1.7374482778
   26      H      -2.0839834015     0.2346445579     2.1540030390
   27      H      -2.3262438314     2.6823953712     2.4636132673
   28      H      -1.2254125345     2.5715468111     1.0510137698
   29      H      -3.9481053549     3.6955779363     1.1835317256
   30      H      -3.0870542661     3.4181162112    -0.3723726039
   31      H      -5.3537918279     1.9398931633     0.1472093621
   32      O       2.4919785805    -0.8929456133     1.7463321811
[...]
     15  O         5.9639602304    0.2885284580    0.1566424320
     16  O        -4.8438203095   -1.3695438664   -0.2613271364
     17  O        -2.6305382898   -2.2273271499   -1.0548749664
     18  C        -6.1210336024   -2.1184378398   -0.2382828272
     19  C        -2.5880520695    0.7095466381    1.3150053587
     20  C        -1.9464204212    2.1492785328    1.3315048934
     21  C        -2.9679005802    2.9209007415    0.4146779082
     22  C        -4.1080152938    1.8407343852    0.2309296782
     23  O        -4.0306234453    1.0095042111    1.4602587212
     24  H        -1.5580830995    0.6956421416   -0.6231080339
     25  H        -3.5015888418    1.2001967076   -1.8646192627
     26  H        -2.2425914507    0.0129048704    2.1030737341
     27  H        -1.9387412735    2.5552458822    2.3560403764
     28  H        -0.9198001799    2.1622368829    0.9337697005
     29  H        -3.3637145395    3.8216677802    0.9093131914
     30  H        -2.5270786335    3.2157399574   -0.5513759404
     31  H        -5.1283422762    2.2522087830    0.1037642003
     32  O         2.2256996747   -0.9946594641    1.7272907708
     33  C         6.9279727060   -0.6268599939    0.8110918246
     34  C         3.9358425190    2.0371021633   -0.4791794250
     35  C         3.0568200734    2.9568889293   -1.4178594018
     36  C         1.6127333171    2.6887196398   -0.8520241700
     37  C         1.9244059515    1.6101312943    0.2566228393
     38  O         3.2179691757    2.0611548937    0.8173364498
     39  H         3.8815497777    0.4075881615   -2.0288004371
     40  H         1.6268847559    0.0730839768   -1.3511892690
     41  H         7.3004970316   -1.3973022999    0.1050411204
     42  H         4.9881243312    2.3526418432   -0.3471655481
     43  H         3.3465403610    4.0135738002   -1.3058354581
     44  H         3.1534460362    2.6742397834   -2.4782847169
     45  H         1.1825114269    3.5951932233   -0.3964713733
     46  H         0.9159831396    2.3133172589   -1.6187794734
     47  H         1.1696419433    1.5120172452    1.0602987791
     48  H         6.4732762246   -1.1378765017    1.6837974229
     49  H         7.7695927621    0.0068899157    1.1458320199
     50  H        -5.9261407905   -3.0279803920    0.3590175804
     51  H        -6.4420008368   -2.4080749189   -1.2596067319
     52  H        -6.9322774092   -1.5268811938    0.2331821914
     53  H        -0.9140716196   -3.5341566977   -0.4274296034
     54  H        -1.0359941331   -3.4086432482    1.3695276209
     55  H         1.3541444230   -2.9030196429    1.6389879439
     56  H         1.3729696272   -4.1152729317    0.2815560144
   Point Group: c1    Number of degrees of freedom:   162


   Energy is  -1510.266444286

              Constraints and their Current Values
                                        Value     Constraint
   Dihedral:        1   2   3   4       43.385       43.385
   Dihedral:        3   4   5   6     -100.129     -100.129
   Dihedral:        4   5   6   7     -160.885     -160.885
   Dihedral:        5   6   7   8      103.128      103.128
   Dihedral:        6   7   8   9      -37.495      -37.495
   Dihedral:        7   8   9  10      154.109      154.109
   Dihedral:        8   9  10  11      168.300      168.300
   Dihedral:        9  10  11  12      177.780      177.780
   Dihedral:       11  12  13  14      174.323      174.323
 Hessian Updated using BFGS Update

153 Hessian modes will be used to form the next step
  Hessian Eigenvalues:
     0.002762    0.006411    0.015754    0.020413    0.033056    0.045016
     0.045068    0.045175    0.045212    0.045444    0.048619    0.049239
     0.052145    0.055006    0.055627    0.060517    0.063652    0.066212
     0.066990    0.067745    0.068302    0.068794    0.069596    0.070624
     0.073978    0.074313    0.075641    0.076244    0.077072    0.078571
     0.082110    0.082355    0.083630    0.083705    0.084291    0.084565
     0.085400    0.085681    0.086683    0.086869    0.087960    0.088075
     0.088361    0.089083    0.089472    0.089696    0.089882    0.092309
     0.093675    0.094219    0.096648    0.096838    0.111510    0.111665
     0.114606    0.114719    0.115900    0.115993    0.116583    0.118281
     0.118575    0.118965    0.121939    0.123141    0.126482    0.128986
     0.131307    0.132019    0.141379    0.155892    0.160001    0.160016
     0.160036    0.160072    0.161177    0.161564    0.171043    0.172582
     0.173395    0.197688    0.220458    0.222042    0.235608    0.239414
     0.242025    0.242287    0.243534    0.248913    0.249651    0.251243
     0.252533    0.258252    0.261973    0.267206    0.267475    0.276095
     0.278795    0.282997    0.283450    0.290522    0.295547    0.296085
     0.299033    0.306946    0.310502    0.311513    0.316711    0.320430
     0.320993    0.321828    0.322139    0.322227    0.322566    0.322743
     0.322996    0.323071    0.323382    0.323638    0.323992    0.324015
     0.324126    0.324314    0.324369    0.324545    0.324871    0.324934
     0.325014    0.325053    0.325075    0.325594    0.326801    0.327331
     0.332809    0.337139    0.359112    0.365852    0.367272    0.380164
     0.401937    0.415088    0.427381    0.469919    0.487067    0.491627
     0.523946    0.528064    0.556985    0.560984    0.659307    0.926624
     0.933614    0.942498    1.041242

 Minimum Search - Taking Simple RFO Step
 Searching for Lamda that Minimizes Along All modes
 Value Taken    Lamda =   0.00000000
 Step Taken.  Stepsize is  0.003412

                             Maximum     Tolerance    Cnvgd?
         Gradient           0.000038      0.000300     YES
         Displacement       0.000778      0.001200     YES
         Energy change     -0.000000      0.000001     YES

 Final energy is   -1510.26644428575     


 ******************************
 **  OPTIMIZATION CONVERGED  **
 ******************************

                       Coordinates (Angstroms)
     ATOM                X               Y               Z
      1  O         4.6399246459   -1.6617845594   -0.0466876501
      2  C         4.7911076208   -0.4321582082   -0.2236878191
      3  C         3.7695339205    0.5287374237   -0.9352799073
      4  C         2.2772128160    0.2458983817   -0.4755408946
      5  C         2.0998086637   -0.9816848374    0.4833934506
      6  O         1.6377689298   -2.0971996840   -0.2958776912
      7  C         1.0274439788   -3.1097353009    0.5968635382
      8  C        -0.5354845361   -2.9942805159    0.4667093593
      9  O        -0.8338899893   -1.5469248677    0.3327262015
     10  C        -2.0727167190   -1.3458548462   -0.3697479265
     11  C        -2.4276580361    0.1712684885   -0.1814168432
     12  C        -3.7168747429    0.7584284359   -0.8755177635
     13  C        -5.0102361725   -0.1431448650   -0.9688902206
     14  O        -6.1154068041    0.2530431611   -1.4043065858
     15  O         5.9639602304    0.2885284580    0.1566424320
     16  O        -4.8438203095   -1.3695438664   -0.2613271364
     17  O        -2.6305382898   -2.2273271499   -1.0548749664
     18  C        -6.1210336024   -2.1184378398   -0.2382828272
     19  C        -2.5880520695    0.7095466381    1.3150053587
     20  C        -1.9464204212    2.1492785328    1.3315048934
     21  C        -2.9679005802    2.9209007415    0.4146779082
     22  C        -4.1080152938    1.8407343852    0.2309296782
     23  O        -4.0306234453    1.0095042111    1.4602587212
     24  H        -1.5580830995    0.6956421416   -0.6231080339
     25  H        -3.5015888418    1.2001967076   -1.8646192627
     26  H        -2.2425914507    0.0129048704    2.1030737341
     27  H        -1.9387412735    2.5552458822    2.3560403764
     28  H        -0.9198001799    2.1622368829    0.9337697005
     29  H        -3.3637145395    3.8216677802    0.9093131914
     30  H        -2.5270786335    3.2157399574   -0.5513759404
     31  H        -5.1283422762    2.2522087830    0.1037642003
     32  O         2.2256996747   -0.9946594641    1.7272907708
     33  C         6.9279727060   -0.6268599939    0.8110918246
     34  C         3.9358425190    2.0371021633   -0.4791794250
     35  C         3.0568200734    2.9568889293   -1.4178594018
     36  C         1.6127333171    2.6887196398   -0.8520241700
     37  C         1.9244059515    1.6101312943    0.2566228393
     38  O         3.2179691757    2.0611548937    0.8173364498
     39  H         3.8815497777    0.4075881615   -2.0288004371
     40  H         1.6268847559    0.0730839768   -1.3511892690
     41  H         7.3004970316   -1.3973022999    0.1050411204
     42  H         4.9881243312    2.3526418432   -0.3471655481
     43  H         3.3465403610    4.0135738002   -1.3058354581
     44  H         3.1534460362    2.6742397834   -2.4782847169
     45  H         1.1825114269    3.5951932233   -0.3964713733
     46  H         0.9159831396    2.3133172589   -1.6187794734
     47  H         1.1696419433    1.5120172452    1.0602987791
     48  H         6.4732762246   -1.1378765017    1.6837974229
     49  H         7.7695927621    0.0068899157    1.1458320199
     50  H        -5.9261407905   -3.0279803920    0.3590175804
     51  H        -6.4420008368   -2.4080749189   -1.2596067319
     52  H        -6.9322774092   -1.5268811938    0.2331821914
     53  H        -0.9140716196   -3.5341566977   -0.4274296034
     54  H        -1.0359941331   -3.4086432482    1.3695276209
     55  H         1.3541444230   -2.9030196429    1.6389879439
     56  H         1.3729696272   -4.1152729317    0.2815560144

Z-matrix Print:
$molecule
0 1
O 
C  1 1.438260
O  2 1.248021 1 123.667650
C  1 1.483858 2 110.712500 3 -16.726399 0
H  4 1.110981 1 109.438340 2 33.400785 0
H  4 1.112334 1 110.252060 2 -85.981556 0
C  2 1.569431 1 105.743464 3 -174.973636 0
H  7 1.107348 2 103.432233 1 59.267975 0
C  4 1.572582 1 106.197600 2 154.108979 0
H  9 1.109014 4 110.651595 1 -156.328460 0
H  9 1.111525 4 110.858412 1 81.221043 0
O  9 1.481456 4 108.022698 1 -37.494979 0
C  12 1.437052 9 109.647227 4 103.128029 0
O  13 1.250319 12 124.319233 9 14.008092 0
C  13 1.567797 12 108.210518 9 -160.884958 0
H  15 1.104333 13 107.206729 12 23.325758 0
C  7 1.577534 2 119.460443 1 177.780013 0
H  17 1.104459 7 112.557582 2 -93.310699 0
C  17 1.579347 7 118.867967 2 36.723923 0
O  19 1.252180 17 124.244060 7 174.323027 0
O  19 1.425621 17 111.477852 7 5.812690 0
C  21 1.480759 19 110.005629 17 173.553312 0
H  22 1.105450 21 105.810874 19 -177.641546 0
H  22 1.109059 21 111.553595 19 63.360345 0
H  22 1.109205 21 111.575658 19 -58.312232 0
C  15 1.586941 13 115.033987 12 -100.129008 0
H  26 1.105899 15 111.234408 13 116.529617 0
C  26 1.572672 15 111.769202 13 -4.715371 0
O  28 1.251466 26 125.863505 15 43.385011 0
O  28 1.428154 26 110.220251 15 -138.918389 0
C  30 1.481742 28 109.886956 26 -179.305117 0
H  31 1.105448 30 105.955779 28 -175.768283 0
H  31 1.108829 30 111.441021 28 -56.423784 0
H  31 1.109443 30 111.492630 28 65.071426 0
C  26 1.584566 15 100.659272 13 -124.387190 0
H  35 1.106476 26 113.929860 15 158.462849 0
O  35 1.482186 26 102.497466 15 38.965611 0
C  37 1.480246 35 94.988793 26 -58.401415 0
H  38 1.106883 37 110.356490 35 178.532606 0
C  38 1.577844 37 103.325953 35 -57.004939 0
H  40 1.101953 38 112.390850 37 157.649282 0
H  40 1.101959 38 110.424054 37 -80.755573 0
C  40 1.573998 38 100.826015 37 37.249544 0
H  43 1.101395 40 111.606622 38 -120.483068 0
H  43 1.101694 40 112.505968 38 116.983268 0
C  17 1.596434 7 98.488911 2 146.891120 0
H  46 1.107497 17 113.454908 7 -166.693093 0
O  46 1.485996 17 100.449776 7 -48.732401 0
C  48 1.480569 46 94.755878 17 62.065623 0
H  49 1.107115 48 111.203153 46 -176.263783 0
C  49 1.576322 48 102.153365 46 59.223361 0
H  51 1.101050 49 112.736654 48 -162.556637 0
H  51 1.102062 49 110.427256 48 75.296527 0
C  51 1.574609 49 100.219876 48 -42.300084 0
H  54 1.101233 51 111.868232 49 126.198898 0
H  54 1.102050 51 112.458836 49 -111.289391 0
$end

 
 --------------------------------------------------------------
 
                    Orbital Energies (a.u.)
 --------------------------------------------------------------
 
 Alpha MOs
 -- Occupied --
-18.941 -18.932 -18.926 -18.924 -18.888 -18.888 -18.880 -18.878
-18.870 -18.863 -10.102 -10.101 -10.096 -10.094 -10.068 -10.067
-10.065 -10.061 -10.061 -10.060 -10.059 -10.058 -10.041 -10.039
-10.037 -10.036 -10.023 -10.022 -10.022 -10.021  -1.016  -1.013
 -1.006  -1.000  -0.971  -0.971  -0.940  -0.938  -0.929  -0.925
 -0.765  -0.763  -0.727  -0.723  -0.716  -0.706  -0.694  -0.664
 -0.657  -0.616  -0.600  -0.577  -0.546  -0.543  -0.539  -0.537
 -0.514  -0.509  -0.481  -0.480  -0.469  -0.462  -0.451  -0.440
 -0.436  -0.434  -0.423  -0.415  -0.412  -0.410  -0.404  -0.404
 -0.393  -0.378  -0.375  -0.367  -0.364  -0.356  -0.356  -0.348
 -0.344  -0.338  -0.334  -0.333  -0.331  -0.327  -0.317  -0.313
 -0.312  -0.308  -0.304  -0.299  -0.294  -0.293  -0.282  -0.276
 -0.269  -0.257  -0.253  -0.243  -0.240  -0.235  -0.234  -0.181
 -0.177  -0.169  -0.167  -0.157  -0.152  -0.150  -0.146  -0.145
 -0.143
 -- Virtual --
  0.093   0.100   0.105   0.108   0.219   0.239   0.243   0.249
  0.258   0.271   0.279   0.286   0.302   0.311   0.324   0.327
  0.334   0.339   0.344   0.345   0.350   0.351   0.368   0.371
  0.375   0.378   0.390   0.391   0.396   0.405   0.407   0.410
  0.414   0.417   0.420   0.422   0.426   0.428   0.429   0.430
  0.435   0.436   0.440   0.442   0.444   0.448   0.456   0.463
  0.463   0.469   0.485   0.491   0.497   0.503   0.506   0.531
  0.545   0.551   0.563   0.635   0.636   0.652   0.657
 --------------------------------------------------------------
 
          Ground-State Mulliken Net Atomic Charges

     Atom                 Charge (a.u.)
  ----------------------------------------
      1 O                    -0.211637
      2 C                     0.212113
      3 C                    -0.077153
      4 C                    -0.079708
      5 C                     0.218004
      6 O                    -0.170859
      7 C                    -0.053461
      8 C                    -0.052575
      9 O                    -0.181396
     10 C                     0.213916
     11 C                    -0.079738
     12 C                    -0.076560
     13 C                     0.211700
     14 O                    -0.221261
     15 O                    -0.167249
     16 O                    -0.160129
     17 O                    -0.202872
     18 C                    -0.125515
     19 C                     0.026228
     20 C                    -0.141238
     21 C                    -0.146221
     22 C                     0.023508
     23 O                    -0.191006
     24 H                     0.081643
     25 H                     0.084417
     26 H                     0.087700
     27 H                     0.078919
     28 H                     0.072701
     29 H                     0.079229
     30 H                     0.073014
     31 H                     0.086852
     32 O                    -0.214789
     33 C                    -0.127360
     34 C                     0.023075
     35 C                    -0.144640
     36 C                    -0.144363
     37 C                     0.024576
     38 O                    -0.188014
     39 H                     0.085784
     40 H                     0.085295
     41 H                     0.088633
     42 H                     0.092683
     43 H                     0.078312
     44 H                     0.073214
     45 H                     0.077093
     46 H                     0.071163
     47 H                     0.085242
     48 H                     0.094460
     49 H                     0.091898
     50 H                     0.090436
     51 H                     0.088999
     52 H                     0.089934
     53 H                     0.095212
     54 H                     0.082726
     55 H                     0.101117
     56 H                     0.087950
  ----------------------------------------
  Sum of atomic charges =     0.000000

 -----------------------------------------------------------------
                    Cartesian Multipole Moments
 -----------------------------------------------------------------
    Charge (ESU x 10^10)
                 0.0000
    Dipole Moment (Debye)
         X       1.8052      Y       0.6418      Z      -1.1352
       Tot       2.2269
    Quadrupole Moments (Debye-Ang)
        XX    -160.9932     XY       2.8013     YY    -152.6049
        XZ      -7.9579     YZ      -6.6135     ZZ    -163.0723
    Octopole Moments (Debye-Ang^2)
       XXX     184.4394    XXY     -47.0183    XYY     -24.1757
       YYY     -46.6677    XXZ      21.4677    XYZ      -7.7680
       YYZ       7.3213    XZZ      17.2198    YZZ     -12.0362
       ZZZ     -12.4821
    Hexadecapole Moments (Debye-Ang^3)
      XXXX  -12820.0862   XXXY     -13.1644   XXYY   -2727.4521
      XYYY    -187.5742   YYYY   -3207.6655   XXXZ    -217.9383
      XXYZ      -8.6628   XYYZ     -78.6734   YYYZ      34.1534
      XXZZ   -2459.8925   XYZZ     -62.6411   YYZZ    -707.3362
      XZZZ    -149.1967   YZZZ      67.8455   ZZZZ    -871.9266
 -----------------------------------------------------------------
Archival summary:
1\1\vega02.cac.cornell.edu\OPT\ProcedureUnspecified\STO-3G\102026\jj585\MonJan1507:13:502018MonJan1507:13:502018\0\\#,OPT,ProcedureUnspecified,STO-3G,\\0,1\O\C,1,1.43826\O,2,1.24802,1,123.668\C,1,1.48386,2,110.712,3,-16.7264,0\H,4,1.11098,1,109.438,2,33.4008,0\H,4,1.11233,1,110.252,2,-85.9816,0\C,2,1.56943,1,105.743,3,-174.974,0\H,7,1.10735,2,103.432,1,59.268,0\C,4,1.57258,1,106.198,2,154.109,0\H,9,1.10901,4,110.652,1,-156.328,0\H,9,1.11152,4,110.858,1,81.221,0\O,9,1.48146,4,108.023,1,-37.495,0\C,12,1.43705,9,109.647,4,103.128,0\O,13,1.25032,12,124.319,9,14.0081,0\C,13,1.5678,12,108.211,9,-160.885,0\H,15,1.10433,13,107.207,12,23.3258,0\C,7,1.57753,2,119.46,1,177.78,0\H,17,1.10446,7,112.558,2,-93.3107,0\C,17,1.57935,7,118.868,2,36.7239,0\O,19,1.25218,17,124.244,7,174.323,0\O,19,1.42562,17,111.478,7,5.81269,0\C,21,1.48076,19,110.006,17,173.553,0\H,22,1.10545,21,105.811,19,-177.642,0\H,22,1.10906,21,111.554,19,63.3603,0\H,22,1.1092,21,111.576,19,-58.3122,0\C,15,1.58694,13,115.034,12,-100.129,0\H,26,1.1059,15,111.234,13,116.53,0\C,26,1.57267,15,111.769,13,-4.71537,0\O,28,1.25147,26,125.864,15,43.385,0\O,28,1.42815,26,110.22,15,-138.918,0\C,30,1.48174,28,109.887,26,-179.305,0\H,31,1.10545,30,105.956,28,-175.768,0\H,31,1.10883,30,111.441,28,-56.4238,0\H,31,1.10944,30,111.493,28,65.0714,0\C,26,1.58457,15,100.659,13,-124.387,0\H,35,1.10648,26,113.93,15,158.463,0\O,35,1.48219,26,102.497,15,38.9656,0\C,37,1.48025,35,94.9888,26,-58.4014,0\H,38,1.10688,37,110.356,35,178.533,0\C,38,1.57784,37,103.326,35,-57.0049,0\H,40,1.10195,38,112.391,37,157.649,0\H,40,1.10196,38,110.424,37,-80.7556,0\C,40,1.574,38,100.826,37,37.2495,0\H,43,1.10139,40,111.607,38,-120.483,0\H,43,1.10169,40,112.506,38,116.983,0\C,17,1.59643,7,98.4889,2,146.891,0\H,46,1.1075,17,113.455,7,-166.693,0\O,46,1.486,17,100.45,7,-48.7324,0\C,48,1.48057,46,94.7559,17,62.0656,0\H,49,1.10712,48,111.203,46,-176.264,0\C,49,1.57632,48,102.153,46,59.2234,0\H,51,1.10105,49,112.737,48,-162.557,0\H,51,1.10206,49,110.427,48,75.2965,0\C,51,1.57461,49,100.22,48,-42.3001,0\H,54,1.10123,51,111.868,49,126.199,0\H,54,1.10205,51,112.459,49,-111.289,0\\\@

 Total job time:  62.27s(wall), 2966.18s(cpu) 
 Mon Jan 15 07:13:50 2018

        *************************************************************
        *                                                           *
        *  Thank you very much for using Q-Chem.  Have a nice day.  *
        *                                                           *
        *************************************************************


0 sent ACK to 0 
now end server 0 ... 
