mFile = /opt/software/qchem/qchem-5.0.1//bin/mpi/machines
Process 0 of 1 is on vega02.cac.cornell.edu - thread support 0
initial socket setup ...start
initial socket setup ...done 
now start server 0 ... 
vega02.cac.cornell.edu 10.84.3
Q-Chem Developer Version! Running on 10.84.3.*
                  Welcome to Q-Chem
     A Quantum Leap Into The Future Of Chemistry


 Q-Chem 5.0, Q-Chem, Inc., Pleasanton, CA (2017)

 Yihan Shao,  Zhengting Gan,  E. Epifanovsky,  A. T. B. Gilbert,  M. Wormit,  
 J. Kussmann,  A. W. Lange,  A. Behn,  Jia Deng,  Xintian Feng,  D. Ghosh,  
 M. Goldey,  P. R. Horn,  L. D. Jacobson,  I. Kaliman,  T. Kus,  A. Landau,  
 Jie Liu,  E. I. Proynov,  R. M. Richard,  R. P. Steele,  E. J. Sundstrom,  
 H. L. Woodcock III,  P. M. Zimmerman,  D. Zuev,  B. Albrecht,  E. Alguire,  
 S. A. Baeppler,  Z. Benda,  Y. A. Bernard,  E. J. Berquist,  K. B. Bravaya,  
 D. Casanova,  Chun-Min Chang,  Yunqing Chen,  A. Chien,  K. D. Closser,  
 M. P. Coons,  S. Dasgupta,  M. Diedenhofen,  Hainam Do,  R. G. Edgar,  
 Po-Tung Fang,  S. Fatehi,  Qingguo Feng,  Qinghui Ge,  A. Ghysels,  
 J. Gomes,  J. Gonthier,  A. Gunina,  M. W. D. Hanson-Heine,  
 P. H. P. Harbach,  A. W. Hauser,  J. E. Herr,  E. G. Hohenstein,  
 Z. C. Holden,  Kerwin Hui,  T.-C. Jagau,  Hyunjun Ji,  B. Kaduk,  
 K. Khistyaev,  Jaehoon Kim,  P. Klunzinger,  K. Koh,  D. Kosenkov,  
 T. Kowalczyk,  C. M. Krauter,  A. Kunitsa,  Ka Un Lao,  A. Laurent,  
 K. V. Lawler,  Joonho Lee,  D. Lefrancois,  S. Lehtola,  D. S. Levine,  
 Yi-Pei Li,  You-Sheng Lin,  Fenglai Liu,  E. Livshits,  A. Luenser,  
 P. Manohar,  E. Mansoor,  S. F. Manzer,  Shan-Ping Mao,  Yuezhi Mao,  
 N. Mardirossian,  A. V. Marenich,  L. A. Martinez-Martinez,  S. A. Maurer,  
 N. J. Mayhall,  S. C. McKenzie,  J.-M. Mewes,  A. F. Morrison,  K. Nanda,  
 T. S. Nguyen-Beck,  R. Olivares-Amaya,  J. A. Parkhill,  T. M. Perrine,  
 F. Plasser,  S. Prager,  A. Prociuk,  D. R. Rehn,  F. Rob,  M. Schneider,  
 N. Sergueev,  S. M. Sharada,  S. Sharma,  D. W. Small,  T. Stauch,  
 T. Stein,  Yu-Chuan Su,  A. J. W. Thom,  T. Tsuchimochi,  L. Vogt,  
 O. Vydrov,  M. A. Watson,  J. Wenzel,  M. de Wergifosse,  T. A. Wesolowski,  
 A. White,  J. Witte,  A. Yamada,  Jun Yang,  K. Yao,  S. Yeganeh,  
 S. R. Yost,  Zhi-Qiang You,  A. Zech,  Igor Ying Zhang,  Xing Zhang,  
 Yan Zhao,  Ying Zhu,  B. R. Brooks,  G. K. L. Chan,  C. J. Cramer,  
 M. S. Gordon,  W. J. Hehre,  A. Klamt,  M. W. Schmidt,  C. D. Sherrill,  
 D. G. Truhlar,  A. Aspuru-Guzik,  R. Baer,  A. T. Bell,  N. A. Besley,  
 Jeng-Da Chai,  A. Dreuw,  B. D. Dunietz,  T. R. Furlani,  Chao-Ping Hsu,  
 Yousung Jung,  Jing Kong,  D. S. Lambrecht,  WanZhen Liang,  C. Ochsenfeld,  
 V. A. Rassolov,  L. V. Slipchenko,  J. E. Subotnik,  T. Van Voorhis,  
 J. M. Herbert,  A. I. Krylov,  P. M. W. Gill,  M. Head-Gordon

 Contributors to earlier versions of Q-Chem not listed above: 
 R. D. Adamson,  B. Austin,  J. Baker,  G. J. O. Beran,  K. Brandhorst,  
 S. T. Brown,  E. F. C. Byrd,  A. K. Chakraborty,  C.-L. Cheng,  
 Siu Hung Chien,  D. M. Chipman,  D. L. Crittenden,  H. Dachsel,  
 R. A. DiStasio Jr.,  R. J. Doerksen,  A. D. Dutoi,  L. Fusti-Molnar,  
 W. A. Goddard III,  A. Golubeva-Zadorozhnaya,  S. R. Gwaltney,  G. Hawkins,  
 A. Heyden,  S. Hirata,  G. Kedziora,  F. J. Keil,  C. Kelley,  Jihan Kim,  
 R. A. King,  R. Z. Khaliullin,  P. P. Korambath,  W. Kurlancheek,  
 A. M. Lee,  M. S. Lee,  S. V. Levchenko,  Ching Yeh Lin,  D. Liotard,  
 R. C. Lochan,  I. Lotan,  P. E. Maslen,  N. Nair,  D. P. O'Neill,  
 D. Neuhauser,  E. Neuscamman,  C. M. Oana,  R. Olson,  B. Peters,  
 R. Peverati,  P. A. Pieniazek,  Y. M. Rhee,  J. Ritchie,  M. A. Rohrdanz,  
 E. Rosta,  N. J. Russ,  H. F. Schaefer III,  N. E. Schultz,  N. Shenvi,  
 A. C. Simmonett,  A. Sodt,  D. Stuck,  K. S. Thanthiriwatte,  V. Vanovschi,  
 Tao Wang,  A. Warshel,  C. F. Williams,  Q. Wu,  X. Xu,  W. Zhang

 Please cite Q-Chem as follows:
 Y. Shao et al., Mol. Phys. 113, 184-215 (2015)
 DOI: 10.1080/00268976.2014.952696

 Q-Chem 5.0.1 for Intel X86 EM64T Linux

 Parts of Q-Chem use Armadillo 5.200.1 (Boston Tea Smuggler).
 http://arma.sourceforge.net/

 Q-Chem begins on Mon Jan 15 07:35:31 2018  

Host: vega02.cac.cornell.edu
0

     Scratch files written to /scratch/jj585/SOT1001/0711r.save//
 Parallel job on  1  processors

Checking the input file for inconsistencies... 	...done.

--------------------------------------------------------------
User input:
--------------------------------------------------------------
$molecule
0  1
O 4.8684457527 -1.037906853 -0.680485447
C 4.6053734804 0.1235777532 -0.302391544
C 3.374049291 1.0120210055 -0.7003561099
C 2.0797019226 0.2226862466 -1.1482201304
C 2.0285993583 -1.2356588518 -0.5755599766
O 1.1696993318 -2.0351288232 -1.4096900545
C 0.8465752289 -3.3047103599 -0.7162032892
C -0.6773699301 -3.4063049981 -0.3660628833
O -1.046703299 -2.3468746392 0.6047326612
C -1.8592442044 -1.3489624737 -0.0094791705
C -2.2296297876 -0.2803929997 1.0752213173
C -3.0868448483 0.9017364753 0.4735738176
C -3.1257780334 0.9565503508 -1.0970941765
O -4.137658053 1.0254835171 -1.8253849575
O 5.4470101067 0.8881342753 0.5690210619
O -1.7832224666 1.1779464567 -1.5630804676
O -2.2768032029 -1.3993611601 -1.1899568617
C -1.7570838854 1.1843635018 -3.0404238983
C -3.2895167495 -0.9169578187 2.077599473
C -3.5299083053 0.0861622764 3.2752237642
C -4.4727872391 1.1524645046 2.6025604217
C -4.5072572848 0.6222915913 1.1182035783
O -4.5422660996 -0.8504550824 1.290367764
H -1.3168057532 0.0626164372 1.5936918277
H -2.6817381555 1.8712299043 0.8180488289
H -3.0620179398 -1.9603718187 2.3706030134
H -4.0261257959 -0.4262566422 4.1146926079
H -2.5856888842 0.5240178635 3.6369349565
H -5.4826843493 1.1312749663 3.0424736246
H -4.0765408291 2.1780534597 2.6727946746
H -5.3583785867 0.961305723 0.4959170298
O 2.5118756755 -1.6372704687 0.5056172331
C 6.630804881 0.0870407959 0.9563254533
C 2.7840864051 1.9479434174 0.4504591793
C 2.1695561872 3.2118604618 -0.2625968555
C 0.946917465 2.5499347967 -0.9986411416
C 0.9720598857 1.0829507326 -0.4076020822
O 1.5755518541 1.2390021666 0.9371932415
H 3.7171420095 1.6480884678 -1.5383457479
H 1.9450765853 0.2000753421 -2.2438415877
H 7.2563799194 -0.1695207579 0.076794072
H 3.4875701603 2.1475799085 1.2812514502
H 1.8386124349 3.9504211302 0.4854650031
H 2.8778052851 3.6970553943 -0.952844964
H -0.0067619438 3.0413144428 -0.7511712588
H 1.0652120756 2.5499285928 -2.0938587919
H -0.0287817604 0.6114114975 -0.3717970115
H 6.3369380873 -0.8537189481 1.464787763
H 7.2128511784 0.7193511562 1.6517709732
H -0.714806194 1.4116163402 -3.3293447203
H -2.4370680984 1.9540939362 -3.4592475818
H -2.0463590059 0.1941962526 -3.4484880779
H -1.3019922269 -3.2921324533 -1.2786695498
H -0.8765650156 -4.3874018612 0.1135688413
H 1.4608289036 -3.3530255867 0.2103598866
H 1.1171064692 -4.1469830249 -1.3880158353
$end

$rem
JOBTYPE                   OPT
METHOD                    B3LYP
DFT_D                     d3_op
BASIS                     STO-3G
GEOM_OPT_MAX_CYCLES       100
GEOM_OPT_TOL_GRADIENT     300
GEOM_OPT_TOL_DISPLACEMENT 1200
GEOM_OPT_TOL_ENERGY       100
SYMMETRY                  False
THRESH                    12
SCF_CONVERGENCE           8
MAX_SUB_FILE_NUM          128
MEM_STATIC                400
MEM_TOTAL                 4000
$end
--------------------------------------------------------------
 Adding empirical dispersion correction 
 ----------------------------------------------------------------
 Doing -D3(op) with
 s6 =   1.00000
 s8 =   0.78311
 a1 =   0.30000
 a2 =   4.25000
 n  =  10.00000
 -D3 energy without 3body term =     -0.0721867312 hartrees
 ----------------------------------------------------------------
             Standard Nuclear Orientation (Angstroms)
    I     Atom           X                Y                Z
 ----------------------------------------------------------------
    1      O       4.8635489076    -1.1252652296    -0.3275522934
    2      C       4.5964666498     0.0084801763     0.1246610770
    3      C       3.4270280648     0.9655401723    -0.2999752705
    4      C       2.1584327476     0.2576375598    -0.9232781382
    5      C       2.0215541647    -1.2409487732    -0.4841599241
    6      O       1.2204126355    -1.9406050719    -1.4543597960
    7      C       0.8065839627    -3.2526102364    -0.9024914822
    8      C      -0.7443291382    -3.3346342784    -0.6944789057
    9      O      -1.1720026125    -2.3484919216     0.3281952669
   10      C      -1.9026737861    -1.2776767578    -0.2657593678
   11      C      -2.3412226875    -0.2918769781     0.8706714505
   12      C      -3.1130092334     0.9627941304     0.3011335616
   13      C      -3.0118654104     1.1493293381    -1.2565868385
   14      O      -3.9535650666     1.3106677140    -2.0604724665
   15      O       5.3762787427     0.6708064125     1.1273952753
   16      O      -1.6284461529     1.3660686555    -1.5849009191
   17      O      -2.2155519895    -1.2164050229    -1.4776901119
   18      C      -1.4719146464     1.4945706095    -3.0485447117
   19      C      -3.5005818947    -0.9757318808     1.7201217483
   20      C      -3.8212372543    -0.0686389677     2.9741969276
   21      C      -4.6748791256     1.0792899903     2.3168904840
   22      C      -4.5911320395     0.6758384359     0.7951152019
   23      O      -4.6769987254    -0.8042746266     0.8368419726
   24      H      -1.4696330357    -0.0223090630     1.4930696187
   25      H      -2.7164194271     1.8869295146     0.7608968617
   26      H      -3.3252637117    -2.0465943543     1.9411119201
   27      H      -4.4019000293    -0.6331510488     3.7209698099
   28      H      -2.9022465453     0.3074480806     3.4518133279
   29      H      -5.7198669059     1.0535873382     2.6650351503
   30      H      -4.2615519036     2.0824001683     2.5084821095
   31      H      -5.3755325354     1.0922680009     0.1333895186
   32      O       2.3976430850    -1.7462547335     0.5961247878
   33      C       6.5014521325    -0.1968571909     1.5448521428
   34      C       2.7607642979     1.8206779560     0.8718671939
   35      C       2.2424626473     3.1583903528     0.2195854027
   36      C       1.0737996555     2.5990990010    -0.6726994273
   37      C       1.0110144103     1.0879618695    -0.2095319219
   38      O       1.4971167481     1.1123557652     1.1905175499
   39      H       3.8580851118     1.6579400653    -1.0478343976
   40      H       2.1204896441     0.3305571485    -2.0243070509
   41      H       7.1957640089    -0.3990370302     0.7035449806
   42      H       3.3928493761     1.9280877114     1.7740265580
   43      H       1.8648665509     3.8422559602     0.9969792484
   44      H       3.0204393331     3.6766482714    -0.3631961726
   45      H       0.1142377971     3.0981617220    -0.4668423055
   46      H       1.2882291262     2.6864831054    -1.7496763709
   47      H      -0.0002530315     0.6470399428    -0.3003133612
   48      H       6.1410791444    -1.1668772083     1.9437418319
   49      H       7.0350729862     0.3566197820     2.3393021288
   50      H      -0.4029931872     1.7119265555    -3.2263794289
   51      H      -2.0933736017     2.3176494440    -3.4567196110
   52      H      -1.7480512575     0.5514636830    -3.5632539001
   53      H      -1.2830339084    -3.1251730498    -1.6441959561
   54      H      -1.0088649323    -4.3454327957    -0.3195342443
   55      H       1.3353337751    -3.3973085333     0.0658304144
   56      H       1.1147714815    -4.0442061119    -1.6182700195
 ----------------------------------------------------------------
 Molecular Point Group                 C1    NOp =  1
 Largest Abelian Subgroup              C1    NOp =  1
 Nuclear Repulsion Energy =  3285.1839765894 hartrees
 There are      113 alpha and      113 beta electrons
 Requested basis set is STO-3G
 There are 86 shells and 176 basis functions

 Total QAlloc Memory Limit   4000 MB
 Mega-Array Size       392 MB
 MEM_STATIC part       400 MB
 A cutoff of  1.0D-12 yielded   2494 shell pairs
 There are     11899 function pairs
 
 -------------------------------------------------------
 OpenMP Integral Computing Module                       
 Release: version 1.0, May 2013, Q-Chem Inc. Pittsburgh 
 -------------------------------------------------------
 Integral Job Info:
 Integral job number is                      11
 Integral operator is                         1
 short-range coefficients                     0
 long-range coefficients              100000000
 Omega coefficients                           0
 if combine SR and LR in K                    0
 Integral screening is                        0
 Integral computing path is                   2
 max size of driver memory is            800000
 size of driver memory is                 45569
 size of scratch memory is              1046100
 max col of scratch BK array                289
 max len of scratch array in speh3           22
 max len of scratch index in speh4            8
 max int batch size is                      520
 min int batch size is                       52
 fixed nKL is                                52
 max L of basis functions is                  1
 order of int derivative is                   0
 number of shells is                         86
 number of basis is                         176
 number of cartesian basis is               176
 number of contracted shell pairs          2494
 number of primitive shell pairs          12160
 maxK2 (contraction) of shell pair            9
 max number of K2 of shell pair               1
 max number of CS2 of shell pair            393
 max number of PS2 of shell pair           1272
 mem total for path MDJ                   49782
 -------------------------------------------------------
 Smallest overlap matrix eigenvalue = 2.12E-01

 Scale SEOQF with 1.000000e-02/1.000000e-01/1.000000e-01

 Standard Electronic Orientation quadrupole field applied
 Nucleus-field energy     =     0.0000000058 hartrees
 Guess from superposition of atomic densities
 Warning:  Energy on first SCF cycle will be non-variational
 A restricted hybrid HF-DFT SCF calculation will be
 performed using Pulay DIIS extrapolation
 Exchange:     0.2000 Hartree-Fock + 0.0800 Slater + 0.7200 B88
 Correlation:  0.1900 VWN1RPA + 0.8100 LYP
 Using SG-1 standard quadrature grid
 Dispersion:   Grimme D3
 SCF converges when DIIS error is below 1.0E-08
 using 48 threads for integral computing
 -------------------------------------------------------
 OpenMP Integral computing Module                
 Release: version 1.0, May 2013, Q-Chem Inc. Pittsburgh 
 -------------------------------------------------------
 -------------------------------------------------------
 OpenMP BLAS3 based DFT computing Module                
 Release: version 1.0, May 2013, Q-Chem Inc. Pittsburgh 
 -------------------------------------------------------
 ---------------------------------------
  Cycle       Energy         DIIS Error
 ---------------------------------------
    1   -1507.6537544332      7.47E-02
    2   -1509.7527273871      1.03E-02
    3   -1507.5321941507      2.63E-02
    4   -1510.2005153362      4.33E-03
    5   -1510.2783690556      1.37E-03
    6   -1510.2865892957      3.00E-04
    7   -1510.2869481224      1.13E-04
    8   -1510.2869967675      4.31E-05
    9   -1510.2870045942      1.05E-05
   10   -1510.2870050139      4.49E-06
   11   -1510.2870050903      1.82E-06
   12   -1510.2870051049      2.68E-07
   13   -1510.2870051051      1.05E-07
   14   -1510.2870051051      4.17E-08
   15   -1510.2870051050      2.06E-08
   16   -1510.2870051053      6.06E-09 Convergence criterion met
 ---------------------------------------
 SCF time:  CPU 128.36 s  wall 2.74 s
 SCF   energy in the final basis set = -1510.28700511
 Total energy in the final basis set = -1510.28700511
 
 --------------------------------------------------------------
 
                    Orbital Energies (a.u.)
 --------------------------------------------------------------
 
 Alpha MOs
 -- Occupied --
-18.940 -18.932 -18.928 -18.923 -18.886 -18.886 -18.885 -18.875
-18.872 -18.866 -10.106 -10.098 -10.096 -10.094 -10.073 -10.065
-10.063 -10.060 -10.058 -10.056 -10.056 -10.054 -10.040 -10.038
-10.035 -10.034 -10.020 -10.018 -10.018 -10.017  -1.021  -1.011
 -1.005  -1.001  -0.969  -0.968  -0.945  -0.936  -0.929  -0.928
 -0.764  -0.762  -0.728  -0.721  -0.713  -0.704  -0.696  -0.660
 -0.657  -0.618  -0.597  -0.575  -0.545  -0.543  -0.537  -0.535
 -0.511  -0.510  -0.487  -0.471  -0.461  -0.458  -0.452  -0.450
 -0.434  -0.430  -0.421  -0.417  -0.410  -0.407  -0.406  -0.404
 -0.399  -0.377  -0.372  -0.365  -0.361  -0.359  -0.355  -0.346
 -0.343  -0.342  -0.338  -0.334  -0.328  -0.323  -0.317  -0.312
 -0.309  -0.305  -0.301  -0.300  -0.290  -0.287  -0.280  -0.274
 -0.271  -0.254  -0.252  -0.246  -0.242  -0.234  -0.232  -0.190
 -0.176  -0.170  -0.165  -0.162  -0.158  -0.147  -0.146  -0.144
 -0.141
 -- Virtual --
  0.091   0.099   0.107   0.111   0.227   0.242   0.247   0.248
  0.255   0.268   0.282   0.289   0.308   0.317   0.328   0.332
  0.337   0.342   0.346   0.350   0.355   0.362   0.369   0.373
  0.376   0.382   0.384   0.395   0.404   0.407   0.409   0.411
  0.415   0.420   0.420   0.423   0.425   0.429   0.431   0.433
  0.434   0.439   0.440   0.442   0.445   0.452   0.459   0.461
  0.467   0.476   0.482   0.489   0.493   0.510   0.515   0.539
  0.541   0.553   0.558   0.635   0.637   0.651   0.660
 --------------------------------------------------------------
 
          Ground-State Mulliken Net Atomic Charges

     Atom                 Charge (a.u.)
  ----------------------------------------
      1 O                    -0.212210
      2 C                     0.212870
      3 C                    -0.079953
      4 C                    -0.076690
      5 C                     0.215703
      6 O                    -0.175407
      7 C                    -0.058024
      8 C                    -0.054401
      9 O                    -0.171944
     10 C                     0.215891
     11 C                    -0.079014
     12 C                    -0.082104
     13 C                     0.218116
     14 O                    -0.215107
     15 O                    -0.172274
     16 O                    -0.180214
     17 O                    -0.207529
     18 C                    -0.127647
     19 C                     0.025051
     20 C                    -0.144356
     21 C                    -0.142990
     22 C                     0.023772
     23 O                    -0.190940
     24 H                     0.093370
     25 H                     0.083803
     26 H                     0.085809
     27 H                     0.078358
     28 H                     0.075694
     29 H                     0.078177
     30 H                     0.073439
     31 H                     0.091211
     32 O                    -0.207912
     33 C                    -0.128110
     34 C                     0.024483
     35 C                    -0.142665
     36 C                    -0.143288
     37 C                     0.019966
     38 O                    -0.193188
     39 H                     0.082756
     40 H                     0.085979
     41 H                     0.087402
     42 H                     0.090983
     43 H                     0.076404
     44 H                     0.072637
     45 H                     0.080247
     46 H                     0.070319
     47 H                     0.093557
     48 H                     0.092492
     49 H                     0.089547
     50 H                     0.084254
     51 H                     0.087868
     52 H                     0.093398
     53 H                     0.102572
     54 H                     0.089488
     55 H                     0.105173
     56 H                     0.085182
  ----------------------------------------
  Sum of atomic charges =     0.000000

 -----------------------------------------------------------------
                    Cartesian Multipole Moments
 -----------------------------------------------------------------
    Charge (ESU x 10^10)
                 0.0000
    Dipole Moment (Debye)
         X       1.7744      Y       1.3783      Z       0.6743
       Tot       2.3458
    Quadrupole Moments (Debye-Ang)
        XX    -164.3448     XY       3.5294     YY    -150.4387
        XZ      -8.3670     YZ      -0.0463     ZZ    -158.1328
    Octopole Moments (Debye-Ang^2)
       XXX     143.0081    XXY      26.8390    XYY      -5.9987
       YYY     -53.5367    XXZ      62.9281    XYZ     -13.0758
       YYZ     -14.8274    XZZ      12.9886    YZZ      -1.4370
       ZZZ     -12.9844
    Hexadecapole Moments (Debye-Ang^3)
      XXXX   -9863.2580   XXXY     -50.3174   XXYY   -2217.3236
      XYYY      -1.5768   YYYY   -2623.8107   XXXZ     114.9073
      XXYZ      -6.5253   XYYZ      14.1937   YYYZ      37.9361
      XXZZ   -1989.7706   XYZZ      10.0126   YYZZ    -783.8215
      XZZZ      58.7603   YZZZ     -29.8479   ZZZZ   -1963.7583
 -----------------------------------------------------------------
 Calculating analytic gradient of the SCF energy
 Gradient of SCF Energy
            1           2           3           4           5           6
    1  -0.0016923   0.0027924  -0.0015241  -0.0052914   0.0072526   0.0034619
    2  -0.0012188   0.0017871  -0.0010593   0.0018398  -0.0020120  -0.0017679
    3   0.0019379  -0.0036202   0.0027287   0.0023290  -0.0042777  -0.0005474
            7           8           9          10          11          12
    1  -0.0049816   0.0003413  -0.0021966   0.0027580   0.0025025  -0.0039102
    2   0.0049190  -0.0043385   0.0006735   0.0016498   0.0018512  -0.0005689
    3   0.0013237   0.0019064  -0.0015600  -0.0004323   0.0004406  -0.0001664
           13          14          15          16          17          18
    1   0.0002923   0.0004484  -0.0002031   0.0001017  -0.0000187  -0.0000426
    2  -0.0069221   0.0052303   0.0000586   0.0000311   0.0000708  -0.0000060
    3  -0.0003591   0.0005146  -0.0001690  -0.0002246  -0.0000028   0.0000993
           19          20          21          22          23          24
    1  -0.0000215   0.0001369  -0.0002240  -0.0000190   0.0001205  -0.0002932
    2  -0.0005160   0.0001393  -0.0003270   0.0003418   0.0000742  -0.0001539
    3  -0.0002153   0.0000359  -0.0000710   0.0002669  -0.0001231   0.0001209
           25          26          27          28          29          30
    1   0.0000587   0.0000488  -0.0000400  -0.0000068  -0.0000046   0.0001932
    2  -0.0000300   0.0000667  -0.0000506   0.0001878   0.0001030   0.0000655
    3  -0.0001466   0.0000111   0.0000668  -0.0000884   0.0000384  -0.0000776
           31          32          33          34          35          36
    1  -0.0000654  -0.0000286  -0.0000030   0.0001066   0.0000556   0.0000335
    2   0.0000505   0.0000265  -0.0001147   0.0000292  -0.0002122  -0.0001979
    3   0.0001119  -0.0001009   0.0001271   0.0003411   0.0002293  -0.0001296
           37          38          39          40          41          42
    1  -0.0002270  -0.0000148   0.0001649   0.0001173   0.0000628   0.0000222
    2   0.0007089  -0.0001106  -0.0000175  -0.0000257   0.0000182  -0.0000452
    3  -0.0004602  -0.0002003   0.0000260  -0.0000430   0.0000056  -0.0000322
           43          44          45          46          47          48
    1   0.0000629  -0.0000010   0.0000937  -0.0001114  -0.0000756   0.0000530
    2   0.0001150   0.0000687  -0.0000585  -0.0000338  -0.0002536   0.0000419
    3   0.0000352   0.0001058   0.0000702   0.0000050   0.0002205  -0.0000486
           49          50          51          52          53          54
    1   0.0000017   0.0000822  -0.0000119  -0.0000086  -0.0000191  -0.0000118
    2   0.0000035   0.0000789   0.0000428  -0.0000415  -0.0001093  -0.0000008
    3  -0.0000257  -0.0000257  -0.0000182  -0.0000186  -0.0000505   0.0000110
           55          56
    1  -0.0002693  -0.0000486
    2  -0.0000766  -0.0000048
    3   0.0000862   0.0000398
 Max gradient component =       7.253E-03
 RMS gradient           =       1.476E-03
 Gradient time:  CPU 33.19 s  wall 0.71 s
 Geometry Optimization Parameters
   NAtoms,    NIC,     NZ,  NCons,   NDum,   NFix, NCnnct, MaxDiis
       56     458       0       0       0       0       0       0


** GEOMETRY OPTIMIZATION IN DELOCALIZED INTERNAL COORDINATES **
   Searching for a Minimum

   Optimization Cycle:   1

                       Coordinates (Angstroms)
     ATOM                X               Y               Z
      1  O         4.8635489076   -1.1252652296   -0.3275522934
      2  C         4.5964666498    0.0084801763    0.1246610770
      3  C         3.4270280648    0.9655401723   -0.2999752705
      4  C         2.1584327476    0.2576375598   -0.9232781382
      5  C         2.0215541647   -1.2409487732   -0.4841599241
      6  O         1.2204126355   -1.9406050719   -1.4543597960
      7  C         0.8065839627   -3.2526102364   -0.9024914822
      8  C        -0.7443291382   -3.3346342784   -0.6944789057
      9  O        -1.1720026125   -2.3484919216    0.3281952669
     10  C        -1.9026737861   -1.2776767578   -0.2657593678
     11  C        -2.3412226875   -0.2918769781    0.8706714505
     12  C        -3.1130092334    0.9627941304    0.3011335616
     13  C        -3.0118654104    1.1493293381   -1.2565868385
     14  O        -3.9535650666    1.3106677140   -2.0604724665
     15  O         5.3762787427    0.6708064125    1.1273952753
     16  O        -1.6284461529    1.3660686555   -1.5849009191
     17  O        -2.2155519895   -1.2164050229   -1.4776901119
     18  C        -1.4719146464    1.4945706095   -3.0485447117
     19  C        -3.5005818947   -0.9757318808    1.7201217483
     20  C        -3.8212372543   -0.0686389677    2.9741969276
     21  C        -4.6748791256    1.0792899903    2.3168904840
     22  C        -4.5911320395    0.6758384359    0.7951152019
     23  O        -4.6769987254   -0.8042746266    0.8368419726
     24  H        -1.4696330357   -0.0223090630    1.4930696187
     25  H        -2.7164194271    1.8869295146    0.7608968617
     26  H        -3.3252637117   -2.0465943543    1.9411119201
     27  H        -4.4019000293   -0.6331510488    3.7209698099
     28  H        -2.9022465453    0.3074480806    3.4518133279
     29  H        -5.7198669059    1.0535873382    2.6650351503
     30  H        -4.2615519036    2.0824001683    2.5084821095
     31  H        -5.3755325354    1.0922680009    0.1333895186
     32  O         2.3976430850   -1.7462547335    0.5961247878
     33  C         6.5014521325   -0.1968571909    1.5448521428
     34  C         2.7607642979    1.8206779560    0.8718671939
     35  C         2.2424626473    3.1583903528    0.2195854027
     36  C         1.0737996555    2.5990990010   -0.6726994273
     37  C         1.0110144103    1.0879618695   -0.2095319219
     38  O         1.4971167481    1.1123557652    1.1905175499
     39  H         3.8580851118    1.6579400653   -1.0478343976
     40  H         2.1204896441    0.3305571485   -2.0243070509
     41  H         7.1957640089   -0.3990370302    0.7035449806
     42  H         3.3928493761    1.9280877114    1.7740265580
     43  H         1.8648665509    3.8422559602    0.9969792484
     44  H         3.0204393331    3.6766482714   -0.3631961726
     45  H         0.1142377971    3.0981617220   -0.4668423055
     46  H         1.2882291262    2.6864831054   -1.7496763709
     47  H        -0.0002530315    0.6470399428   -0.3003133612
     48  H         6.1410791444   -1.1668772083    1.9437418319
     49  H         7.0350729862    0.3566197820    2.3393021288
     50  H        -0.4029931872    1.7119265555   -3.2263794289
     51  H        -2.0933736017    2.3176494440   -3.4567196110
     52  H        -1.7480512575    0.5514636830   -3.5632539001
     53  H        -1.2830339084   -3.1251730498   -1.6441959561
     54  H        -1.0088649323   -4.3454327957   -0.3195342443
     55  H         1.3353337751   -3.3973085333    0.0658304144
     56  H         1.1147714815   -4.0442061119   -1.6182700195
   Point Group: c1    Number of degrees of freedom:   162


   Energy is  -1510.287005105


 Attempting to Generate Delocalized Internal Coordinates

162 Hessian modes will be used to form the next step
  Hessian Eigenvalues:
     0.002000    0.002000    0.002000    0.002000    0.002000    0.002717
     0.002837    0.004190    0.004579    0.004595    0.004735    0.004761
     0.004941    0.005346    0.005382    0.006785    0.006791    0.010399
     0.010583    0.011337    0.012214    0.021715    0.021758    0.025691
     0.026185    0.030878    0.030917    0.034950    0.035306    0.039538
     0.040674    0.042017    0.042048    0.045058    0.045815    0.047419
     0.047823    0.047935    0.049360    0.050897    0.051108    0.053155
     0.053573    0.054533    0.055130    0.055860    0.056165    0.056485
     0.056608    0.059803    0.060019    0.060223    0.060365    0.062647
     0.063497    0.064373    0.065043    0.068754    0.069746    0.072872
     0.072884    0.090726    0.091562    0.092520    0.092784    0.096575
     0.096709    0.097189    0.097947    0.102617    0.102798    0.110381
     0.111137    0.111494    0.113315    0.121288    0.121946    0.136414
     0.137854    0.157221    0.157295    0.160000    0.160000    0.160000
     0.160000    0.160000    0.160000    0.163002    0.164022    0.217530
     0.218721    0.220947    0.221110    0.229652    0.230448    0.238568
     0.239219    0.239432    0.239946    0.244717    0.246670    0.246927
     0.248441    0.249257    0.249916    0.250000    0.250000    0.250000
     0.250000    0.250000    0.250000    0.250000    0.250000    0.253637
     0.253845    0.258540    0.260442    0.262086    0.262521    0.262590
     0.291259    0.291685    0.306425    0.306760    0.323130    0.324130
     0.325123    0.325916    0.326648    0.326704    0.326872    0.327042
     0.328651    0.328776    0.329262    0.329434    0.329647    0.330537
     0.330758    0.331138    0.331994    0.332335    0.334526    0.334769
     0.334887    0.334931    0.335063    0.335072    0.335082    0.335718
     0.341540    0.343092    0.344644    0.348471    0.396315    0.398239
     0.406222    0.415781    0.820782    0.830462    0.834280    0.837475

 Minimum Search - Taking Simple RFO Step
 Searching for Lamda that Minimizes Along All modes
 Value Taken    Lamda =  -0.01355870
 Calculated Step too Large.  Step scaled by  0.373910
 Step Taken.  Stepsize is  0.300000

                             Maximum     Tolerance    Cnvgd?
         Gradient           0.005993      0.000300      NO
         Displacement       0.098222      0.001200      NO
         Energy change     *********      0.000001      NO


 New Cartesian Coordinates Obtained by Inverse Iteration

 Displacement from previous Coordinates is:  4.495566
 Adding empirical dispersion correction 
 ----------------------------------------------------------------
 Doing -D3(op) with
 s6 =   1.00000
 s8 =   0.78311
 a1 =   0.30000
 a2 =   4.25000
 n  =  10.00000
 -D3 energy without 3body term =     -0.0700035121 hartrees
 ----------------------------------------------------------------
             Standard Nuclear Orientation (Angstroms)
    I     Atom           X                Y                Z
 ----------------------------------------------------------------
    1      O       4.7837794557    -1.2577744530    -0.0688879923
    2      C       4.5777809476    -0.0783914529     0.2886179710
    3      C       3.5694942947     0.9539575556    -0.3292847501
    4      C       2.2959667493     0.3280625421    -1.0265206316
    5      C       1.9526121369    -1.1052618253    -0.4926238962
    6      O       1.2191476303    -1.8205581011    -1.5040561650
    7      C       0.8299518536    -3.1535363291    -0.9854996076
    8      C      -0.7192291541    -3.2710890213    -0.7812989059
    9      O      -1.1653581368    -2.3401850911     0.2843814576
   10      C      -1.9646204530    -1.2898614656    -0.2553417584
   11      C      -2.4022336619    -0.3497167732     0.9195510507
   12      C      -3.2392693893     0.8879403022     0.4065453483
   13      C      -3.1980186713     1.1122856591    -1.1489745251
   14      O      -4.1700455976     1.1885164322    -1.9289792169
   15      O       5.3178349514     0.5808463440     1.3230526746
   16      O      -1.8409639042     1.4140596671    -1.5173705438
   17      O      -2.3182659073    -1.2102282681    -1.4549304555
   18      C      -1.7353720515     1.5494047828    -2.9849582890
   19      C      -3.5050079969    -1.0998567305     1.7878616777
   20      C      -3.8228228787    -0.2369638664     3.0732573147
   21      C      -4.7420760763     0.8900605550     2.4704352919
   22      C      -4.6885059070     0.5263923630     0.9371207844
   23      O      -4.7139355609    -0.9564262561     0.9449346576
   24      H      -1.5212033720    -0.0606916946     1.5197340581
   25      H      -2.8700648388     1.8181321460     0.8768818633
   26      H      -3.2801272312    -2.1676852368     1.9764282345
   27      H      -4.3570125407    -0.8425642889     3.8224496152
   28      H      -2.9053898605     0.1646119196     3.5327501573
   29      H      -5.7740210292     0.8123218207     2.8484453837
   30      H      -4.3647894841     1.9046682010     2.6750343803
   31      H      -5.5091718570     0.9252799479     0.3094470749
   32      O       2.2073254086    -1.5715883674     0.6394147412
   33      C       6.3039769342    -0.3550698651     1.9100448306
   34      C       2.8910946046     1.9698238589     0.6985552949
   35      C       2.5886352192     3.2923978978    -0.1034340420
   36      C       1.4567193326     2.7804958098    -1.0681934587
   37      C       1.1837979089     1.3291036979    -0.5012014692
   38      O       1.5325157065     1.4243147912     0.9361247988
   39      H       4.1451571337     1.5332384440    -1.0759554506
   40      H       2.3710180331     0.3097322905    -2.1278870466
   41      H       7.0528464121    -0.6830825711     1.1601669626
   42      H       3.4413556985     2.0895393376     1.6513773190
   43      H       2.2156603054     4.0755492174     0.5763182837
   44      H       3.4713702015     3.6762103868    -0.6391274635
   45      H       0.5426127285     3.3907565649    -1.0025728607
   46      H       1.7823660370     2.7523298862    -2.1201839356
   47      H       0.1436304513     0.9878082088    -0.6645669985
   48      H       5.8105531634    -1.2549511018     2.3304954804
   49      H       6.8107387265     0.2030298464     2.7187207787
   50      H      -0.6875108005     1.8316930461    -3.1938580127
   51      H      -2.4179299378     2.3319818386    -3.3747248549
   52      H      -1.9678394633     0.5902475638    -3.4914401849
   53      H      -1.2670051542    -3.0398534239    -1.7207083612
   54      H      -0.9584937971    -4.3008639444    -0.4428102293
   55      H       1.3584198688    -3.3122454324    -0.0192030043
   56      H       1.1573062306    -3.9197335965    -1.7201942474
 ----------------------------------------------------------------
 Molecular Point Group                 C1    NOp =  1
 Largest Abelian Subgroup              C1    NOp =  1
 Nuclear Repulsion Energy =  3255.7122528011 hartrees
 There are      113 alpha and      113 beta electrons
 Applying Cartesian multipole field
    Component          Value
    ---------          -----
     (2,0,0)        1.00000E-12
     (0,2,0)        2.00000E-11
     (0,0,2)       -3.00000E-11
 Nucleus-field energy     =     0.0000000039 hartrees
 Requested basis set is STO-3G
 There are 86 shells and 176 basis functions
 A cutoff of  1.0D-12 yielded   2430 shell pairs
 There are     11655 function pairs
 Smallest overlap matrix eigenvalue = 2.13E-01
 Guess MOs from SCF MO coefficient file
 Reading MOs from coefficient file
 Reading MOs from coefficient file
 A restricted hybrid HF-DFT SCF calculation will be
 performed using Pulay DIIS extrapolation
 Exchange:     0.2000 Hartree-Fock + 0.0800 Slater + 0.7200 B88
 Correlation:  0.1900 VWN1RPA + 0.8100 LYP
 Using SG-1 standard quadrature grid
 Dispersion:   Grimme D3
 SCF converges when DIIS error is below 1.0E-08
 Geometry optimization detected.  Setting ReadMinima to 0
 Setting SaveMinima to 0
 using 48 threads for integral computing
 -------------------------------------------------------
 OpenMP Integral computing Module                
 Release: version 1.0, May 2013, Q-Chem Inc. Pittsburgh 
 -------------------------------------------------------
 -------------------------------------------------------
 OpenMP BLAS3 based DFT computing Module                
 Release: version 1.0, May 2013, Q-Chem Inc. Pittsburgh 
 -------------------------------------------------------
 ---------------------------------------
  Cycle       Energy         DIIS Error
 ---------------------------------------
    1   -1510.1237540358      5.66E-03
    2   -1510.2853151874      7.64E-04
    3   -1510.2838518498      1.06E-03
    4   -1510.2884124696      3.61E-04
    5   -1510.2889541196      1.02E-04
    6   -1510.2889986564      3.13E-05
    7   -1510.2890034092      7.71E-06
    8   -1510.2890036048      5.06E-06
    9   -1510.2890037160      1.26E-06
   10   -1510.2890037234      3.91E-07
   11   -1510.2890037244      1.14E-07
   12   -1510.2890037244      6.36E-08
   13   -1510.2890037245      3.39E-08
   14   -1510.2890037245      2.65E-09 Convergence criterion met
 ---------------------------------------
 SCF time:  CPU 100.80 s  wall 2.11 s
 SCF   energy in the final basis set = -1510.28900372
 Total energy in the final basis set = -1510.28900372
 
 --------------------------------------------------------------
 
                    Orbital Energies (a.u.)
 --------------------------------------------------------------
 
 Alpha MOs
 -- Occupied --
-18.939 -18.932 -18.929 -18.922 -18.885 -18.885 -18.884 -18.875
-18.872 -18.865 -10.105 -10.098 -10.096 -10.094 -10.072 -10.066
-10.063 -10.059 -10.057 -10.056 -10.055 -10.054 -10.038 -10.038
-10.036 -10.033 -10.019 -10.019 -10.018 -10.017  -1.020  -1.011
 -1.005  -1.000  -0.968  -0.968  -0.943  -0.936  -0.929  -0.927
 -0.763  -0.761  -0.727  -0.721  -0.713  -0.704  -0.696  -0.660
 -0.656  -0.618  -0.597  -0.574  -0.544  -0.542  -0.535  -0.535
 -0.511  -0.509  -0.487  -0.471  -0.459  -0.457  -0.452  -0.450
 -0.434  -0.429  -0.421  -0.417  -0.410  -0.407  -0.406  -0.403
 -0.399  -0.377  -0.372  -0.364  -0.360  -0.359  -0.354  -0.345
 -0.342  -0.340  -0.337  -0.332  -0.328  -0.322  -0.318  -0.311
 -0.309  -0.305  -0.301  -0.300  -0.290  -0.289  -0.278  -0.273
 -0.271  -0.254  -0.251  -0.246  -0.242  -0.233  -0.232  -0.189
 -0.176  -0.169  -0.164  -0.161  -0.158  -0.147  -0.145  -0.142
 -0.142
 -- Virtual --
  0.094   0.100   0.107   0.113   0.227   0.242   0.247   0.248
  0.256   0.269   0.284   0.289   0.308   0.318   0.328   0.333
  0.338   0.344   0.345   0.350   0.357   0.361   0.370   0.374
  0.375   0.382   0.385   0.398   0.406   0.410   0.410   0.412
  0.415   0.420   0.421   0.423   0.425   0.430   0.432   0.433
  0.435   0.438   0.441   0.442   0.445   0.450   0.458   0.459
  0.468   0.476   0.482   0.490   0.491   0.511   0.512   0.539
  0.542   0.554   0.556   0.636   0.639   0.652   0.660
 --------------------------------------------------------------
 
          Ground-State Mulliken Net Atomic Charges

     Atom                 Charge (a.u.)
  ----------------------------------------
      1 O                    -0.213065
      2 C                     0.213164
      3 C                    -0.079729
      4 C                    -0.077367
      5 C                     0.215119
      6 O                    -0.174752
      7 C                    -0.057337
      8 C                    -0.054608
      9 O                    -0.171419
     10 C                     0.217225
     11 C                    -0.077816
     12 C                    -0.081741
     13 C                     0.218924
     14 O                    -0.214732
     15 O                    -0.172284
     16 O                    -0.180858
     17 O                    -0.208970
     18 C                    -0.128318
     19 C                     0.024970
     20 C                    -0.144392
     21 C                    -0.143019
     22 C                     0.023763
     23 O                    -0.191119
     24 H                     0.093515
     25 H                     0.084389
     26 H                     0.085526
     27 H                     0.078092
     28 H                     0.075566
     29 H                     0.077887
     30 H                     0.073459
     31 H                     0.090712
     32 O                    -0.208062
     33 C                    -0.128075
     34 C                     0.024418
     35 C                    -0.142245
     36 C                    -0.145583
     37 C                     0.017105
     38 O                    -0.192113
     39 H                     0.083177
     40 H                     0.086327
     41 H                     0.087417
     42 H                     0.091107
     43 H                     0.077005
     44 H                     0.072698
     45 H                     0.079024
     46 H                     0.070633
     47 H                     0.095855
     48 H                     0.092370
     49 H                     0.089528
     50 H                     0.084982
     51 H                     0.087775
     52 H                     0.093471
     53 H                     0.102782
     54 H                     0.088579
     55 H                     0.105298
     56 H                     0.085742
  ----------------------------------------
  Sum of atomic charges =     0.000000

 -----------------------------------------------------------------
                    Cartesian Multipole Moments
 -----------------------------------------------------------------
    Charge (ESU x 10^10)
                 0.0000
    Dipole Moment (Debye)
         X       2.2050      Y       1.2610      Z       0.5000
       Tot       2.5889
    Quadrupole Moments (Debye-Ang)
        XX    -164.2102     XY       2.3607     YY    -150.8319
        XZ      -8.3145     YZ      -0.6306     ZZ    -156.2092
    Octopole Moments (Debye-Ang^2)
       XXX     153.9506    XXY      26.8011    XYY      -1.2358
       YYY     -52.6800    XXZ      62.4174    XYZ     -12.4955
       YYZ     -18.6447    XZZ      18.2601    YZZ      -3.3909
       ZZZ     -13.5435
    Hexadecapole Moments (Debye-Ang^3)
      XXXX  -10242.4694   XXXY    -181.1961   XXYY   -2268.0503
      XYYY    -107.0942   YYYY   -2684.0755   XXXZ     115.9658
      XXYZ      10.0401   XYYZ      22.5087   YYYZ     116.0060
      XXZZ   -2021.4597   XYZZ     -35.3431   YYZZ    -810.8631
      XZZZ      89.7404   YZZZ      44.7431   ZZZZ   -2086.8371
 -----------------------------------------------------------------
 Calculating analytic gradient of the SCF energy
 Gradient of SCF Energy
            1           2           3           4           5           6
    1  -0.0014447   0.0012624  -0.0005667  -0.0013066   0.0010337   0.0008231
    2  -0.0006466   0.0003740   0.0001047   0.0007224   0.0005749  -0.0011286
    3   0.0012043  -0.0013818   0.0012960   0.0000190  -0.0003872  -0.0003929
            7           8           9          10          11          12
    1  -0.0031500   0.0002799  -0.0026425   0.0017329   0.0016625  -0.0030320
    2   0.0027205  -0.0015111  -0.0000221   0.0003013   0.0018014  -0.0016882
    3   0.0001747  -0.0001529  -0.0004611  -0.0003824   0.0004283   0.0000776
           13          14          15          16          17          18
    1   0.0012091  -0.0006129   0.0002992  -0.0031511  -0.0004337   0.0001163
    2  -0.0017726   0.0026847   0.0002435  -0.0006571   0.0002060  -0.0004366
    3  -0.0002463   0.0002390  -0.0007252  -0.0013011  -0.0001660   0.0003543
           19          20          21          22          23          24
    1  -0.0004021   0.0000671  -0.0000043   0.0005090   0.0001788  -0.0005473
    2  -0.0006387   0.0002209  -0.0001300  -0.0001176  -0.0000917  -0.0002360
    3   0.0001683   0.0001690  -0.0002639   0.0003624  -0.0000198   0.0006181
           25          26          27          28          29          30
    1  -0.0003326  -0.0000169   0.0000078   0.0000127   0.0000084   0.0000683
    2   0.0004360   0.0000105  -0.0000890   0.0001314   0.0000595   0.0000260
    3  -0.0003253  -0.0000259  -0.0000061  -0.0000596   0.0000797  -0.0000105
           31          32          33          34          35          36
    1   0.0000458   0.0017031   0.0001468  -0.0002054   0.0000556   0.0004680
    2   0.0000799  -0.0007186  -0.0001109  -0.0000328  -0.0000188   0.0000969
    3  -0.0000248  -0.0003011   0.0000286   0.0000041   0.0001021   0.0004190
           37          38          39          40          41          42
    1   0.0007317   0.0001587  -0.0001166  -0.0000615   0.0000200  -0.0000068
    2  -0.0009992   0.0001306   0.0002580   0.0004549   0.0000393  -0.0000076
    3   0.0017374   0.0003819   0.0003149  -0.0001322   0.0000381  -0.0000527
           43          44          45          46          47          48
    1   0.0000729   0.0000335  -0.0001233  -0.0001476   0.0043933  -0.0000230
    2   0.0000210  -0.0000295  -0.0005999   0.0002220   0.0010298  -0.0000046
    3   0.0001072  -0.0000487  -0.0005167   0.0003363  -0.0018712  -0.0000778
           49          50          51          52          53          54
    1  -0.0000140  -0.0002465   0.0000048   0.0000845  -0.0001140   0.0004080
    2   0.0000188  -0.0001707   0.0000657   0.0000673  -0.0005934   0.0004458
    3  -0.0000169  -0.0000575   0.0000670  -0.0000455  -0.0002775   0.0006676
           55          56
    1   0.0008112   0.0002930
    2  -0.0004048  -0.0006908
    3  -0.0003145   0.0006499
 Max gradient component =       4.393E-03
 RMS gradient           =       8.766E-04
 Gradient time:  CPU 30.80 s  wall 0.65 s
 Geometry Optimization Parameters
   NAtoms,    NIC,     NZ,  NCons,   NDum,   NFix, NCnnct, MaxDiis
       56     458       0       0       0       0       0       0

 Cartesian Hessian Update
 Hessian Updated using BFGS Update


** GEOMETRY OPTIMIZATION IN DELOCALIZED INTERNAL COORDINATES **
   Searching for a Minimum

   Optimization Cycle:   2

                       Coordinates (Angstroms)
     ATOM                X               Y               Z
      1  O         4.7837794557   -1.2577744530   -0.0688879923
      2  C         4.5777809476   -0.0783914529    0.2886179710
      3  C         3.5694942947    0.9539575556   -0.3292847501
      4  C         2.2959667493    0.3280625421   -1.0265206316
      5  C         1.9526121369   -1.1052618253   -0.4926238962
      6  O         1.2191476303   -1.8205581011   -1.5040561650
      7  C         0.8299518536   -3.1535363291   -0.9854996076
      8  C        -0.7192291541   -3.2710890213   -0.7812989059
      9  O        -1.1653581368   -2.3401850911    0.2843814576
     10  C        -1.9646204530   -1.2898614656   -0.2553417584
     11  C        -2.4022336619   -0.3497167732    0.9195510507
     12  C        -3.2392693893    0.8879403022    0.4065453483
     13  C        -3.1980186713    1.1122856591   -1.1489745251
     14  O        -4.1700455976    1.1885164322   -1.9289792169
     15  O         5.3178349514    0.5808463440    1.3230526746
     16  O        -1.8409639042    1.4140596671   -1.5173705438
     17  O        -2.3182659073   -1.2102282681   -1.4549304555
     18  C        -1.7353720515    1.5494047828   -2.9849582890
     19  C        -3.5050079969   -1.0998567305    1.7878616777
     20  C        -3.8228228787   -0.2369638664    3.0732573147
     21  C        -4.7420760763    0.8900605550    2.4704352919
     22  C        -4.6885059070    0.5263923630    0.9371207844
     23  O        -4.7139355609   -0.9564262561    0.9449346576
     24  H        -1.5212033720   -0.0606916946    1.5197340581
     25  H        -2.8700648388    1.8181321460    0.8768818633
     26  H        -3.2801272312   -2.1676852368    1.9764282345
     27  H        -4.3570125407   -0.8425642889    3.8224496152
     28  H        -2.9053898605    0.1646119196    3.5327501573
     29  H        -5.7740210292    0.8123218207    2.8484453837
     30  H        -4.3647894841    1.9046682010    2.6750343803
     31  H        -5.5091718570    0.9252799479    0.3094470749
     32  O         2.2073254086   -1.5715883674    0.6394147412
     33  C         6.3039769342   -0.3550698651    1.9100448306
     34  C         2.8910946046    1.9698238589    0.6985552949
     35  C         2.5886352192    3.2923978978   -0.1034340420
     36  C         1.4567193326    2.7804958098   -1.0681934587
     37  C         1.1837979089    1.3291036979   -0.5012014692
     38  O         1.5325157065    1.4243147912    0.9361247988
     39  H         4.1451571337    1.5332384440   -1.0759554506
     40  H         2.3710180331    0.3097322905   -2.1278870466
     41  H         7.0528464121   -0.6830825711    1.1601669626
     42  H         3.4413556985    2.0895393376    1.6513773190
     43  H         2.2156603054    4.0755492174    0.5763182837
     44  H         3.4713702015    3.6762103868   -0.6391274635
     45  H         0.5426127285    3.3907565649   -1.0025728607
     46  H         1.7823660370    2.7523298862   -2.1201839356
     47  H         0.1436304513    0.9878082088   -0.6645669985
     48  H         5.8105531634   -1.2549511018    2.3304954804
     49  H         6.8107387265    0.2030298464    2.7187207787
     50  H        -0.6875108005    1.8316930461   -3.1938580127
     51  H        -2.4179299378    2.3319818386   -3.3747248549
     52  H        -1.9678394633    0.5902475638   -3.4914401849
     53  H        -1.2670051542   -3.0398534239   -1.7207083612
     54  H        -0.9584937971   -4.3008639444   -0.4428102293
     55  H         1.3584198688   -3.3122454324   -0.0192030043
     56  H         1.1573062306   -3.9197335965   -1.7201942474
   Point Group: c1    Number of degrees of freedom:   162


   Energy is  -1510.289003725

 Hessian Updated using BFGS Update

149 Hessian modes will be used to form the next step
  Hessian Eigenvalues:
     0.001238    0.002107    0.002693    0.002833    0.003104    0.004214
     0.004616    0.004736    0.004941    0.005176    0.005382    0.006215
     0.006778    0.006785    0.010579    0.011337    0.012203    0.021703
     0.021743    0.025654    0.026141    0.030740    0.030907    0.034673
     0.035043    0.038498    0.040014    0.040974    0.042020    0.042067
     0.045167    0.045798    0.047336    0.047795    0.048141    0.050876
     0.051086    0.052822    0.053371    0.054141    0.054552    0.055154
     0.055861    0.056164    0.056497    0.059769    0.059974    0.060128
     0.060268    0.062644    0.063495    0.064371    0.065020    0.068751
     0.069739    0.071822    0.072878    0.073920    0.090816    0.092179
     0.092579    0.093648    0.096600    0.096708    0.097190    0.097931
     0.102616    0.102799    0.110532    0.111327    0.111660    0.113929
     0.121695    0.122662    0.136576    0.144171    0.157205    0.157450
     0.159999    0.160005    0.162864    0.164185    0.217530    0.218645
     0.220903    0.229649    0.230336    0.238537    0.239212    0.239427
     0.239942    0.244190    0.245813    0.246633    0.246958    0.248258
     0.249254    0.249759    0.249916    0.253623    0.253844    0.258524
     0.260438    0.261926    0.262229    0.262523    0.291213    0.291680
     0.306415    0.306735    0.323127    0.324128    0.325121    0.325907
     0.326648    0.326702    0.326871    0.327041    0.328075    0.328651
     0.328775    0.329434    0.329647    0.330535    0.330758    0.331132
     0.331987    0.332334    0.334525    0.334769    0.334887    0.334929
     0.335061    0.335064    0.335082    0.335715    0.341468    0.342843
     0.344643    0.348463    0.393532    0.397764    0.406220    0.415382
     0.683580    0.820843    0.830596    0.834280    0.837641

 Minimum Search - Taking Simple RFO Step
 Searching for Lamda that Minimizes Along All modes
 Value Taken    Lamda =  -0.01422465
 Calculated Step too Large.  Step scaled by  0.369102
 Step Taken.  Stepsize is  0.300000

                             Maximum     Tolerance    Cnvgd?
         Gradient           0.048283      0.000300      NO
         Displacement       0.118824      0.001200      NO
         Energy change     -0.001999      0.000001      NO


 New Cartesian Coordinates Obtained by Inverse Iteration

 Displacement from previous Coordinates is:  4.454959
 Adding empirical dispersion correction 
 ----------------------------------------------------------------
 Doing -D3(op) with
 s6 =   1.00000
 s8 =   0.78311
 a1 =   0.30000
 a2 =   4.25000
 n  =  10.00000
 -D3 energy without 3body term =     -0.0724577242 hartrees
 ----------------------------------------------------------------
             Standard Nuclear Orientation (Angstroms)
    I     Atom           X                Y                Z
 ----------------------------------------------------------------
    1      O       4.5690707557    -1.2551701141     0.1288734819
    2      C       4.3335170365    -0.0614508098     0.4129697279
    3      C       3.4298578744     0.9546551700    -0.3716987163
    4      C       2.2205581001     0.3165351253    -1.1658792582
    5      C       1.7770925859    -1.0733577339    -0.5935796156
    6      O       1.1396352524    -1.8240852482    -1.6425619386
    7      C       0.8062365455    -3.1843432616    -1.1582325219
    8      C      -0.7332611774    -3.3289126861    -0.9125979739
    9      O      -1.1386766988    -2.4613996094     0.2204568892
   10      C      -1.9197020237    -1.3588538017    -0.2342333329
   11      C      -2.2742206628    -0.4609991298     1.0000091593
   12      C      -3.0099234757     0.8687223600     0.5696994494
   13      C      -2.9476768847     1.1805543295    -0.9697697761
   14      O      -3.9079564351     1.3196272091    -1.7555553404
   15      O       4.9639724851     0.6378607713     1.4927827670
   16      O      -1.5725721205     1.4216586046    -1.3170506777
   17      O      -2.2786606833    -1.1832824915    -1.4219500581
   18      C      -1.4472958159     1.6127578450    -2.7769477044
   19      C      -3.4282433839    -1.1750295637     1.8302964885
   20      C      -3.6804776403    -0.3688440129     3.1657212996
   21      C      -4.5120257585     0.8579441472     2.6338871198
   22      C      -4.4836379173     0.5833169621     1.0810740953
   23      O      -4.6220769554    -0.8910307856     1.0020553148
   24      H      -1.3693876294    -0.2757925065     1.6061134511
   25      H      -2.5763376608     1.7396270417     1.0954222145
   26      H      -3.2854830047    -2.2663139078     1.9535833054
   27      H      -4.2595175293    -0.9760439574     3.8793396521
   28      H      -2.7357191852    -0.0662255757     3.6451917338
   29      H      -5.5474563458     0.8347052663     3.0095922872
   30      H      -4.0607217643     1.8275404550     2.8977767018
   31      H      -5.2710716033     1.0792373810     0.4805890385
   32      O       1.9147803997    -1.4927912196     0.5764499768
   33      C       5.8615640840    -0.2813962002     2.2290005990
   34      C       2.6724350925     2.0444591230     0.5158718508
   35      C       2.4947869814     3.3227469822    -0.3891681223
   36      C       1.4575801137     2.7791669268    -1.4390140375
   37      C       1.0855105635     1.3705094798    -0.8221488731
   38      O       1.2815530006     1.5441945125     0.6363415251
   39      H       4.0996435059     1.4775601257    -1.0805222535
   40      H       2.4105103812     0.2310550168    -2.2500714004
   41      H       6.6829157568    -0.6546677051     1.5834421137
   42      H       3.1203345829     2.2094901882     1.5144715856
   43      H       2.0736856990     4.1532914308     0.2000825552
   44      H       3.4400415017     3.6539668418    -0.8477597872
   45      H       0.5595744435     3.4128425369    -1.5070713783
   46      H       1.8924518338     2.6806446373    -2.4464451178
   47      H       0.0582827414     1.0428596910    -1.0758179012
   48      H       5.3080404640    -1.1537271669     2.6325352623
   49      H       6.2853189391     0.3079564966     3.0628666218
   50      H      -0.3836366068     1.8446493764    -2.9671057299
   51      H      -2.0820694779     2.4479020007    -3.1371669478
   52      H      -1.7283975392     0.6903105539    -3.3251611182
   53      H      -1.3148510692    -3.0539446979    -1.8192716127
   54      H      -0.9539197021    -4.3762921746    -0.6181696855
   55      H       1.3603924163    -3.3625166580    -0.2099086129
   56      H       1.1330170265    -3.9152638018    -1.9282776467
 ----------------------------------------------------------------
 Molecular Point Group                 C1    NOp =  1
 Largest Abelian Subgroup              C1    NOp =  1
 Nuclear Repulsion Energy =  3304.1049973964 hartrees
 There are      113 alpha and      113 beta electrons
 Applying Cartesian multipole field
    Component          Value
    ---------          -----
     (2,0,0)        1.00000E-12
     (0,2,0)        2.00000E-11
     (0,0,2)       -3.00000E-11
 Nucleus-field energy     =     0.0000000014 hartrees
 Requested basis set is STO-3G
 There are 86 shells and 176 basis functions
 A cutoff of  1.0D-12 yielded   2486 shell pairs
 There are     11927 function pairs
 Smallest overlap matrix eigenvalue = 2.12E-01
 Guess MOs from SCF MO coefficient file
 Reading MOs from coefficient file
 Reading MOs from coefficient file
 A restricted hybrid HF-DFT SCF calculation will be
 performed using Pulay DIIS extrapolation
 Exchange:     0.2000 Hartree-Fock + 0.0800 Slater + 0.7200 B88
 Correlation:  0.1900 VWN1RPA + 0.8100 LYP
 Using SG-1 standard quadrature grid
 Dispersion:   Grimme D3
 SCF converges when DIIS error is below 1.0E-08
 Geometry optimization detected.  Setting ReadMinima to 0
 Setting SaveMinima to 0
 using 48 threads for integral computing
 -------------------------------------------------------
 OpenMP Integral computing Module                
 Release: version 1.0, May 2013, Q-Chem Inc. Pittsburgh 
 -------------------------------------------------------
 -------------------------------------------------------
 OpenMP BLAS3 based DFT computing Module                
 Release: version 1.0, May 2013, Q-Chem Inc. Pittsburgh 
 -------------------------------------------------------
 ---------------------------------------
  Cycle       Energy         DIIS Error
 ---------------------------------------
    1   -1510.1740859686      5.53E-03
    2   -1510.2815922636      6.78E-04
    3   -1510.2810386282      8.63E-04
    4   -1510.2839960126      3.24E-04
    5   -1510.2844267360      8.97E-05
    6   -1510.2844605795      2.96E-05
    7   -1510.2844649194      5.93E-06
    8   -1510.2844650548      3.43E-06
    9   -1510.2844651028      1.25E-06
   10   -1510.2844651099      3.61E-07
   11   -1510.2844651106      1.62E-07
   12   -1510.2844651106      8.68E-08
   13   -1510.2844651108      2.40E-08
   14   -1510.2844651108      3.04E-09 Convergence criterion met
 ---------------------------------------
 SCF time:  CPU 105.73 s  wall 2.21 s
 SCF   energy in the final basis set = -1510.28446511
 Total energy in the final basis set = -1510.28446511
 
 --------------------------------------------------------------
 
                    Orbital Energies (a.u.)
 --------------------------------------------------------------
 
 Alpha MOs
 -- Occupied --
-18.940 -18.937 -18.929 -18.926 -18.885 -18.884 -18.876 -18.874
-18.871 -18.868 -10.106 -10.101 -10.095 -10.093 -10.072 -10.067
-10.061 -10.061 -10.060 -10.056 -10.050 -10.039 -10.035 -10.034
-10.031 -10.030 -10.019 -10.018 -10.014 -10.012  -1.021  -1.010
 -1.008  -1.002  -0.969  -0.960  -0.944  -0.937  -0.933  -0.927
 -0.763  -0.757  -0.727  -0.718  -0.712  -0.701  -0.694  -0.662
 -0.656  -0.617  -0.596  -0.574  -0.547  -0.538  -0.537  -0.531
 -0.511  -0.509  -0.488  -0.474  -0.460  -0.454  -0.452  -0.445
 -0.431  -0.428  -0.422  -0.417  -0.411  -0.409  -0.404  -0.402
 -0.396  -0.379  -0.369  -0.367  -0.359  -0.356  -0.356  -0.347
 -0.341  -0.340  -0.336  -0.333  -0.325  -0.319  -0.315  -0.310
 -0.307  -0.305  -0.301  -0.296  -0.288  -0.287  -0.282  -0.272
 -0.268  -0.253  -0.251  -0.245  -0.241  -0.233  -0.224  -0.190
 -0.178  -0.173  -0.163  -0.162  -0.155  -0.150  -0.144  -0.144
 -0.135
 -- Virtual --
  0.093   0.103   0.108   0.110   0.227   0.241   0.249   0.252
  0.260   0.266   0.284   0.294   0.306   0.320   0.329   0.334
  0.336   0.341   0.348   0.354   0.356   0.368   0.371   0.374
  0.378   0.382   0.387   0.401   0.404   0.411   0.412   0.414
  0.416   0.421   0.424   0.426   0.426   0.428   0.429   0.433
  0.435   0.437   0.440   0.443   0.449   0.453   0.458   0.463
  0.467   0.481   0.489   0.496   0.506   0.511   0.522   0.541
  0.545   0.553   0.576   0.639   0.640   0.647   0.664
 --------------------------------------------------------------
 
          Ground-State Mulliken Net Atomic Charges

     Atom                 Charge (a.u.)
  ----------------------------------------
      1 O                    -0.215018
      2 C                     0.212845
      3 C                    -0.079963
      4 C                    -0.079860
      5 C                     0.213815
      6 O                    -0.176727
      7 C                    -0.054938
      8 C                    -0.054092
      9 O                    -0.169444
     10 C                     0.217439
     11 C                    -0.077331
     12 C                    -0.081375
     13 C                     0.223678
     14 O                    -0.208280
     15 O                    -0.172401
     16 O                    -0.175139
     17 O                    -0.211231
     18 C                    -0.129633
     19 C                     0.025033
     20 C                    -0.144398
     21 C                    -0.142934
     22 C                     0.023904
     23 O                    -0.191046
     24 H                     0.097130
     25 H                     0.087236
     26 H                     0.085366
     27 H                     0.078175
     28 H                     0.076149
     29 H                     0.078039
     30 H                     0.073890
     31 H                     0.090161
     32 O                    -0.209349
     33 C                    -0.128095
     34 C                     0.023919
     35 C                    -0.142387
     36 C                    -0.148930
     37 C                     0.000795
     38 O                    -0.195602
     39 H                     0.082157
     40 H                     0.083265
     41 H                     0.087006
     42 H                     0.088533
     43 H                     0.075524
     44 H                     0.071089
     45 H                     0.074931
     46 H                     0.067625
     47 H                     0.113508
     48 H                     0.091766
     49 H                     0.088946
     50 H                     0.090339
     51 H                     0.089258
     52 H                     0.095179
     53 H                     0.102634
     54 H                     0.088188
     55 H                     0.104016
     56 H                     0.086633
  ----------------------------------------
  Sum of atomic charges =    -0.000000

 -----------------------------------------------------------------
                    Cartesian Multipole Moments
 -----------------------------------------------------------------
    Charge (ESU x 10^10)
                -0.0000
    Dipole Moment (Debye)
         X       1.7904      Y       0.8674      Z       0.3916
       Tot       2.0276
    Quadrupole Moments (Debye-Ang)
        XX    -164.6824     XY       2.3334     YY    -150.8863
        XZ      -7.4698     YZ      -0.2447     ZZ    -154.0224
    Octopole Moments (Debye-Ang^2)
       XXX     137.1859    XXY      21.0270    XYY      -1.9106
       YYY     -59.1856    XXZ      56.0803    XYZ     -11.4990
       YYZ     -21.9711    XZZ      21.0998    YZZ      -5.6983
       ZZZ      -8.6942
    Hexadecapole Moments (Debye-Ang^3)
      XXXX   -9278.3158   XXXY    -209.8295   XXYY   -2094.4310
      XYYY    -161.3908   YYYY   -2771.9100   XXXZ     214.8607
      XXYZ      25.6247   XYYZ      49.9730   YYYZ     152.9574
      XXZZ   -1836.1168   XYZZ     -53.2171   YYZZ    -846.4053
      XZZZ     196.2333   YZZZ      77.4933   ZZZZ   -2224.3495
 -----------------------------------------------------------------
 Calculating analytic gradient of the SCF energy
 Gradient of SCF Energy
            1           2           3           4           5           6
    1  -0.0008163  -0.0001405   0.0001095   0.0001113  -0.0022900  -0.0023902
    2   0.0000408  -0.0009599   0.0011683  -0.0025483   0.0010374   0.0001736
    3   0.0005338   0.0005317   0.0004433  -0.0013989  -0.0004252   0.0015998
            7           8           9          10          11          12
    1  -0.0022006   0.0007331  -0.0001456  -0.0029893   0.0015798  -0.0015784
    2  -0.0009119   0.0023384   0.0001158  -0.0019729   0.0020375  -0.0022776
    3  -0.0006525  -0.0019532  -0.0001674  -0.0003034   0.0000668   0.0002301
           13          14          15          16          17          18
    1   0.0069719  -0.0028689   0.0007870   0.0078515   0.0003692   0.0021373
    2   0.0045873   0.0000326   0.0005135  -0.0030871   0.0000635  -0.0020659
    3  -0.0029347  -0.0005083  -0.0011640   0.0087128  -0.0003371   0.0056526
           19          20          21          22          23          24
    1  -0.0002818   0.0000384  -0.0001310   0.0010755   0.0002605  -0.0008697
    2  -0.0009151   0.0004942  -0.0002472  -0.0004575  -0.0005226   0.0003060
    3   0.0003273   0.0000096  -0.0000585   0.0001588   0.0004332   0.0009211
           25          26          27          28          29          30
    1  -0.0010841  -0.0000735   0.0000846   0.0000223   0.0000729  -0.0000224
    2   0.0010498   0.0000014  -0.0000733  -0.0000738   0.0001077  -0.0000080
    3  -0.0003467  -0.0001620  -0.0000751   0.0000406   0.0001339  -0.0000004
           31          32          33          34          35          36
    1   0.0002120   0.0018372   0.0001695   0.0002672  -0.0003720  -0.0004890
    2   0.0001359  -0.0006827  -0.0000640  -0.0001793  -0.0002707   0.0007432
    3  -0.0001938   0.0007793  -0.0001988  -0.0014582  -0.0001267  -0.0012370
           37          38          39          40          41          42
    1  -0.0091862  -0.0014467  -0.0002385  -0.0003004   0.0000059  -0.0004783
    2   0.0025404  -0.0000671   0.0010103   0.0007394   0.0000362  -0.0003506
    3   0.0026231   0.0015015   0.0004016  -0.0002267   0.0000209   0.0000548
           43          44          45          46          47          48
    1   0.0000025  -0.0000057  -0.0009095  -0.0003304   0.0006872  -0.0001042
    2  -0.0000259  -0.0001827  -0.0010239  -0.0003287   0.0005214  -0.0000927
    3   0.0001099   0.0000005  -0.0011731   0.0002445  -0.0116922  -0.0000504
           49          50          51          52          53          54
    1  -0.0000514   0.0032417  -0.0001278   0.0003339  -0.0005947   0.0009217
    2   0.0000372   0.0004329   0.0004723   0.0001803  -0.0008912   0.0003201
    3   0.0000269   0.0017708  -0.0006911  -0.0006772  -0.0005014   0.0007938
           55          56
    1   0.0018508   0.0007828
    2   0.0002886  -0.0012457
    3  -0.0002935   0.0008843
 Max gradient component =       1.169E-02
 RMS gradient           =       1.943E-03
 Gradient time:  CPU 30.85 s  wall 0.65 s
 Geometry Optimization Parameters
   NAtoms,    NIC,     NZ,  NCons,   NDum,   NFix, NCnnct, MaxDiis
       56     458       0       0       0       0       0       0

 Cartesian Hessian Update
 Hessian Updated using BFGS Update


** GEOMETRY OPTIMIZATION IN DELOCALIZED INTERNAL COORDINATES **
   Searching for a Minimum

   Optimization Cycle:   3

                       Coordinates (Angstroms)
     ATOM                X               Y               Z
      1  O         4.5690707557   -1.2551701141    0.1288734819
      2  C         4.3335170365   -0.0614508098    0.4129697279
      3  C         3.4298578744    0.9546551700   -0.3716987163
      4  C         2.2205581001    0.3165351253   -1.1658792582
      5  C         1.7770925859   -1.0733577339   -0.5935796156
      6  O         1.1396352524   -1.8240852482   -1.6425619386
      7  C         0.8062365455   -3.1843432616   -1.1582325219
      8  C        -0.7332611774   -3.3289126861   -0.9125979739
      9  O        -1.1386766988   -2.4613996094    0.2204568892
     10  C        -1.9197020237   -1.3588538017   -0.2342333329
     11  C        -2.2742206628   -0.4609991298    1.0000091593
     12  C        -3.0099234757    0.8687223600    0.5696994494
     13  C        -2.9476768847    1.1805543295   -0.9697697761
     14  O        -3.9079564351    1.3196272091   -1.7555553404
     15  O         4.9639724851    0.6378607713    1.4927827670
     16  O        -1.5725721205    1.4216586046   -1.3170506777
     17  O        -2.2786606833   -1.1832824915   -1.4219500581
     18  C        -1.4472958159    1.6127578450   -2.7769477044
     19  C        -3.4282433839   -1.1750295637    1.8302964885
     20  C        -3.6804776403   -0.3688440129    3.1657212996
     21  C        -4.5120257585    0.8579441472    2.6338871198
     22  C        -4.4836379173    0.5833169621    1.0810740953
     23  O        -4.6220769554   -0.8910307856    1.0020553148
     24  H        -1.3693876294   -0.2757925065    1.6061134511
     25  H        -2.5763376608    1.7396270417    1.0954222145
     26  H        -3.2854830047   -2.2663139078    1.9535833054
     27  H        -4.2595175293   -0.9760439574    3.8793396521
     28  H        -2.7357191852   -0.0662255757    3.6451917338
     29  H        -5.5474563458    0.8347052663    3.0095922872
     30  H        -4.0607217643    1.8275404550    2.8977767018
     31  H        -5.2710716033    1.0792373810    0.4805890385
     32  O         1.9147803997   -1.4927912196    0.5764499768
     33  C         5.8615640840   -0.2813962002    2.2290005990
     34  C         2.6724350925    2.0444591230    0.5158718508
     35  C         2.4947869814    3.3227469822   -0.3891681223
     36  C         1.4575801137    2.7791669268   -1.4390140375
     37  C         1.0855105635    1.3705094798   -0.8221488731
     38  O         1.2815530006    1.5441945125    0.6363415251
     39  H         4.0996435059    1.4775601257   -1.0805222535
     40  H         2.4105103812    0.2310550168   -2.2500714004
     41  H         6.6829157568   -0.6546677051    1.5834421137
     42  H         3.1203345829    2.2094901882    1.5144715856
     43  H         2.0736856990    4.1532914308    0.2000825552
     44  H         3.4400415017    3.6539668418   -0.8477597872
     45  H         0.5595744435    3.4128425369   -1.5070713783
     46  H         1.8924518338    2.6806446373   -2.4464451178
     47  H         0.0582827414    1.0428596910   -1.0758179012
     48  H         5.3080404640   -1.1537271669    2.6325352623
     49  H         6.2853189391    0.3079564966    3.0628666218
     50  H        -0.3836366068    1.8446493764   -2.9671057299
     51  H        -2.0820694779    2.4479020007   -3.1371669478
     52  H        -1.7283975392    0.6903105539   -3.3251611182
     53  H        -1.3148510692   -3.0539446979   -1.8192716127
     54  H        -0.9539197021   -4.3762921746   -0.6181696855
     55  H         1.3603924163   -3.3625166580   -0.2099086129
     56  H         1.1330170265   -3.9152638018   -1.9282776467
   Point Group: c1    Number of degrees of freedom:   162


   Energy is  -1510.284465111

 Hessian Updated using BFGS Update

152 Hessian modes will be used to form the next step
  Hessian Eigenvalues:
     0.001767    0.002065    0.002361    0.002728    0.002834    0.004202
     0.004343    0.004726    0.004941    0.005105    0.005382    0.005777
     0.006752    0.006784    0.009901    0.010611    0.011337    0.021592
     0.021691    0.024524    0.026111    0.026219    0.030628    0.031646
     0.034175    0.035377    0.038838    0.040144    0.040801    0.042023
     0.042250    0.045304    0.045586    0.047068    0.047961    0.048783
     0.050943    0.051227    0.053326    0.053818    0.054545    0.055120
     0.055489    0.056006    0.056231    0.056578    0.059845    0.059965
     0.060158    0.061092    0.062646    0.063504    0.064390    0.065030
     0.068773    0.069776    0.072060    0.072969    0.073948    0.090702
     0.092511    0.092560    0.095434    0.096597    0.096709    0.097197
     0.098041    0.102617    0.102799    0.110965    0.111480    0.112078
     0.113827    0.121672    0.122933    0.135511    0.151316    0.157231
     0.158378    0.159995    0.160003    0.160098    0.162979    0.164325
     0.217529    0.218749    0.221730    0.228228    0.229672    0.235077
     0.238699    0.239269    0.239453    0.239951    0.244647    0.246786
     0.246915    0.247717    0.248876    0.249268    0.249916    0.250942
     0.253666    0.253845    0.258488    0.260440    0.262030    0.262329
     0.262504    0.291221    0.291619    0.306416    0.306763    0.323130
     0.324128    0.325125    0.325915    0.326648    0.326704    0.326869
     0.327042    0.328651    0.328773    0.328977    0.329434    0.329648
     0.330540    0.330758    0.331111    0.331989    0.332334    0.334525
     0.334769    0.334887    0.334931    0.335059    0.335069    0.335083
     0.335713    0.341479    0.343001    0.344643    0.348384    0.394955
     0.397963    0.406217    0.415092    0.820778    0.830463    0.834280
     0.837401    2.746089

 Minimum Search - Taking Simple RFO Step
 Searching for Lamda that Minimizes Along All modes
 Value Taken    Lamda =  -0.02631909
 Calculated Step too Large.  Step scaled by  0.769120
 Step Taken.  Stepsize is  0.300000

                             Maximum     Tolerance    Cnvgd?
         Gradient           0.156311      0.000300      NO
         Displacement       0.134181      0.001200      NO
         Energy change      0.004539      0.000001      NO


 New Cartesian Coordinates Obtained by Inverse Iteration

 Displacement from previous Coordinates is:  6.465462
 Adding empirical dispersion correction 
 ----------------------------------------------------------------
 Doing -D3(op) with
 s6 =   1.00000
 s8 =   0.78311
 a1 =   0.30000
 a2 =   4.25000
 n  =  10.00000
 -D3 energy without 3body term =     -0.0741134793 hartrees
 ----------------------------------------------------------------
             Standard Nuclear Orientation (Angstroms)
    I     Atom           X                Y                Z
 ----------------------------------------------------------------
    1      O       4.5414236072    -1.1882901122     0.1161520214
    2      C       4.2089312064    -0.0584791033     0.5334938249
    3      C       3.2328545627     0.9682697150    -0.1438924811
    4      C       2.0583316898     0.3349485584    -0.9926564869
    5      C       1.6993779317    -1.1259190715    -0.5634512233
    6      O       1.1319078008    -1.8032688608    -1.6968516999
    7      C       0.8450606787    -3.2076166679    -1.3302702221
    8      C      -0.6914401566    -3.3566862266    -1.0918642611
    9      O      -1.0461119135    -2.4934208267     0.0588789297
   10      C      -1.8488375264    -1.4021362036    -0.3866626601
   11      C      -2.0119251192    -0.3823103673     0.7879692345
   12      C      -2.7673651274     0.9269662811     0.3254324247
   13      C      -2.9474322497     1.0692963438    -1.2311238333
   14      O      -4.0224026049     1.1228164469    -1.8630952275
   15      O       4.7811927681     0.5589832354     1.6930009644
   16      O      -1.6521566083     1.2584964336    -1.8309242516
   17      O      -2.3280059337    -1.3024807199    -1.5400968966
   18      C      -1.7946806449     1.2968034360    -3.3026984098
   19      C      -3.0510003247    -0.9662135143     1.8399373587
   20      C      -3.0876591008    -0.0252745682     3.1084641242
   21      C      -3.9546002252     1.1766567166     2.5762370287
   22      C      -4.1577111847     0.7499589773     1.0711046698
   23      O      -4.3441123461    -0.7178205398     1.1642759413
   24      H      -1.0245492569    -0.1728113141     1.2376976280
   25      H      -2.2445812107     1.8317885887     0.6867402541
   26      H      -2.9192182918    -2.0450446724     2.0528532627
   27      H      -3.5737096717    -0.5362811270     3.9544522695
   28      H      -2.0762237155     0.2837362829     3.4174383888
   29      H      -4.9255586333     1.2309564584     3.0939766455
   30      H      -3.4458893936     2.1487615044     2.6735837458
   31      H      -5.0122279460     1.2136997028     0.5407483717
   32      O       1.8289530692    -1.6447330385     0.5667175726
   33      C       5.7442049904    -0.3684177489     2.3293201283
   34      C       2.4156941469     1.9112121170     0.8511364593
   35      C       2.1399624428     3.2578594098     0.0788326688
   36      C       1.1213039061     2.7545576862    -1.0090354530
   37      C       0.8544668785     1.2681954620    -0.5347364804
   38      O       1.0639862957     1.3083735928     0.9311808421
   39      H       3.8605614385     1.6035347329    -0.7974749627
   40      H       2.2450569935     0.3669926010    -2.0801295278
   41      H       6.5918557180    -0.6040190035     1.6534762345
   42      H       2.8653371224     2.0062813548     1.8581449144
   43      H       1.6740863334     3.9952934440     0.7520745956
   44      H       3.0535734823     3.6963526809    -0.3530436390
   45      H       0.1847438932     3.3341521002    -0.9977822190
   46      H       1.5423421754     2.7874525991    -2.0271013207
   47      H      -0.1606707047     0.8957967440    -0.7938489770
   48      H       5.2573047607    -1.3197303489     2.6263282444
   49      H       6.1217016028     0.1520451822     3.2286656593
   50      H      -0.7864505910     1.4968706639    -3.7076516225
   51      H      -2.4922086722     2.0961380258    -3.6256636847
   52      H      -2.1636263751     0.3253475952    -3.6908083670
   53      H      -1.2746022478    -3.0377460906    -1.9826256268
   54      H      -0.9293905326    -4.4094537504    -0.8305078342
   55      H       1.3863451297    -3.4358466275    -0.3856291248
   56      H       1.1911710955    -3.8779804003    -2.1453287868
 ----------------------------------------------------------------
 Molecular Point Group                 C1    NOp =  1
 Largest Abelian Subgroup              C1    NOp =  1
 Nuclear Repulsion Energy =  3343.6312520819 hartrees
 There are      113 alpha and      113 beta electrons
 Applying Cartesian multipole field
    Component          Value
    ---------          -----
     (2,0,0)        1.00000E-12
     (0,2,0)        2.00000E-11
     (0,0,2)       -3.00000E-11
 Nucleus-field energy     =    -0.0000000065 hartrees
 Requested basis set is STO-3G
 There are 86 shells and 176 basis functions
 A cutoff of  1.0D-12 yielded   2594 shell pairs
 There are     12455 function pairs
 Smallest overlap matrix eigenvalue = 2.13E-01
 Guess MOs from SCF MO coefficient file
 Reading MOs from coefficient file
 Reading MOs from coefficient file
 A restricted hybrid HF-DFT SCF calculation will be
 performed using Pulay DIIS extrapolation
[...]
      7  C         0.9561961923   -2.8446549274   -2.1518700204
      8  C        -0.1304977477   -3.3751111151   -1.1281092788
      9  O        -0.2128692347   -2.4580714461    0.0315888658
     10  C        -1.2340916753   -1.4791092132   -0.2126312086
     11  C        -1.1736261834   -0.3822570191    0.8865455892
     12  C        -2.0727066436    0.8705343488    0.5277575599
     13  C        -2.8111340556    0.7686234777   -0.8549927585
     14  O        -4.0316829361    0.6116087114   -1.0610740465
     15  O         1.7530954544   -0.2597259037    1.7482400639
     16  O        -1.8584840878    1.0492516167   -1.9056728388
     17  O        -2.0346545703   -1.5419872067   -1.1747780593
     18  C        -2.4828641169    0.8585366676   -3.2301267331
     19  C        -1.8525734234   -0.8506925227    2.2442340193
     20  C        -1.4412859282    0.1807755713    3.3700814849
     21  C        -2.3643793899    1.4041819306    3.0148629669
     22  C        -3.1033671364    0.8631828094    1.7299462560
     23  O        -3.2896536123   -0.5788838835    2.0220275053
     24  H        -0.1109613062   -0.0890184671    1.0420353818
     25  H        -1.4291663876    1.7708523210    0.5224325816
     26  H        -1.6927604270   -1.9172043408    2.4967636276
     27  H        -1.6680696150   -0.2236898141    4.3693105020
     28  H        -0.3708837387    0.4345200914    3.3202573970
     29  H        -3.0882415996    1.6110169551    3.8191206918
     30  H        -1.7907339629    2.3213609168    2.8069017981
     31  H        -4.0772858810    1.3356231797    1.4973095927
     32  O         2.5861990116   -1.7541152331   -0.3767143768
     33  C         1.8532890317   -1.3837003621    2.7061558972
     34  C         2.0336057956    2.3570678129    0.5160947213
     35  C         2.1950427352    3.4968254292   -0.5668779045
     36  C         1.3283423933    2.9221613132   -1.7495207419
     37  C         0.8944083054    1.5217359730   -1.1652095214
     38  O         0.6756957073    1.8293257184    0.2682130067
     39  H         3.9841315296    1.4538820118   -0.1390436977
     40  H         2.7824398147    0.7933363814   -2.0784207164
     41  H         2.3832740982   -1.0846874305    3.6336230822
     42  H         2.1386328975    2.6849966987    1.5684299035
     43  H         1.7895705827    4.4490030887   -0.1895050108
     44  H         3.2492205170    3.6496661012   -0.8484878734
     45  H         0.4389973912    3.5453648601   -1.9362697606
     46  H         1.8964027180    2.8290271449   -2.6887781921
     47  H        -0.0451863005    1.1016453902   -1.5996976563
     48  H         2.3834166683   -2.2447624431    2.2516762114
     49  H         0.8167056718   -1.6761420346    2.9493707182
     50  H        -1.7139345442    1.1315107969   -3.9762949878
     51  H        -3.3743723435    1.5057968702   -3.3587438115
     52  H        -2.7866115609   -0.1981888420   -3.3776991539
     53  H        -1.1238850297   -3.4260781048   -1.6208340858
     54  H         0.1634887641   -4.3710765356   -0.7418506734
     55  H         1.9472925664   -3.2747919315   -1.8992980294
     56  H         0.6724567911   -3.1215582520   -3.1867506622
   Point Group: c1    Number of degrees of freedom:   162


   Energy is  -1510.306248190

 Hessian Updated using BFGS Update

162 Hessian modes will be used to form the next step
  Hessian Eigenvalues:
     0.000544    0.001959    0.002829    0.002884    0.003861    0.004614
     0.005003    0.006691    0.007835    0.011732    0.014540    0.016152
     0.017491    0.019644    0.021646    0.022274    0.024155    0.025751
     0.028496    0.031440    0.031992    0.033218    0.034647    0.038416
     0.039045    0.040434    0.041120    0.043042    0.043847    0.044131
     0.046458    0.047035    0.048703    0.050009    0.051155    0.051613
     0.051985    0.053694    0.055278    0.055779    0.055961    0.056660
     0.056914    0.057673    0.058977    0.060925    0.062882    0.063031
     0.063724    0.064683    0.065123    0.065865    0.067581    0.068499
     0.071413    0.072612    0.073340    0.075094    0.087252    0.090642
     0.091925    0.092848    0.093449    0.096914    0.097762    0.100772
     0.102048    0.102702    0.107602    0.108594    0.110912    0.111996
     0.115348    0.127591    0.131446    0.140991    0.142324    0.159190
     0.159827    0.160347    0.160923    0.161277    0.162691    0.164957
     0.167639    0.175001    0.181535    0.187223    0.207004    0.219998
     0.221684    0.234423    0.237457    0.237977    0.238657    0.240465
     0.241414    0.242848    0.243722    0.245228    0.247936    0.249634
     0.252880    0.254407    0.255715    0.257408    0.259625    0.260260
     0.264824    0.266036    0.268667    0.274554    0.290283    0.295438
     0.299871    0.304005    0.304616    0.319606    0.323048    0.325123
     0.325597    0.326146    0.326626    0.326719    0.326907    0.327111
     0.328075    0.328718    0.328968    0.329419    0.329522    0.330336
     0.330885    0.331983    0.332599    0.333347    0.334530    0.334863
     0.334987    0.335029    0.335077    0.335164    0.335668    0.336859
     0.338650    0.347772    0.348112    0.356947    0.376629    0.390788
     0.398607    0.423234    0.444785    0.495426    0.609437    0.824743
     0.829024    0.834614    0.839526    1.116883    2.017691    3.546315

 Minimum Search - Taking Simple RFO Step
 Searching for Lamda that Minimizes Along All modes
 Value Taken    Lamda =   0.00000000
 Step Taken.  Stepsize is  0.003886

                             Maximum     Tolerance    Cnvgd?
         Gradient           0.000154      0.000300     YES
         Displacement       0.001154      0.001200     YES
         Energy change      0.000001      0.000001     YES

 Final energy is   -1510.30624818992     


 ******************************
 **  OPTIMIZATION CONVERGED  **
 ******************************

                       Coordinates (Angstroms)
     ATOM                X               Y               Z
      1  O         4.1242676387   -0.3617314127    1.7779421309
      2  C         3.0707738634    0.0770996613    1.2703739402
      3  C         2.9582580889    1.1330208733    0.1124019416
      4  C         2.1881111447    0.5971347458   -1.1658748564
      5  C         1.9683532610   -0.9534415852   -1.1157745791
      6  O         1.0416782161   -1.3613756730   -2.1294370734
      7  C         0.9561961923   -2.8446549274   -2.1518700204
      8  C        -0.1304977477   -3.3751111151   -1.1281092788
      9  O        -0.2128692347   -2.4580714461    0.0315888658
     10  C        -1.2340916753   -1.4791092132   -0.2126312086
     11  C        -1.1736261834   -0.3822570191    0.8865455892
     12  C        -2.0727066436    0.8705343488    0.5277575599
     13  C        -2.8111340556    0.7686234777   -0.8549927585
     14  O        -4.0316829361    0.6116087114   -1.0610740465
     15  O         1.7530954544   -0.2597259037    1.7482400639
     16  O        -1.8584840878    1.0492516167   -1.9056728388
     17  O        -2.0346545703   -1.5419872067   -1.1747780593
     18  C        -2.4828641169    0.8585366676   -3.2301267331
     19  C        -1.8525734234   -0.8506925227    2.2442340193
     20  C        -1.4412859282    0.1807755713    3.3700814849
     21  C        -2.3643793899    1.4041819306    3.0148629669
     22  C        -3.1033671364    0.8631828094    1.7299462560
     23  O        -3.2896536123   -0.5788838835    2.0220275053
     24  H        -0.1109613062   -0.0890184671    1.0420353818
     25  H        -1.4291663876    1.7708523210    0.5224325816
     26  H        -1.6927604270   -1.9172043408    2.4967636276
     27  H        -1.6680696150   -0.2236898141    4.3693105020
     28  H        -0.3708837387    0.4345200914    3.3202573970
     29  H        -3.0882415996    1.6110169551    3.8191206918
     30  H        -1.7907339629    2.3213609168    2.8069017981
     31  H        -4.0772858810    1.3356231797    1.4973095927
     32  O         2.5861990116   -1.7541152331   -0.3767143768
     33  C         1.8532890317   -1.3837003621    2.7061558972
     34  C         2.0336057956    2.3570678129    0.5160947213
     35  C         2.1950427352    3.4968254292   -0.5668779045
     36  C         1.3283423933    2.9221613132   -1.7495207419
     37  C         0.8944083054    1.5217359730   -1.1652095214
     38  O         0.6756957073    1.8293257184    0.2682130067
     39  H         3.9841315296    1.4538820118   -0.1390436977
     40  H         2.7824398147    0.7933363814   -2.0784207164
     41  H         2.3832740982   -1.0846874305    3.6336230822
     42  H         2.1386328975    2.6849966987    1.5684299035
     43  H         1.7895705827    4.4490030887   -0.1895050108
     44  H         3.2492205170    3.6496661012   -0.8484878734
     45  H         0.4389973912    3.5453648601   -1.9362697606
     46  H         1.8964027180    2.8290271449   -2.6887781921
     47  H        -0.0451863005    1.1016453902   -1.5996976563
     48  H         2.3834166683   -2.2447624431    2.2516762114
     49  H         0.8167056718   -1.6761420346    2.9493707182
     50  H        -1.7139345442    1.1315107969   -3.9762949878
     51  H        -3.3743723435    1.5057968702   -3.3587438115
     52  H        -2.7866115609   -0.1981888420   -3.3776991539
     53  H        -1.1238850297   -3.4260781048   -1.6208340858
     54  H         0.1634887641   -4.3710765356   -0.7418506734
     55  H         1.9472925664   -3.2747919315   -1.8992980294
     56  H         0.6724567911   -3.1215582520   -3.1867506622

Z-matrix Print:
$molecule
0 1
O 
C  1 1.477795
H  2 1.107239 1 110.630884
C  1 1.482278 2 95.781366 3 179.400400 0
H  4 1.117181 1 109.270551 2 -179.244502 0
C  4 1.578262 1 102.383921 2 -57.017072 0
H  6 1.101622 4 112.483604 1 157.890619 0
H  6 1.101904 4 110.040245 1 -80.841485 0
C  6 1.574818 4 101.366166 1 37.173825 0
H  9 1.101572 6 111.722372 4 -120.774911 0
H  9 1.101796 6 112.658755 4 116.582894 0
C  2 1.586266 1 102.554408 3 122.566139 0
H  12 1.103899 2 112.048307 1 157.847441 0
C  12 1.571155 2 111.887209 1 -81.645205 0
O  14 1.249019 12 126.586276 2 -125.925593 0
O  14 1.441556 12 109.626593 2 49.974918 0
C  16 1.480189 14 109.273610 12 172.387981 0
H  17 1.104165 16 106.267245 14 -173.626083 0
H  17 1.108609 16 110.906878 14 -54.720118 0
H  17 1.109274 16 111.638178 14 66.899611 0
C  12 1.585652 2 100.534565 1 39.361936 0
H  21 1.106554 12 110.122101 2 110.496516 0
C  21 1.566873 12 112.134885 2 -131.618412 0
O  23 1.252606 21 125.608563 12 -17.415742 0
O  23 1.432707 21 110.478817 12 168.038786 0
C  25 1.485910 23 109.397285 21 174.287235 0
H  26 1.108224 25 106.155596 23 -152.692681 0
H  26 1.109542 25 109.399981 23 -33.865839 0
C  26 1.584416 25 111.340219 23 87.451046 0
H  29 1.107958 26 110.134623 25 -149.246529 0
H  29 1.110042 26 110.020010 25 88.653489 0
O  29 1.480759 26 109.685598 25 -31.292884 0
C  32 1.435586 29 109.187301 26 92.511063 0
O  33 1.253228 32 123.422672 29 9.329689 0
C  33 1.554005 32 109.469902 29 -170.953323 0
H  35 1.113294 33 108.774275 32 45.070082 0
C  35 1.583212 33 112.093978 32 168.737835 0
H  37 1.106682 35 108.337086 33 -122.695857 0
C  37 1.570879 35 114.525084 33 -1.097636 0
O  39 1.247743 37 127.833935 35 109.407059 0
O  39 1.445760 37 108.503494 35 -77.438154 0
C  41 1.476618 39 110.374165 37 175.461090 0
H  42 1.105683 41 106.221934 39 177.614062 0
H  42 1.109178 41 111.623294 39 58.111330 0
H  42 1.109373 41 110.984647 39 -63.297034 0
C  37 1.583532 35 101.180137 33 118.623700 0
H  46 1.107175 37 114.269409 35 -154.190149 0
O  46 1.483095 37 103.637616 35 -34.209060 0
C  48 1.479343 46 94.945994 37 56.263325 0
H  49 1.107591 48 110.568988 46 179.853680 0
C  46 1.577908 37 108.167865 35 75.101523 0
H  51 1.101605 46 112.062016 37 46.761464 0
H  51 1.101630 46 110.557068 37 168.428403 0
C  51 1.573215 46 101.071892 37 -73.377219 0
H  54 1.101195 51 112.392054 46 117.874756 0
H  54 1.101581 51 111.687459 46 -119.235763 0
$end

 
 --------------------------------------------------------------
 
                    Orbital Energies (a.u.)
 --------------------------------------------------------------
 
 Alpha MOs
 -- Occupied --
-18.945 -18.937 -18.928 -18.923 -18.891 -18.886 -18.881 -18.877
-18.868 -18.861 -10.109 -10.100 -10.096 -10.089 -10.077 -10.073
-10.064 -10.057 -10.056 -10.052 -10.048 -10.047 -10.041 -10.037
-10.021 -10.019 -10.018 -10.018 -10.011 -10.010  -1.027  -1.012
 -1.003  -0.997  -0.973  -0.961  -0.946  -0.938  -0.930  -0.925
 -0.765  -0.753  -0.726  -0.719  -0.710  -0.702  -0.692  -0.655
 -0.653  -0.620  -0.596  -0.575  -0.546  -0.539  -0.538  -0.529
 -0.512  -0.502  -0.489  -0.480  -0.465  -0.456  -0.445  -0.441
 -0.428  -0.427  -0.419  -0.417  -0.410  -0.407  -0.404  -0.403
 -0.396  -0.382  -0.371  -0.367  -0.361  -0.357  -0.347  -0.346
 -0.342  -0.339  -0.333  -0.328  -0.324  -0.323  -0.316  -0.315
 -0.306  -0.304  -0.301  -0.295  -0.293  -0.284  -0.279  -0.270
 -0.267  -0.258  -0.248  -0.246  -0.242  -0.236  -0.220  -0.196
 -0.174  -0.171  -0.166  -0.163  -0.157  -0.148  -0.146  -0.140
 -0.135
 -- Virtual --
  0.089   0.096   0.108   0.117   0.209   0.238   0.248   0.255
  0.267   0.276   0.283   0.293   0.306   0.323   0.328   0.336
  0.340   0.342   0.350   0.353   0.356   0.361   0.366   0.367
  0.372   0.378   0.387   0.391   0.402   0.405   0.409   0.410
  0.414   0.423   0.429   0.431   0.432   0.433   0.440   0.441
  0.443   0.446   0.449   0.451   0.454   0.457   0.459   0.462
  0.475   0.486   0.488   0.493   0.499   0.505   0.523   0.537
  0.560   0.564   0.567   0.628   0.645   0.648   0.660
 --------------------------------------------------------------
 
          Ground-State Mulliken Net Atomic Charges

     Atom                 Charge (a.u.)
  ----------------------------------------
      1 O                    -0.213197
      2 C                     0.215854
      3 C                    -0.080624
      4 C                    -0.080533
      5 C                     0.214739
      6 O                    -0.168512
      7 C                    -0.052800
      8 C                    -0.055035
      9 O                    -0.171329
     10 C                     0.212848
     11 C                    -0.092580
     12 C                    -0.087354
     13 C                     0.219124
     14 O                    -0.213981
     15 O                    -0.175375
     16 O                    -0.179925
     17 O                    -0.211402
     18 C                    -0.126703
     19 C                     0.023446
     20 C                    -0.145060
     21 C                    -0.143137
     22 C                     0.024089
     23 O                    -0.191524
     24 H                     0.117876
     25 H                     0.099251
     26 H                     0.078622
     27 H                     0.073804
     28 H                     0.078711
     29 H                     0.075089
     30 H                     0.074502
     31 H                     0.086320
     32 O                    -0.209492
     33 C                    -0.128059
     34 C                     0.025957
     35 C                    -0.144943
     36 C                    -0.143779
     37 C                     0.008163
     38 O                    -0.195306
     39 H                     0.084860
     40 H                     0.085757
     41 H                     0.085194
     42 H                     0.082154
     43 H                     0.076948
     44 H                     0.073505
     45 H                     0.077559
     46 H                     0.071551
     47 H                     0.115280
     48 H                     0.096320
     49 H                     0.089570
     50 H                     0.085522
     51 H                     0.088230
     52 H                     0.093501
     53 H                     0.099744
     54 H                     0.090234
     55 H                     0.095466
     56 H                     0.090864
  ----------------------------------------
  Sum of atomic charges =    -0.000000

 -----------------------------------------------------------------
                    Cartesian Multipole Moments
 -----------------------------------------------------------------
    Charge (ESU x 10^10)
                -0.0000
    Dipole Moment (Debye)
         X       2.1105      Y       0.7973      Z      -1.5410
       Tot       2.7321
    Quadrupole Moments (Debye-Ang)
        XX    -181.8331     XY       1.6104     YY    -147.3847
        XZ      -5.6497     YZ       2.7344     ZZ    -149.6728
    Octopole Moments (Debye-Ang^2)
       XXX      26.9561    XXY      26.3145    XYY       7.0877
       YYY     -59.7811    XXZ     -42.5221    XYZ       0.8805
       YYZ     -26.5033    XZZ      -2.9675    YZZ     -16.3372
       ZZZ     -46.1499
    Hexadecapole Moments (Debye-Ang^3)
      XXXX   -5344.3942   XXXY     -11.1066   XXYY   -1266.2567
      XYYY     -40.0509   YYYY   -2810.1961   XXXZ     -71.5290
      XXYZ      23.6278   XYYZ      19.5439   YYYZ      47.1068
      XXZZ   -1340.1138   XYZZ     -42.0497   YYZZ    -976.4431
      XZZZ     104.1585   YZZZ     -21.0084   ZZZZ   -3067.9181
 -----------------------------------------------------------------
Archival summary:
1\1\vega02.cac.cornell.edu\OPT\ProcedureUnspecified\STO-3G\102026\jj585\MonJan1507:37:582018MonJan1507:37:582018\0\\#,OPT,ProcedureUnspecified,STO-3G,\\0,1\O\C,1,1.47779\H,2,1.10724,1,110.631\C,1,1.48228,2,95.7814,3,179.4,0\H,4,1.11718,1,109.271,2,-179.245,0\C,4,1.57826,1,102.384,2,-57.0171,0\H,6,1.10162,4,112.484,1,157.891,0\H,6,1.1019,4,110.04,1,-80.8415,0\C,6,1.57482,4,101.366,1,37.1738,0\H,9,1.10157,6,111.722,4,-120.775,0\H,9,1.1018,6,112.659,4,116.583,0\C,2,1.58627,1,102.554,3,122.566,0\H,12,1.1039,2,112.048,1,157.847,0\C,12,1.57116,2,111.887,1,-81.6452,0\O,14,1.24902,12,126.586,2,-125.926,0\O,14,1.44156,12,109.627,2,49.9749,0\C,16,1.48019,14,109.274,12,172.388,0\H,17,1.10417,16,106.267,14,-173.626,0\H,17,1.10861,16,110.907,14,-54.7201,0\H,17,1.10927,16,111.638,14,66.8996,0\C,12,1.58565,2,100.535,1,39.3619,0\H,21,1.10655,12,110.122,2,110.497,0\C,21,1.56687,12,112.135,2,-131.618,0\O,23,1.25261,21,125.609,12,-17.4157,0\O,23,1.43271,21,110.479,12,168.039,0\C,25,1.48591,23,109.397,21,174.287,0\H,26,1.10822,25,106.156,23,-152.693,0\H,26,1.10954,25,109.4,23,-33.8658,0\C,26,1.58442,25,111.34,23,87.451,0\H,29,1.10796,26,110.135,25,-149.247,0\H,29,1.11004,26,110.02,25,88.6535,0\O,29,1.48076,26,109.686,25,-31.2929,0\C,32,1.43559,29,109.187,26,92.5111,0\O,33,1.25323,32,123.423,29,9.32969,0\C,33,1.554,32,109.47,29,-170.953,0\H,35,1.11329,33,108.774,32,45.0701,0\C,35,1.58321,33,112.094,32,168.738,0\H,37,1.10668,35,108.337,33,-122.696,0\C,37,1.57088,35,114.525,33,-1.09764,0\O,39,1.24774,37,127.834,35,109.407,0\O,39,1.44576,37,108.503,35,-77.4382,0\C,41,1.47662,39,110.374,37,175.461,0\H,42,1.10568,41,106.222,39,177.614,0\H,42,1.10918,41,111.623,39,58.1113,0\H,42,1.10937,41,110.985,39,-63.297,0\C,37,1.58353,35,101.18,33,118.624,0\H,46,1.10718,37,114.269,35,-154.19,0\O,46,1.48309,37,103.638,35,-34.2091,0\C,48,1.47934,46,94.946,37,56.2633,0\H,49,1.10759,48,110.569,46,179.854,0\C,46,1.57791,37,108.168,35,75.1015,0\H,51,1.10161,46,112.062,37,46.7615,0\H,51,1.10163,46,110.557,37,168.428,0\C,51,1.57321,46,101.072,37,-73.3772,0\H,54,1.10119,51,112.392,46,117.875,0\H,54,1.10158,51,111.687,46,-119.236,0\\\@

 Total job time:  146.48s(wall), 6987.05s(cpu) 
 Mon Jan 15 07:37:58 2018

        *************************************************************
        *                                                           *
        *  Thank you very much for using Q-Chem.  Have a nice day.  *
        *                                                           *
        *************************************************************


0 sent ACK to 0 
now end server 0 ... 
