mFile = /opt/software/qchem/qchem-5.0.1//bin/mpi/machines
Process 0 of 1 is on vega02.cac.cornell.edu - thread support 0
initial socket setup ...start
initial socket setup ...done 
now start server 0 ... 
vega02.cac.cornell.edu 10.84.3
Q-Chem Developer Version! Running on 10.84.3.*
                  Welcome to Q-Chem
     A Quantum Leap Into The Future Of Chemistry


 Q-Chem 5.0, Q-Chem, Inc., Pleasanton, CA (2017)

 Yihan Shao,  Zhengting Gan,  E. Epifanovsky,  A. T. B. Gilbert,  M. Wormit,  
 J. Kussmann,  A. W. Lange,  A. Behn,  Jia Deng,  Xintian Feng,  D. Ghosh,  
 M. Goldey,  P. R. Horn,  L. D. Jacobson,  I. Kaliman,  T. Kus,  A. Landau,  
 Jie Liu,  E. I. Proynov,  R. M. Richard,  R. P. Steele,  E. J. Sundstrom,  
 H. L. Woodcock III,  P. M. Zimmerman,  D. Zuev,  B. Albrecht,  E. Alguire,  
 S. A. Baeppler,  Z. Benda,  Y. A. Bernard,  E. J. Berquist,  K. B. Bravaya,  
 D. Casanova,  Chun-Min Chang,  Yunqing Chen,  A. Chien,  K. D. Closser,  
 M. P. Coons,  S. Dasgupta,  M. Diedenhofen,  Hainam Do,  R. G. Edgar,  
 Po-Tung Fang,  S. Fatehi,  Qingguo Feng,  Qinghui Ge,  A. Ghysels,  
 J. Gomes,  J. Gonthier,  A. Gunina,  M. W. D. Hanson-Heine,  
 P. H. P. Harbach,  A. W. Hauser,  J. E. Herr,  E. G. Hohenstein,  
 Z. C. Holden,  Kerwin Hui,  T.-C. Jagau,  Hyunjun Ji,  B. Kaduk,  
 K. Khistyaev,  Jaehoon Kim,  P. Klunzinger,  K. Koh,  D. Kosenkov,  
 T. Kowalczyk,  C. M. Krauter,  A. Kunitsa,  Ka Un Lao,  A. Laurent,  
 K. V. Lawler,  Joonho Lee,  D. Lefrancois,  S. Lehtola,  D. S. Levine,  
 Yi-Pei Li,  You-Sheng Lin,  Fenglai Liu,  E. Livshits,  A. Luenser,  
 P. Manohar,  E. Mansoor,  S. F. Manzer,  Shan-Ping Mao,  Yuezhi Mao,  
 N. Mardirossian,  A. V. Marenich,  L. A. Martinez-Martinez,  S. A. Maurer,  
 N. J. Mayhall,  S. C. McKenzie,  J.-M. Mewes,  A. F. Morrison,  K. Nanda,  
 T. S. Nguyen-Beck,  R. Olivares-Amaya,  J. A. Parkhill,  T. M. Perrine,  
 F. Plasser,  S. Prager,  A. Prociuk,  D. R. Rehn,  F. Rob,  M. Schneider,  
 N. Sergueev,  S. M. Sharada,  S. Sharma,  D. W. Small,  T. Stauch,  
 T. Stein,  Yu-Chuan Su,  A. J. W. Thom,  T. Tsuchimochi,  L. Vogt,  
 O. Vydrov,  M. A. Watson,  J. Wenzel,  M. de Wergifosse,  T. A. Wesolowski,  
 A. White,  J. Witte,  A. Yamada,  Jun Yang,  K. Yao,  S. Yeganeh,  
 S. R. Yost,  Zhi-Qiang You,  A. Zech,  Igor Ying Zhang,  Xing Zhang,  
 Yan Zhao,  Ying Zhu,  B. R. Brooks,  G. K. L. Chan,  C. J. Cramer,  
 M. S. Gordon,  W. J. Hehre,  A. Klamt,  M. W. Schmidt,  C. D. Sherrill,  
 D. G. Truhlar,  A. Aspuru-Guzik,  R. Baer,  A. T. Bell,  N. A. Besley,  
 Jeng-Da Chai,  A. Dreuw,  B. D. Dunietz,  T. R. Furlani,  Chao-Ping Hsu,  
 Yousung Jung,  Jing Kong,  D. S. Lambrecht,  WanZhen Liang,  C. Ochsenfeld,  
 V. A. Rassolov,  L. V. Slipchenko,  J. E. Subotnik,  T. Van Voorhis,  
 J. M. Herbert,  A. I. Krylov,  P. M. W. Gill,  M. Head-Gordon

 Contributors to earlier versions of Q-Chem not listed above: 
 R. D. Adamson,  B. Austin,  J. Baker,  G. J. O. Beran,  K. Brandhorst,  
 S. T. Brown,  E. F. C. Byrd,  A. K. Chakraborty,  C.-L. Cheng,  
 Siu Hung Chien,  D. M. Chipman,  D. L. Crittenden,  H. Dachsel,  
 R. A. DiStasio Jr.,  R. J. Doerksen,  A. D. Dutoi,  L. Fusti-Molnar,  
 W. A. Goddard III,  A. Golubeva-Zadorozhnaya,  S. R. Gwaltney,  G. Hawkins,  
 A. Heyden,  S. Hirata,  G. Kedziora,  F. J. Keil,  C. Kelley,  Jihan Kim,  
 R. A. King,  R. Z. Khaliullin,  P. P. Korambath,  W. Kurlancheek,  
 A. M. Lee,  M. S. Lee,  S. V. Levchenko,  Ching Yeh Lin,  D. Liotard,  
 R. C. Lochan,  I. Lotan,  P. E. Maslen,  N. Nair,  D. P. O'Neill,  
 D. Neuhauser,  E. Neuscamman,  C. M. Oana,  R. Olson,  B. Peters,  
 R. Peverati,  P. A. Pieniazek,  Y. M. Rhee,  J. Ritchie,  M. A. Rohrdanz,  
 E. Rosta,  N. J. Russ,  H. F. Schaefer III,  N. E. Schultz,  N. Shenvi,  
 A. C. Simmonett,  A. Sodt,  D. Stuck,  K. S. Thanthiriwatte,  V. Vanovschi,  
 Tao Wang,  A. Warshel,  C. F. Williams,  Q. Wu,  X. Xu,  W. Zhang

 Please cite Q-Chem as follows:
 Y. Shao et al., Mol. Phys. 113, 184-215 (2015)
 DOI: 10.1080/00268976.2014.952696

 Q-Chem 5.0.1 for Intel X86 EM64T Linux

 Parts of Q-Chem use Armadillo 5.200.1 (Boston Tea Smuggler).
 http://arma.sourceforge.net/

 Q-Chem begins on Mon Jan 15 08:14:30 2018  

Host: vega02.cac.cornell.edu
0

     Scratch files written to /scratch/jj585/SOT1001/0724c.save//
 Parallel job on  1  processors

Checking the input file for inconsistencies... 	...done.

--------------------------------------------------------------
User input:
--------------------------------------------------------------
$molecule
0  1
O -3.94934 -3.66094 2.70899
C -3.26408 -4.56952 2.26188
C -3.36658 -6.02376 2.66595
C -4.77651 -6.58985 2.90154
C -5.93493 -5.68896 2.53475
O -6.78774 -5.57461 3.59544
C -8.02018 -4.92823 3.25998
C -9.19375 -5.68082 3.87841
O -9.45085 -6.88256 3.13504
C -9.25918 -8.04061 3.81425
C -9.58513 -9.26529 2.99291
C -9.33002 -10.60494 3.69898
C -9.13782 -10.53438 5.20058
O -9.88201 -11.02974 6.03446
O -2.4336 -4.28081 1.22376
O -7.8883 -10.17393 5.60939
O -8.83425 -8.03203 4.95749
C -7.46339 -10.17517 6.92212
C -11.07565 -9.39515 2.63199
C -11.21972 -10.24782 1.37354
C -10.83802 -11.61154 1.9127
C -10.68596 -11.28489 3.40422
O -11.60412 -10.24079 3.62249
H -8.97874 -9.18524 2.06179
H -8.47599 -11.17763 3.27436
H -11.58718 -8.41709 2.49829
H -12.3027 -10.25793 1.11355
H -10.63587 -9.9067 0.49167
H -11.69025 -12.30606 1.7415
H -9.90243 -12.04333 1.49575
H -10.83998 -12.20461 4.0106
O -6.09251 -5.19037 1.42529
C -2.25968 -3.02186 0.68755
C -2.84981 -7.0149 1.59935
C -2.50265 -8.35745 2.24783
C -3.88588 -8.91627 2.50107
C -4.75002 -7.78859 1.93557
O -3.99723 -7.3151 0.84412
H -2.75926 -6.10491 3.59473
H -4.90903 -6.94042 3.95181
H -1.87084 -2.32676 1.46214
H -1.96864 -6.64792 1.03126
H -1.99999 -8.99685 1.48741
H -1.85304 -8.26787 3.14507
H -4.02015 -9.82349 1.87011
H -4.11668 -9.15957 3.56072
H -5.76939 -8.16842 1.69997
H -3.22322 -2.63927 0.28812
H -1.52616 -3.07844 -0.14263
H -6.40917 -9.83246 6.96298
H -7.52279 -11.20116 7.3439
H -8.08844 -9.48327 7.52623
H -9.0147 -5.79152 4.97051
H -10.10191 -5.04781 3.78484
H -8.22287 -4.77207 2.17634
H -7.99652 -3.92604 3.73982
$end

$opt
CONSTRAINT
tors           1           2           3           4     +39.364
tors           3           4           5           6    -127.226
tors           4           5           6           7    -169.951
tors           5           6           7           8    +135.775
tors           6           7           8           9     -75.576
tors           7           8           9          10    +115.781
tors           8           9          10          11    +178.277
tors           9          10          11          12    +177.638
tors          11          12          13          14    +115.284
ENDCONSTRAINT
$end

$rem
JOBTYPE                   OPT
METHOD                    B3LYP
DFT_D                     d3_op
BASIS                     STO-3G
GEOM_OPT_MAX_CYCLES       100
GEOM_OPT_TOL_GRADIENT     300
GEOM_OPT_TOL_DISPLACEMENT 1200
GEOM_OPT_TOL_ENERGY       100
SYMMETRY                  False
THRESH                    12
SCF_CONVERGENCE           8
MAX_SUB_FILE_NUM          128
MEM_STATIC                400
MEM_TOTAL                 4000
$end
--------------------------------------------------------------
 Adding empirical dispersion correction 
 ----------------------------------------------------------------
 Doing -D3(op) with
 s6 =   1.00000
 s8 =   0.78311
 a1 =   0.30000
 a2 =   4.25000
 n  =  10.00000
 -D3 energy without 3body term =     -0.0649665933 hartrees
 ----------------------------------------------------------------
             Standard Nuclear Orientation (Angstroms)
    I     Atom           X                Y                Z
 ----------------------------------------------------------------
    1      O       4.8039603300    -1.2382551753    -1.1149879976
    2      C       4.9189272357    -0.2175016349    -0.4517753194
    3      C       3.8999986354     0.8982998036    -0.3785329151
    4      C       2.4170787778     0.4941989854    -0.3396180623
    5      C       2.1241191426    -0.9831156060    -0.1989381317
    6      O       1.2715313700    -1.3833368941    -1.1880494021
    7      C       0.7659923335    -2.7084452374    -0.9937119875
    8      C      -0.7325548685    -2.7458088099    -1.2749132759
    9      O      -1.4506068889    -2.1526259358    -0.1815634835
   10      C      -2.1347595740    -1.0201771646    -0.4792853330
   11      C      -2.9010495762    -0.4686590195     0.6994051559
   12      C      -3.6473790710     0.8458313598     0.4285077444
   13      C      -3.8167807227     1.2210381436    -1.0300000764
   14      O      -4.8834493576     1.3017739614    -1.6218242827
   15      O       5.9821251364    -0.1305368407     0.3924941739
   16      O      -2.7324425328     1.8125746630    -1.6067541708
   17      O      -2.0727943430    -0.5266997292    -1.5929626425
   18      C      -2.7168168596     2.3482708659    -2.8782082655
   19      C      -4.0511143973    -1.3745740422     1.1742162921
   20      C      -4.3554450518    -1.0799748586     2.6412176112
   21      C      -4.9770582529     0.2973309936     2.5283183121
   22      C      -5.0270124358     0.4523006986     1.0025583878
   23      O      -5.1901027407    -0.8629428500     0.5289125828
   24      H      -2.1589536774    -0.3421213490     1.5206135240
   25      H      -3.2117797434     1.7231636723     0.9559396932
   26      H      -3.8512204314    -2.4587046477     1.0298444551
   27      H      -5.1428090377    -1.8012636031     2.9579875486
   28      H      -3.4915289477    -1.1542614975     3.3362491458
   29      H      -6.0022697293     0.2543578982     2.9585022087
   30      H      -4.3981491204     1.1208519505     2.9998010845
   31      H      -5.8250385990     1.1744304387     0.7215127962
   32      O       2.5560836915    -1.6853767970     0.7091151621
   33      C       6.9752885791    -1.0816651350     0.5006874121
   34      C       3.9843971726     1.7489343910     0.9084569754
   35      C       3.3219202310     3.1111934260     0.6874105963
   36      C       1.8597831199     2.7218902776     0.7056766763
   37      C       1.9751045582     1.2162662147     0.9464826546
   38      O       3.0975639142     1.1044641392     1.7889397495
   39      H       4.1035342992     1.5291441140    -1.2722128819
   40      H       1.8589849694     0.8917241179    -1.2194095253
   41      H       7.4950992300    -1.2041818980    -0.4735490857
   42      H       5.0197253298     1.9050675416     1.2793736554
   43      H       3.5256148311     3.7506754324     1.5758413958
   44      H       3.6648432164     3.6331795679    -0.2318236719
   45      H       1.3810501285     3.1926726419     1.5935763166
   46      H       1.2849841999     2.9791448602    -0.2101551499
   47      H       1.0173440659     0.8184875050     1.3506612331
   48      H       6.5418440118    -2.0532591293     0.8207806517
   49      H       7.7131157612    -0.7520527195     1.2605679448
   50      H      -1.7067077312     2.7557669170    -3.0882701830
   51      H      -3.4583997887     3.1716312528    -2.9570412592
   52      H      -2.9479953637     1.5607398932    -3.6270162990
   53      H      -0.9189925211    -2.3262486505    -2.2879315762
   54      H      -1.0511575229    -3.8088677485    -1.3259978365
   55      H       0.9583084929    -3.1752956599    -0.0013360460
   56      H       1.2497711888    -3.3508911418    -1.7607923590
 ----------------------------------------------------------------
 Molecular Point Group                 C1    NOp =  1
 Largest Abelian Subgroup              C1    NOp =  1
 Nuclear Repulsion Energy =  3191.2730554207 hartrees
 There are      113 alpha and      113 beta electrons
 Requested basis set is STO-3G
 There are 86 shells and 176 basis functions

 Total QAlloc Memory Limit   4000 MB
 Mega-Array Size       392 MB
 MEM_STATIC part       400 MB
 A cutoff of  1.0D-12 yielded   2248 shell pairs
 There are     10648 function pairs
 
 -------------------------------------------------------
 OpenMP Integral Computing Module                       
 Release: version 1.0, May 2013, Q-Chem Inc. Pittsburgh 
 -------------------------------------------------------
 Integral Job Info:
 Integral job number is                      11
 Integral operator is                         1
 short-range coefficients                     0
 long-range coefficients              100000000
 Omega coefficients                           0
 if combine SR and LR in K                    0
 Integral screening is                        0
 Integral computing path is                   2
 max size of driver memory is            800000
 size of driver memory is                 45569
 size of scratch memory is              1046100
 max col of scratch BK array                289
 max len of scratch array in speh3           22
 max len of scratch index in speh4            8
 max int batch size is                      520
 min int batch size is                       52
 fixed nKL is                                52
 max L of basis functions is                  1
 order of int derivative is                   0
 number of shells is                         86
 number of basis is                         176
 number of cartesian basis is               176
 number of contracted shell pairs          2248
 number of primitive shell pairs          11169
 maxK2 (contraction) of shell pair            9
 max number of K2 of shell pair               1
 max number of CS2 of shell pair            342
 max number of PS2 of shell pair           1170
 mem total for path MDJ                   49782
 -------------------------------------------------------
 Smallest overlap matrix eigenvalue = 1.93E-01

 Scale SEOQF with 1.000000e-02/1.000000e-01/1.000000e-01

 Standard Electronic Orientation quadrupole field applied
 Nucleus-field energy     =     0.0000000102 hartrees
 Guess from superposition of atomic densities
 Warning:  Energy on first SCF cycle will be non-variational
 A restricted hybrid HF-DFT SCF calculation will be
 performed using Pulay DIIS extrapolation
 Exchange:     0.2000 Hartree-Fock + 0.0800 Slater + 0.7200 B88
 Correlation:  0.1900 VWN1RPA + 0.8100 LYP
 Using SG-1 standard quadrature grid
 Dispersion:   Grimme D3
 SCF converges when DIIS error is below 1.0E-08
 using 48 threads for integral computing
 -------------------------------------------------------
 OpenMP Integral computing Module                
 Release: version 1.0, May 2013, Q-Chem Inc. Pittsburgh 
 -------------------------------------------------------
 -------------------------------------------------------
 OpenMP BLAS3 based DFT computing Module                
 Release: version 1.0, May 2013, Q-Chem Inc. Pittsburgh 
 -------------------------------------------------------
 ---------------------------------------
  Cycle       Energy         DIIS Error
 ---------------------------------------
    1   -1509.4628178075      8.30E-02
    2   -1509.6070020957      1.04E-02
    3   -1507.7137053450      2.45E-02
    4   -1510.0975755431      3.43E-03
    5   -1510.1440405909      1.20E-03
    6   -1510.1499845770      4.12E-04
    7   -1510.1506506707      1.37E-04
    8   -1510.1507298266      2.52E-05
    9   -1510.1507318572      1.43E-05
   10   -1510.1507327167      3.53E-06
   11   -1510.1507327726      6.73E-07
   12   -1510.1507327745      1.71E-07
   13   -1510.1507327745      8.09E-08
   14   -1510.1507327746      3.50E-08
   15   -1510.1507327745      6.97E-09 Convergence criterion met
 ---------------------------------------
 SCF time:  CPU 123.97 s  wall 2.63 s
 SCF   energy in the final basis set = -1510.15073277
 Total energy in the final basis set = -1510.15073277
 
 --------------------------------------------------------------
 
                    Orbital Energies (a.u.)
 --------------------------------------------------------------
 
 Alpha MOs
 -- Occupied --
-18.949 -18.947 -18.928 -18.912 -18.900 -18.899 -18.868 -18.862
-18.852 -18.844 -10.115 -10.109 -10.108 -10.102 -10.084 -10.081
-10.079 -10.070 -10.069 -10.068 -10.066 -10.065 -10.042 -10.041
-10.040 -10.035 -10.017 -10.016 -10.016 -10.015  -1.053  -1.043
 -1.039  -1.030  -1.023  -1.023  -0.956  -0.950  -0.942  -0.933
 -0.785  -0.781  -0.749  -0.742  -0.737  -0.726  -0.716  -0.677
 -0.672  -0.636  -0.609  -0.587  -0.556  -0.549  -0.538  -0.536
 -0.529  -0.526  -0.505  -0.492  -0.483  -0.477  -0.469  -0.460
 -0.448  -0.447  -0.435  -0.426  -0.424  -0.422  -0.418  -0.412
 -0.410  -0.394  -0.386  -0.383  -0.378  -0.371  -0.364  -0.355
 -0.355  -0.349  -0.345  -0.338  -0.336  -0.327  -0.325  -0.317
 -0.312  -0.311  -0.307  -0.299  -0.298  -0.291  -0.286  -0.279
 -0.277  -0.253  -0.247  -0.237  -0.236  -0.222  -0.214  -0.191
 -0.173  -0.167  -0.166  -0.156  -0.155  -0.148  -0.139  -0.137
 -0.130
 -- Virtual --
  0.107   0.113   0.125   0.127   0.241   0.248   0.258   0.270
  0.291   0.307   0.324   0.332   0.339   0.342   0.348   0.358
  0.369   0.373   0.379   0.385   0.391   0.394   0.395   0.402
  0.403   0.407   0.408   0.411   0.412   0.415   0.416   0.420
  0.429   0.437   0.437   0.440   0.447   0.449   0.452   0.459
  0.459   0.468   0.472   0.474   0.477   0.481   0.485   0.490
  0.492   0.493   0.503   0.520   0.536   0.539   0.549   0.563
  0.566   0.576   0.580   0.687   0.693   0.697   0.704
 --------------------------------------------------------------
 
          Ground-State Mulliken Net Atomic Charges

     Atom                 Charge (a.u.)
  ----------------------------------------
      1 O                    -0.237702
      2 C                     0.239253
      3 C                    -0.080619
      4 C                    -0.081988
      5 C                     0.236191
      6 O                    -0.182238
      7 C                    -0.041155
      8 C                    -0.039300
      9 O                    -0.194579
     10 C                     0.235683
     11 C                    -0.083511
     12 C                    -0.080566
     13 C                     0.244147
     14 O                    -0.237810
     15 O                    -0.211760
     16 O                    -0.210517
     17 O                    -0.227224
     18 C                    -0.095928
     19 C                     0.038805
     20 C                    -0.141227
     21 C                    -0.144671
     22 C                     0.042287
     23 O                    -0.208517
     24 H                     0.086762
     25 H                     0.087106
     26 H                     0.086464
     27 H                     0.075461
     28 H                     0.072797
     29 H                     0.076856
     30 H                     0.071227
     31 H                     0.090773
     32 O                    -0.227318
     33 C                    -0.097125
     34 C                     0.039540
     35 C                    -0.143142
     36 C                    -0.143419
     37 C                     0.041696
     38 O                    -0.207486
     39 H                     0.087004
     40 H                     0.087003
     41 H                     0.084881
     42 H                     0.092526
     43 H                     0.074300
     44 H                     0.071090
     45 H                     0.074267
     46 H                     0.073740
     47 H                     0.080078
     48 H                     0.090634
     49 H                     0.093583
     50 H                     0.088593
     51 H                     0.081002
     52 H                     0.088421
     53 H                     0.105809
     54 H                     0.088513
     55 H                     0.103129
     56 H                     0.088179
  ----------------------------------------
  Sum of atomic charges =    -0.000000

 -----------------------------------------------------------------
                    Cartesian Multipole Moments
 -----------------------------------------------------------------
    Charge (ESU x 10^10)
                 0.0000
    Dipole Moment (Debye)
         X       1.6814      Y       1.1315      Z       0.7634
       Tot       2.1657
    Quadrupole Moments (Debye-Ang)
        XX    -166.8196     XY       4.9792     YY    -149.7651
        XZ     -12.1129     YZ       0.7874     ZZ    -160.6125
    Octopole Moments (Debye-Ang^2)
       XXX     217.5050    XXY      11.1212    XYY      -3.6608
       YYY     -30.1199    XXZ      56.4566    XYZ     -11.3067
       YYZ     -22.4201    XZZ     -14.5790    YZZ       0.1257
       ZZZ     -32.1200
    Hexadecapole Moments (Debye-Ang^3)
      XXXX  -13078.4168   XXXY    -155.2879   XXYY   -2654.8230
      XYYY     -45.6191   YYYY   -2578.2488   XXXZ    -133.0258
      XXYZ     -36.7494   XYYZ      50.7720   YYYZ      21.9550
      XXZZ   -2581.4475   XYZZ      -6.2333   YYZZ    -705.9194
      XZZZ      69.5605   YZZZ     -26.8631   ZZZZ   -1834.3858
 -----------------------------------------------------------------
 Calculating analytic gradient of the SCF energy
 Gradient of SCF Energy
            1           2           3           4           5           6
    1   0.0186643  -0.0006844  -0.0190208   0.0196099  -0.0217398   0.0270491
    2   0.0519938   0.0353584  -0.0356552  -0.0157249  -0.0146869  -0.0160377
    3   0.0514893  -0.0043859   0.0264487   0.0437089  -0.0121471   0.0326797
            7           8           9          10          11          12
    1  -0.0121109   0.0079808  -0.0108934   0.0084654  -0.0401212  -0.0221022
    2   0.0436124   0.0213030   0.0440966  -0.0186038  -0.0054510  -0.0214682
    3   0.0075264   0.0274892  -0.0502487   0.0075483  -0.0325115  -0.0234927
           13          14          15          16          17          18
    1   0.0101221   0.0694752   0.0095135  -0.0922869   0.0044390   0.0235259
    2  -0.0204487   0.0136394  -0.1109589  -0.0008739  -0.0249719  -0.0111763
    3   0.0229359   0.0266423  -0.0592764  -0.0807315   0.0628184   0.0492828
           19          20          21          22          23          24
    1  -0.0367965  -0.0058284   0.0117363   0.0316922   0.0586804   0.0050822
    2   0.0567453   0.0302418  -0.0295696  -0.0679213   0.0361075   0.0002898
    3  -0.0173926  -0.0440031  -0.0341269  -0.0019829   0.0533741   0.0033989
           25          26          27          28          29          30
    1  -0.0018620   0.0061450  -0.0105715   0.0052495  -0.0079538   0.0051007
    2   0.0072975  -0.0038160  -0.0032478   0.0000847  -0.0098441   0.0075439
    3   0.0013932   0.0103868  -0.0024632   0.0066660   0.0043370  -0.0002026
           31          32          33          34          35          36
    1   0.0002339  -0.0135213  -0.0266313  -0.0638089  -0.0201736   0.0415868
    2   0.0105109   0.0341327   0.0497573  -0.0278483  -0.0472324  -0.0299950
    3   0.0104495  -0.0351862   0.0140682   0.0111749   0.0052016   0.0042604
           37          38          39          40          41          42
    1   0.0683865  -0.0091498   0.0037952  -0.0060080  -0.0048669   0.0033366
    2   0.0091978   0.0359210   0.0006697   0.0047407   0.0080012   0.0141347
    3   0.0029985  -0.0780757  -0.0036790  -0.0051544  -0.0000873  -0.0057683
           43          44          45          46          47          48
    1  -0.0041096   0.0026755   0.0033687  -0.0040466  -0.0101256  -0.0053678
    2   0.0017352   0.0035762   0.0039745   0.0010302   0.0054385   0.0064480
    3   0.0112363  -0.0070032   0.0110556  -0.0071025  -0.0070482   0.0018624
           49          50          51          52          53          54
    1   0.0024248  -0.0003375   0.0023159   0.0018658   0.0072067  -0.0010332
    2  -0.0028068   0.0014310  -0.0022072  -0.0038916  -0.0108897   0.0022536
    3  -0.0000466  -0.0032333   0.0087981   0.0077207  -0.0069161  -0.0017257
           55          56
    1  -0.0068110  -0.0017647
    2  -0.0110679   0.0051277
    3  -0.0016624  -0.0012980
 Max gradient component =       1.110E-01
 RMS gradient           =       2.751E-02
 Gradient time:  CPU 34.38 s  wall 0.76 s
 Geometry Optimization Parameters
   NAtoms,    NIC,     NZ,  NCons,   NDum,   NFix, NCnnct, MaxDiis
       56     458       0       9       0       0       0       0


** CONSTRAINED OPTIMIZATION IN DELOCALIZED INTERNAL COORDINATES **
   Searching for a Minimum

   Optimization Cycle:   1

                       Coordinates (Angstroms)
     ATOM                X               Y               Z
      1  O         4.8039603300   -1.2382551753   -1.1149879976
      2  C         4.9189272357   -0.2175016349   -0.4517753194
      3  C         3.8999986354    0.8982998036   -0.3785329151
      4  C         2.4170787778    0.4941989854   -0.3396180623
      5  C         2.1241191426   -0.9831156060   -0.1989381317
      6  O         1.2715313700   -1.3833368941   -1.1880494021
      7  C         0.7659923335   -2.7084452374   -0.9937119875
      8  C        -0.7325548685   -2.7458088099   -1.2749132759
      9  O        -1.4506068889   -2.1526259358   -0.1815634835
     10  C        -2.1347595740   -1.0201771646   -0.4792853330
     11  C        -2.9010495762   -0.4686590195    0.6994051559
     12  C        -3.6473790710    0.8458313598    0.4285077444
     13  C        -3.8167807227    1.2210381436   -1.0300000764
     14  O        -4.8834493576    1.3017739614   -1.6218242827
     15  O         5.9821251364   -0.1305368407    0.3924941739
     16  O        -2.7324425328    1.8125746630   -1.6067541708
     17  O        -2.0727943430   -0.5266997292   -1.5929626425
     18  C        -2.7168168596    2.3482708659   -2.8782082655
     19  C        -4.0511143973   -1.3745740422    1.1742162921
     20  C        -4.3554450518   -1.0799748586    2.6412176112
     21  C        -4.9770582529    0.2973309936    2.5283183121
     22  C        -5.0270124358    0.4523006986    1.0025583878
     23  O        -5.1901027407   -0.8629428500    0.5289125828
     24  H        -2.1589536774   -0.3421213490    1.5206135240
     25  H        -3.2117797434    1.7231636723    0.9559396932
     26  H        -3.8512204314   -2.4587046477    1.0298444551
     27  H        -5.1428090377   -1.8012636031    2.9579875486
     28  H        -3.4915289477   -1.1542614975    3.3362491458
     29  H        -6.0022697293    0.2543578982    2.9585022087
     30  H        -4.3981491204    1.1208519505    2.9998010845
     31  H        -5.8250385990    1.1744304387    0.7215127962
     32  O         2.5560836915   -1.6853767970    0.7091151621
     33  C         6.9752885791   -1.0816651350    0.5006874121
     34  C         3.9843971726    1.7489343910    0.9084569754
     35  C         3.3219202310    3.1111934260    0.6874105963
     36  C         1.8597831199    2.7218902776    0.7056766763
     37  C         1.9751045582    1.2162662147    0.9464826546
     38  O         3.0975639142    1.1044641392    1.7889397495
     39  H         4.1035342992    1.5291441140   -1.2722128819
     40  H         1.8589849694    0.8917241179   -1.2194095253
     41  H         7.4950992300   -1.2041818980   -0.4735490857
     42  H         5.0197253298    1.9050675416    1.2793736554
     43  H         3.5256148311    3.7506754324    1.5758413958
     44  H         3.6648432164    3.6331795679   -0.2318236719
     45  H         1.3810501285    3.1926726419    1.5935763166
     46  H         1.2849841999    2.9791448602   -0.2101551499
     47  H         1.0173440659    0.8184875050    1.3506612331
     48  H         6.5418440118   -2.0532591293    0.8207806517
     49  H         7.7131157612   -0.7520527195    1.2605679448
     50  H        -1.7067077312    2.7557669170   -3.0882701830
     51  H        -3.4583997887    3.1716312528   -2.9570412592
     52  H        -2.9479953637    1.5607398932   -3.6270162990
     53  H        -0.9189925211   -2.3262486505   -2.2879315762
     54  H        -1.0511575229   -3.8088677485   -1.3259978365
     55  H         0.9583084929   -3.1752956599   -0.0013360460
     56  H         1.2497711888   -3.3508911418   -1.7607923590
   Point Group: c1    Number of degrees of freedom:   162


   Energy is  -1510.150732775

              Constraints and their Current Values
                                        Value     Constraint
   Dihedral:        1   2   3   4       39.364       39.364
   Dihedral:        3   4   5   6     -127.226     -127.226
   Dihedral:        4   5   6   7     -169.950     -169.951
   Dihedral:        5   6   7   8      135.776      135.775
   Dihedral:        6   7   8   9      -75.576      -75.576
   Dihedral:        7   8   9  10      115.782      115.781
   Dihedral:        8   9  10  11      178.277      178.277
   Dihedral:        9  10  11  12      177.637      177.638
   Dihedral:       11  12  13  14      115.284      115.284

 Attempting to Generate Delocalized Internal Coordinates

   Using Lagrange Multiplier Algorithm


171 Hessian modes will be used to form the next step
  Hessian Eigenvalues:
    -0.977753   -0.977753   -0.977753   -0.977753   -0.977753   -0.977753
    -0.977753   -0.977753   -0.977753    0.045000    0.045000    0.045000
     0.045000    0.045013    0.045036    0.045195    0.045543    0.045599
     0.046140    0.048867    0.048879    0.054335    0.059976    0.060015
     0.062444    0.062649    0.067003    0.067085    0.067412    0.067607
     0.069278    0.070687    0.071864    0.073806    0.073900    0.075843
     0.075978    0.076999    0.077237    0.082379    0.082475    0.083522
     0.083895    0.084433    0.084492    0.085759    0.085795    0.086807
     0.086939    0.086986    0.087787    0.088404    0.088737    0.089041
     0.089389    0.089734    0.089846    0.093806    0.093855    0.096635
     0.096656    0.111521    0.111639    0.114637    0.114648    0.115907
     0.115919    0.116578    0.117505    0.117772    0.118457    0.118766
     0.121648    0.122938    0.130579    0.131096    0.131447    0.140342
     0.140876    0.160000    0.160000    0.160000    0.160000    0.160000
     0.160000    0.171452    0.171976    0.172663    0.173167    0.219687
     0.220539    0.239708    0.241034    0.245477    0.249188    0.249678
     0.249889    0.250000    0.250000    0.250000    0.250000    0.250000
     0.250000    0.250000    0.250000    0.258345    0.258655    0.267073
     0.267537    0.278587    0.279821    0.283395    0.283475    0.295256
     0.296014    0.298749    0.308047    0.310698    0.310868    0.313310
     0.320623    0.321752    0.322013    0.322387    0.322390    0.322648
     0.322786    0.323180    0.323223    0.323374    0.323534    0.323679
     0.324083    0.324329    0.324470    0.324531    0.324595    0.324651
     0.324924    0.324930    0.324940    0.324996    0.325057    0.325162
     0.326765    0.326788    0.368452    0.369153    0.383838    0.384365
     0.401011    0.407717    0.491414    0.492134    0.517912    0.523033
     0.528626    0.537334    0.925564    0.941950    0.942752    0.955220
     1.022753    1.022753    1.022753    1.022753    1.022753    1.022753
     1.022753    1.022753    1.022753

 Minimum Search - Taking P-RFO Step
 Searching for Lamda that Maximizes Along the Constraint modes Only
 Value Taken    Lamda =   0.00044771
 Searching for Lamda that Minimizes Along All other modes
 Value Taken    Lamda =  -0.16956884
 Calculated Step too Large.  Step scaled by  0.519972
 Step Taken.  Stepsize is  0.300000

                             Maximum     Tolerance    Cnvgd?
         Gradient            0.115353       0.000300      NO
         Displacement        0.101903       0.001200      NO
         Energy change     *********       0.000001      NO


 New Cartesian Coordinates Obtained by Inverse Iteration

 Displacement from previous Coordinates is:  1.339457
 Adding empirical dispersion correction 
 ----------------------------------------------------------------
 Doing -D3(op) with
 s6 =   1.00000
 s8 =   0.78311
 a1 =   0.30000
 a2 =   4.25000
 n  =  10.00000
 -D3 energy without 3body term =     -0.0644695736 hartrees
 ----------------------------------------------------------------
             Standard Nuclear Orientation (Angstroms)
    I     Atom           X                Y                Z
 ----------------------------------------------------------------
    1      O       4.8246702249    -1.3110976361    -1.0682111900
    2      C       4.9591476193    -0.2583326161    -0.4254166931
    3      C       3.9478819792     0.8914919617    -0.3943972241
    4      C       2.4483518617     0.4865672472    -0.3543735213
    5      C       2.1601360734    -1.0093274094    -0.1711291937
    6      O       1.3019796720    -1.4417374387    -1.1740232386
    7      C       0.7884361513    -2.7779133428    -0.9571990645
    8      C      -0.7241128897    -2.8088908444    -1.2586767527
    9      O      -1.4595563879    -2.1877287275    -0.1763547777
   10      C      -2.1415199392    -1.0340762483    -0.5209118081
   11      C      -2.9179055354    -0.4822726212     0.6801501352
   12      C      -3.6873531086     0.8531188195     0.4414040637
   13      C      -3.8637613053     1.2897759383    -1.0218746784
   14      O      -4.9484803184     1.3841195538    -1.6162498076
   15      O       6.0184753472    -0.1056649792     0.4456905509
   16      O      -2.7422366155     1.9160691230    -1.5358335761
   17      O      -2.0752057194    -0.5445822220    -1.6540612033
   18      C      -2.7732779775     2.5023840335    -2.8136086127
   19      C      -4.0789093906    -1.4208334736     1.1383449304
   20      C      -4.3829790568    -1.1540595072     2.6328501027
   21      C      -5.0215611722     0.2425558308     2.5483192308
   22      C      -5.0840660318     0.4352601855     1.0059738614
   23      O      -5.2447483250    -0.8935754373     0.4890416678
   24      H      -2.1795702059    -0.3671309307     1.5019333403
   25      H      -3.2549114270     1.7137263618     0.9918088962
   26      H      -3.8744947560    -2.4973709690     0.9619566858
   27      H      -5.1580720617    -1.8845531921     2.9412468775
   28      H      -3.5174675023    -1.2380148153     3.3173975182
   29      H      -6.0405034412     0.1944264308     2.9793278674
   30      H      -4.4453310884     1.0534168169     3.0341215787
   31      H      -5.8840031424     1.1560551835     0.7360152073
   32      O       2.5854581961    -1.7024062861     0.7638907213
   33      C       6.9976918605    -1.1086362822     0.5651227372
   34      C       4.0360029452     1.7948182405     0.8778782859
   35      C       3.3703377966     3.1676204141     0.5871107585
   36      C       1.8815774486     2.7776685757     0.6106510278
   37      C       1.9894999089     1.2619140287     0.9228833578
   38      O       3.1247555608     1.1761376756     1.7952863032
   39      H       4.1595334751     1.4910656420    -1.3047663156
   40      H       1.8995138014     0.8521152090    -1.2475337812
   41      H       7.5161235826    -1.2824022243    -0.4040057807
   42      H       5.0689543671     1.9454630882     1.2523970175
   43      H       3.5738503228     3.8446491519     1.4406351334
   44      H       3.7210979368     3.6441525854    -0.3481409878
   45      H       1.3929153392     3.2858010466     1.4656110137
   46      H       1.3184003450     2.9947340163    -0.3172087188
   47      H       1.0349083147     0.8757349358     1.3391525388
   48      H       6.5496456201    -2.0662518689     0.9119359065
   49      H       7.7463614492    -0.7765312140     1.3126005499
   50      H      -1.7743384532     2.9365377889    -3.0212285262
   51      H      -3.5320411404     3.3149879480    -2.8660418049
   52      H      -3.0003531459     1.7448953321    -3.5962382237
   53      H      -0.9086165230    -2.3980675219    -2.2750234437
   54      H      -1.0484808437    -3.8719361294    -1.2923513078
   55      H       0.9821486877    -3.2161013990     0.0466633198
   56      H       1.2797266831    -3.4392058764    -1.7055510330
 ----------------------------------------------------------------
 Molecular Point Group                 C1    NOp =  1
 Largest Abelian Subgroup              C1    NOp =  1
 Nuclear Repulsion Energy =  3154.1693746845 hartrees
 There are      113 alpha and      113 beta electrons
 Applying Cartesian multipole field
    Component          Value
    ---------          -----
     (2,0,0)        1.00000E-12
     (0,2,0)        2.00000E-11
     (0,0,2)       -3.00000E-11
 Nucleus-field energy     =     0.0000000137 hartrees
 Requested basis set is STO-3G
 There are 86 shells and 176 basis functions
 A cutoff of  1.0D-12 yielded   2222 shell pairs
 There are     10502 function pairs
 Smallest overlap matrix eigenvalue = 2.02E-01
 Guess MOs from SCF MO coefficient file
 Reading MOs from coefficient file
 Reading MOs from coefficient file
 A restricted hybrid HF-DFT SCF calculation will be
 performed using Pulay DIIS extrapolation
 Exchange:     0.2000 Hartree-Fock + 0.0800 Slater + 0.7200 B88
 Correlation:  0.1900 VWN1RPA + 0.8100 LYP
 Using SG-1 standard quadrature grid
 Dispersion:   Grimme D3
 SCF converges when DIIS error is below 1.0E-08
 Geometry optimization detected.  Setting ReadMinima to 0
 Setting SaveMinima to 0
 using 48 threads for integral computing
 -------------------------------------------------------
 OpenMP Integral computing Module                
 Release: version 1.0, May 2013, Q-Chem Inc. Pittsburgh 
 -------------------------------------------------------
 -------------------------------------------------------
 OpenMP BLAS3 based DFT computing Module                
 Release: version 1.0, May 2013, Q-Chem Inc. Pittsburgh 
 -------------------------------------------------------
 ---------------------------------------
  Cycle       Energy         DIIS Error
 ---------------------------------------
    1   -1510.0389385773      3.41E-03
    2   -1510.2162263836      9.63E-04
    3   -1510.2104609787      1.52E-03
    4   -1510.2200814713      3.07E-04
    5   -1510.2205194004      5.94E-05
    6   -1510.2205347269      2.02E-05
    7   -1510.2205357487      1.42E-05
    8   -1510.2205366161      2.32E-06
    9   -1510.2205366430      7.64E-07
   10   -1510.2205366447      5.13E-07
   11   -1510.2205366459      1.09E-07
   12   -1510.2205366459      2.39E-08
   13   -1510.2205366460      1.48E-08
   14   -1510.2205366461      6.92E-09 Convergence criterion met
 ---------------------------------------
 SCF time:  CPU 104.85 s  wall 2.19 s
 SCF   energy in the final basis set = -1510.22053665
 Total energy in the final basis set = -1510.22053665
 
 --------------------------------------------------------------
 
                    Orbital Energies (a.u.)
 --------------------------------------------------------------
 
 Alpha MOs
 -- Occupied --
-18.943 -18.942 -18.933 -18.920 -18.897 -18.896 -18.871 -18.863
-18.856 -18.850 -10.109 -10.104 -10.102 -10.097 -10.082 -10.078
-10.075 -10.067 -10.066 -10.065 -10.063 -10.062 -10.041 -10.040
-10.039 -10.035 -10.017 -10.017 -10.016 -10.015  -1.037  -1.030
 -1.025  -1.019  -1.003  -1.002  -0.948  -0.942  -0.936  -0.929
 -0.775  -0.773  -0.740  -0.733  -0.729  -0.718  -0.708  -0.672
 -0.667  -0.629  -0.604  -0.583  -0.551  -0.546  -0.536  -0.535
 -0.524  -0.522  -0.498  -0.486  -0.477  -0.470  -0.461  -0.455
 -0.441  -0.440  -0.428  -0.421  -0.419  -0.417  -0.413  -0.408
 -0.405  -0.388  -0.382  -0.376  -0.372  -0.365  -0.359  -0.351
 -0.349  -0.345  -0.342  -0.339  -0.335  -0.327  -0.324  -0.315
 -0.310  -0.307  -0.303  -0.297  -0.295  -0.289  -0.283  -0.276
 -0.274  -0.251  -0.247  -0.237  -0.236  -0.230  -0.224  -0.188
 -0.173  -0.168  -0.166  -0.154  -0.153  -0.147  -0.145  -0.140
 -0.135
 -- Virtual --
  0.102   0.107   0.116   0.120   0.237   0.244   0.253   0.263
  0.279   0.294   0.312   0.319   0.329   0.339   0.343   0.348
  0.361   0.362   0.368   0.378   0.381   0.382   0.384   0.390
  0.392   0.396   0.401   0.404   0.406   0.409   0.412   0.415
  0.423   0.425   0.430   0.433   0.435   0.437   0.443   0.444
  0.450   0.453   0.459   0.468   0.468   0.472   0.473   0.474
  0.485   0.487   0.491   0.492   0.510   0.525   0.531   0.549
  0.552   0.562   0.562   0.663   0.669   0.670   0.682
 --------------------------------------------------------------
 
          Ground-State Mulliken Net Atomic Charges

     Atom                 Charge (a.u.)
  ----------------------------------------
      1 O                    -0.228539
      2 C                     0.227119
      3 C                    -0.079500
      4 C                    -0.080647
      5 C                     0.226102
      6 O                    -0.178900
      7 C                    -0.043555
      8 C                    -0.042476
      9 O                    -0.188748
     10 C                     0.224640
     11 C                    -0.081294
     12 C                    -0.079111
     13 C                     0.230615
     14 O                    -0.228153
     15 O                    -0.197553
     16 O                    -0.197363
     17 O                    -0.219337
     18 C                    -0.104301
     19 C                     0.033724
     20 C                    -0.142441
     21 C                    -0.145426
     22 C                     0.036540
     23 O                    -0.199130
     24 H                     0.086461
     25 H                     0.086237
     26 H                     0.086192
     27 H                     0.075835
     28 H                     0.073703
     29 H                     0.076866
     30 H                     0.071779
     31 H                     0.090196
     32 O                    -0.221804
     33 C                    -0.105444
     34 C                     0.034402
     35 C                    -0.144111
     36 C                    -0.144192
     37 C                     0.036529
     38 O                    -0.198770
     39 H                     0.085778
     40 H                     0.087421
     41 H                     0.085426
     42 H                     0.092474
     43 H                     0.074754
     44 H                     0.071809
     45 H                     0.074869
     46 H                     0.074444
     47 H                     0.080452
     48 H                     0.091158
     49 H                     0.093302
     50 H                     0.088863
     51 H                     0.082220
     52 H                     0.089270
     53 H                     0.104667
     54 H                     0.087434
     55 H                     0.102246
     56 H                     0.087265
  ----------------------------------------
  Sum of atomic charges =    -0.000000

 -----------------------------------------------------------------
                    Cartesian Multipole Moments
 -----------------------------------------------------------------
    Charge (ESU x 10^10)
                -0.0000
    Dipole Moment (Debye)
         X       1.7270      Y       1.1283      Z       0.6575
       Tot       2.1652
    Quadrupole Moments (Debye-Ang)
        XX    -165.6811     XY       4.1921     YY    -149.1270
        XZ     -12.1640     YZ       0.1597     ZZ    -160.6058
    Octopole Moments (Debye-Ang^2)
       XXX     224.1214    XXY       9.1367    XYY      -4.0422
       YYY     -29.7444    XXZ      55.2699    XYZ     -11.0800
       YYZ     -23.6857    XZZ     -15.6345    YZZ       0.5377
       ZZZ     -32.5770
    Hexadecapole Moments (Debye-Ang^3)
      XXXX  -13273.5290   XXXY    -175.2350   XXYY   -2712.1283
      XYYY     -41.2534   YYYY   -2712.5419   XXXZ    -139.0241
      XXYZ     -32.8314   XYYZ      50.3738   YYYZ      44.2483
      XXZZ   -2605.9432   XYZZ     -10.9710   YYZZ    -723.6691
      XZZZ      57.8432   YZZZ      -7.8480   ZZZZ   -1800.6667
 -----------------------------------------------------------------
 Calculating analytic gradient of the SCF energy
 Gradient of SCF Energy
            1           2           3           4           5           6
    1   0.0074784   0.0050502  -0.0141710   0.0131454  -0.0164795   0.0173414
    2   0.0210355   0.0395498  -0.0249184  -0.0090987  -0.0054966  -0.0128733
    3   0.0237288   0.0016177   0.0174392   0.0252515  -0.0139568   0.0191172
            7           8           9          10          11          12
    1  -0.0088326   0.0032951  -0.0027108   0.0035159  -0.0234512  -0.0128702
    2   0.0300781   0.0177308   0.0230879  -0.0171572  -0.0048316  -0.0065843
    3   0.0089233   0.0174725  -0.0335080   0.0157204  -0.0190909  -0.0138943
           13          14          15          16          17          18
    1   0.0212173   0.0292160   0.0057082  -0.0638104   0.0042956   0.0191346
    2  -0.0194801   0.0115450  -0.0779239   0.0048102  -0.0114329  -0.0093853
    3   0.0193041   0.0131565  -0.0364426  -0.0569929   0.0299932   0.0379938
           19          20          21          22          23          24
    1  -0.0246481  -0.0006508   0.0061897   0.0167502   0.0338434   0.0035538
    2   0.0323412   0.0172563  -0.0141931  -0.0436774   0.0218776   0.0000926
    3  -0.0145944  -0.0234066  -0.0184590  -0.0064991   0.0320461   0.0016132
           25          26          27          28          29          30
    1  -0.0024832   0.0057166  -0.0068077   0.0019873  -0.0043004   0.0023999
    2   0.0055052  -0.0026116  -0.0015693  -0.0009183  -0.0075973   0.0049663
    3  -0.0002355   0.0094517  -0.0026744   0.0048760   0.0024313  -0.0006294
           31          32          33          34          35          36
    1   0.0013681  -0.0046256  -0.0188617  -0.0376403  -0.0087720   0.0202038
    2   0.0089106   0.0177226   0.0392471  -0.0205258  -0.0247505  -0.0168397
    3   0.0097898  -0.0166746   0.0101841   0.0113655   0.0017272   0.0015032
           37          38          39          40          41          42
    1   0.0427018  -0.0049393   0.0032393  -0.0038535  -0.0014571   0.0026348
    2   0.0034252   0.0198188  -0.0000787   0.0032335   0.0042001   0.0115538
    3   0.0066297  -0.0480521  -0.0021861  -0.0025780  -0.0010099  -0.0062211
           43          44          45          46          47          48
    1  -0.0032966   0.0021550   0.0032013  -0.0030494  -0.0079627  -0.0028683
    2   0.0005235   0.0026638   0.0024565   0.0006245   0.0047450   0.0024521
    3   0.0071742  -0.0032894   0.0069613  -0.0034024  -0.0071209   0.0017478
           49          50          51          52          53          54
    1   0.0026002   0.0000092   0.0008806   0.0012066   0.0050753  -0.0011715
    2  -0.0026066   0.0015608   0.0000191  -0.0029722  -0.0103242   0.0014059
    3   0.0003197  -0.0031618   0.0043496   0.0029664  -0.0056538  -0.0015057
           55          56
    1  -0.0045361  -0.0008647
    2  -0.0099049   0.0033125
    3  -0.0021459  -0.0014697
 Max gradient component =       7.792E-02
 RMS gradient           =       1.752E-02
 Gradient time:  CPU 31.07 s  wall 0.66 s
 Geometry Optimization Parameters
   NAtoms,    NIC,     NZ,  NCons,   NDum,   NFix, NCnnct, MaxDiis
       56     458       0       9       0       0       0       0

 Cartesian Hessian Update
 Hessian Updated using BFGS Update


** CONSTRAINED OPTIMIZATION IN DELOCALIZED INTERNAL COORDINATES **
   Searching for a Minimum

   Optimization Cycle:   2

                       Coordinates (Angstroms)
     ATOM                X               Y               Z
      1  O         4.8246702249   -1.3110976361   -1.0682111900
      2  C         4.9591476193   -0.2583326161   -0.4254166931
      3  C         3.9478819792    0.8914919617   -0.3943972241
      4  C         2.4483518617    0.4865672472   -0.3543735213
      5  C         2.1601360734   -1.0093274094   -0.1711291937
      6  O         1.3019796720   -1.4417374387   -1.1740232386
      7  C         0.7884361513   -2.7779133428   -0.9571990645
      8  C        -0.7241128897   -2.8088908444   -1.2586767527
      9  O        -1.4595563879   -2.1877287275   -0.1763547777
     10  C        -2.1415199392   -1.0340762483   -0.5209118081
     11  C        -2.9179055354   -0.4822726212    0.6801501352
     12  C        -3.6873531086    0.8531188195    0.4414040637
     13  C        -3.8637613053    1.2897759383   -1.0218746784
     14  O        -4.9484803184    1.3841195538   -1.6162498076
     15  O         6.0184753472   -0.1056649792    0.4456905509
     16  O        -2.7422366155    1.9160691230   -1.5358335761
     17  O        -2.0752057194   -0.5445822220   -1.6540612033
     18  C        -2.7732779775    2.5023840335   -2.8136086127
     19  C        -4.0789093906   -1.4208334736    1.1383449304
     20  C        -4.3829790568   -1.1540595072    2.6328501027
     21  C        -5.0215611722    0.2425558308    2.5483192308
     22  C        -5.0840660318    0.4352601855    1.0059738614
     23  O        -5.2447483250   -0.8935754373    0.4890416678
     24  H        -2.1795702059   -0.3671309307    1.5019333403
     25  H        -3.2549114270    1.7137263618    0.9918088962
     26  H        -3.8744947560   -2.4973709690    0.9619566858
     27  H        -5.1580720617   -1.8845531921    2.9412468775
     28  H        -3.5174675023   -1.2380148153    3.3173975182
     29  H        -6.0405034412    0.1944264308    2.9793278674
     30  H        -4.4453310884    1.0534168169    3.0341215787
     31  H        -5.8840031424    1.1560551835    0.7360152073
     32  O         2.5854581961   -1.7024062861    0.7638907213
     33  C         6.9976918605   -1.1086362822    0.5651227372
     34  C         4.0360029452    1.7948182405    0.8778782859
     35  C         3.3703377966    3.1676204141    0.5871107585
     36  C         1.8815774486    2.7776685757    0.6106510278
     37  C         1.9894999089    1.2619140287    0.9228833578
     38  O         3.1247555608    1.1761376756    1.7952863032
     39  H         4.1595334751    1.4910656420   -1.3047663156
     40  H         1.8995138014    0.8521152090   -1.2475337812
     41  H         7.5161235826   -1.2824022243   -0.4040057807
     42  H         5.0689543671    1.9454630882    1.2523970175
     43  H         3.5738503228    3.8446491519    1.4406351334
     44  H         3.7210979368    3.6441525854   -0.3481409878
     45  H         1.3929153392    3.2858010466    1.4656110137
     46  H         1.3184003450    2.9947340163   -0.3172087188
     47  H         1.0349083147    0.8757349358    1.3391525388
     48  H         6.5496456201   -2.0662518689    0.9119359065
     49  H         7.7463614492   -0.7765312140    1.3126005499
     50  H        -1.7743384532    2.9365377889   -3.0212285262
     51  H        -3.5320411404    3.3149879480   -2.8660418049
     52  H        -3.0003531459    1.7448953321   -3.5962382237
     53  H        -0.9086165230   -2.3980675219   -2.2750234437
     54  H        -1.0484808437   -3.8719361294   -1.2923513078
     55  H         0.9821486877   -3.2161013990    0.0466633198
     56  H         1.2797266831   -3.4392058764   -1.7055510330
   Point Group: c1    Number of degrees of freedom:   162


   Energy is  -1510.220536646

              Constraints and their Current Values
                                        Value     Constraint
   Dihedral:        1   2   3   4       39.357       39.364
   Dihedral:        3   4   5   6     -127.230     -127.226
   Dihedral:        4   5   6   7     -169.940     -169.951
   Dihedral:        5   6   7   8      135.781      135.775
   Dihedral:        6   7   8   9      -75.631      -75.576
   Dihedral:        7   8   9  10      115.782      115.781
   Dihedral:        8   9  10  11      178.279      178.277
   Dihedral:        9  10  11  12      177.638      177.638
   Dihedral:       11  12  13  14      115.311      115.284
 Hessian Updated using BFGS Update

   Using Lagrange Multiplier Algorithm


159 Hessian modes will be used to form the next step
  Hessian Eigenvalues:
    -0.977753   -0.977753   -0.977753   -0.977753   -0.977753   -0.977753
    -0.977753   -0.977753   -0.977585    0.044992    0.045000    0.045033
     0.045042    0.045173    0.045543    0.045603    0.046177    0.048867
     0.048897    0.054285    0.059929    0.060015    0.062444    0.062764
     0.067003    0.067090    0.067412    0.067576    0.069281    0.070687
     0.071678    0.073792    0.073938    0.075842    0.075989    0.076887
     0.077276    0.082375    0.082463    0.083547    0.083858    0.084491
     0.084590    0.085760    0.085952    0.086743    0.086815    0.087046
     0.087780    0.088348    0.088729    0.089026    0.089427    0.089766
     0.089827    0.093806    0.093891    0.096649    0.096654    0.111551
     0.111656    0.114642    0.114672    0.115907    0.115920    0.116655
     0.117438    0.117753    0.118432    0.118700    0.121640    0.123013
     0.130579    0.131087    0.131452    0.140581    0.141765    0.159616
     0.161636    0.170029    0.172084    0.172621    0.173574    0.219631
     0.220210    0.228201    0.239718    0.241054    0.245964    0.249339
     0.249685    0.249890    0.254249    0.258361    0.262709    0.267434
     0.267593    0.278751    0.281186    0.283367    0.288181    0.295629
     0.297638    0.301544    0.308883    0.310435    0.312032    0.319883
     0.321004    0.321788    0.322139    0.322387    0.322504    0.322765
     0.322920    0.323184    0.323333    0.323509    0.323658    0.323713
     0.324087    0.324356    0.324491    0.324543    0.324609    0.324646
     0.324927    0.324936    0.324993    0.325026    0.325154    0.326713
     0.326778    0.330440    0.368474    0.369155    0.383656    0.400420
     0.406255    0.426734    0.475583    0.491811    0.519939    0.521859
     0.527469    0.541898    0.926493    0.942352    0.951905    0.992112
     1.022753    1.022753    1.022753    1.022753    1.022753    1.022753
     1.022753    1.022753    1.024882

 Minimum Search - Taking P-RFO Step
 Searching for Lamda that Maximizes Along the Constraint modes Only
 Value Taken    Lamda =   0.00001499
 Searching for Lamda that Minimizes Along All other modes
 Value Taken    Lamda =  -0.07986478
 Calculated Step too Large.  Step scaled by  0.599763
 Step Taken.  Stepsize is  0.300000

                             Maximum     Tolerance    Cnvgd?
         Gradient            0.066261       0.000300      NO
         Displacement        0.094561       0.001200      NO
         Energy change     -0.069804       0.000001      NO


 New Cartesian Coordinates Obtained by Inverse Iteration

 Displacement from previous Coordinates is:  1.068165
 Adding empirical dispersion correction 
 ----------------------------------------------------------------
 Doing -D3(op) with
 s6 =   1.00000
 s8 =   0.78311
 a1 =   0.30000
 a2 =   4.25000
 n  =  10.00000
 -D3 energy without 3body term =     -0.0645539075 hartrees
 ----------------------------------------------------------------
             Standard Nuclear Orientation (Angstroms)
    I     Atom           X                Y                Z
 ----------------------------------------------------------------
    1      O       4.7933038842    -1.2906083636    -1.0955172912
    2      C       4.9462642863    -0.2418464755    -0.4351254252
    3      C       3.9444543724     0.9390069274    -0.3732634171
    4      C       2.4357024194     0.5253339239    -0.3250652581
    5      C       2.1683099689    -0.9927488996    -0.1670547854
    6      O       1.2921384011    -1.4061144650    -1.1884207360
    7      C       0.8022796626    -2.7667262240    -0.9782188521
    8      C      -0.7263529564    -2.8031018902    -1.2602340929
    9      O      -1.4579298877    -2.1976306885    -0.1500909163
   10      C      -2.1456415591    -1.0305252171    -0.5243384253
   11      C      -2.9238805818    -0.4830777913     0.6955218139
   12      C      -3.6949622920     0.8531874558     0.4423749923
   13      C      -3.8266423063     1.2725566225    -1.0477297411
   14      O      -4.8887965819     1.3607048125    -1.6980428734
   15      O       6.0257516518    -0.0701862498     0.4377573664
   16      O      -2.6364566194     1.8585833935    -1.5032372782
   17      O      -2.0902484082    -0.5409434861    -1.6683432031
   18      C      -2.6948146290     2.3863199536    -2.8371154058
   19      C      -4.0968802305    -1.4325198077     1.1542630999
   20      C      -4.4050369550    -1.1417731401     2.6587197417
   21      C      -5.0480765821     0.2713772933     2.5526707365
   22      C      -5.1134000909     0.4480671866     0.9936342741
   23      O      -5.2778245650    -0.9061620049     0.4810566332
   24      H      -2.1938566582    -0.3645211438     1.5204449889
   25      H      -3.2613006441     1.7112672182     0.9911657646
   26      H      -3.8978054022    -2.5069217617     0.9692259665
   27      H      -5.1743322117    -1.8654285142     2.9839702543
   28      H      -3.5376086868    -1.2156877253     3.3365660506
   29      H      -6.0641807948     0.2436358883     2.9825844502
   30      H      -4.4674200320     1.0810161681     3.0275143923
   31      H      -5.9092256411     1.1581580297     0.6927529102
   32      O       2.6007661925    -1.7226955522     0.7462658249
   33      C       6.9650772286    -1.1569065913     0.4588186086
   34      C       4.0528612013     1.8290226331     0.9210956303
   35      C       3.3722728444     3.2127668786     0.6390039535
   36      C       1.8683966581     2.8149507470     0.6743445213
   37      C       1.9801113306     1.2835768804     0.9826187502
   38      O       3.1397483046     1.1892314836     1.8588353473
   39      H       4.1440581807     1.5521651098    -1.2750609698
   40      H       1.8778817722     0.8974735164    -1.2051630591
   41      H       7.4286692421    -1.3198019083    -0.5385288824
   42      H       5.0883707338     1.9547191305     1.2932476474
   43      H       3.5861242274     3.8902209709     1.4846340215
   44      H       3.7106288269     3.6874713481    -0.2978828476
   45      H       1.3798077929     3.3184929513     1.5273036280
   46      H       1.3020645212     3.0311870629    -0.2479679536
   47      H       1.0418625966     0.8791456587     1.4131837067
   48      H       6.4842468185    -2.1051112657     0.7838551957
   49      H       7.7584234352    -0.8896959885     1.1834901681
   50      H      -1.6975791110     2.8094370745    -3.0661146166
   51      H      -3.4571777903     3.1911522627    -2.9276515244
   52      H      -2.9274874506     1.5941217375    -3.5813157737
   53      H      -0.9431156640    -2.3635740677    -2.2576751358
   54      H      -1.0415182048    -3.8693265093    -1.3012679707
   55      H       1.0318699344    -3.1970050706     0.0204728496
   56      H       1.2918311143    -3.4151475656    -1.7399769334
 ----------------------------------------------------------------
 Molecular Point Group                 C1    NOp =  1
 Largest Abelian Subgroup              C1    NOp =  1
 Nuclear Repulsion Energy =  3143.8701548022 hartrees
 There are      113 alpha and      113 beta electrons
 Applying Cartesian multipole field
    Component          Value
    ---------          -----
     (2,0,0)        1.00000E-12
     (0,2,0)        2.00000E-11
     (0,0,2)       -3.00000E-11
 Nucleus-field energy     =     0.0000000126 hartrees
 Requested basis set is STO-3G
 There are 86 shells and 176 basis functions
 A cutoff of  1.0D-12 yielded   2228 shell pairs
 There are     10538 function pairs
 Smallest overlap matrix eigenvalue = 2.07E-01
 Guess MOs from SCF MO coefficient file
 Reading MOs from coefficient file
 Reading MOs from coefficient file
 A restricted hybrid HF-DFT SCF calculation will be
 performed using Pulay DIIS extrapolation
 Exchange:     0.2000 Hartree-Fock + 0.0800 Slater + 0.7200 B88
 Correlation:  0.1900 VWN1RPA + 0.8100 LYP
 Using SG-1 standard quadrature grid
 Dispersion:   Grimme D3
 SCF converges when DIIS error is below 1.0E-08
 Geometry optimization detected.  Setting ReadMinima to 0
 Setting SaveMinima to 0
 using 48 threads for integral computing
 -------------------------------------------------------
 OpenMP Integral computing Module                
 Release: version 1.0, May 2013, Q-Chem Inc. Pittsburgh 
 -------------------------------------------------------
 -------------------------------------------------------
 OpenMP BLAS3 based DFT computing Module                
 Release: version 1.0, May 2013, Q-Chem Inc. Pittsburgh 
 -------------------------------------------------------
 ---------------------------------------
  Cycle       Energy         DIIS Error
 ---------------------------------------
    1   -1510.1087483432      3.02E-03
    2   -1510.2536546799      8.43E-04
    3   -1510.2482676971      1.41E-03
    4   -1510.2566344909      2.64E-04
    5   -1510.2569528178      5.75E-05
    6   -1510.2569669885      1.98E-05
    7   -1510.2569680030      1.35E-05
    8   -1510.2569687885      2.55E-06
    9   -1510.2569688209      7.20E-07
   10   -1510.2569688222      5.04E-07
   11   -1510.2569688234      8.53E-08
   12   -1510.2569688234      2.12E-08
   13   -1510.2569688234      1.08E-08
   14   -1510.2569688234      4.22E-09 Convergence criterion met
 ---------------------------------------
 SCF time:  CPU 99.80 s  wall 2.09 s
 SCF   energy in the final basis set = -1510.25696882
 Total energy in the final basis set = -1510.25696882
 
 --------------------------------------------------------------
 
                    Orbital Energies (a.u.)
 --------------------------------------------------------------
 
 Alpha MOs
 -- Occupied --
-18.941 -18.938 -18.937 -18.922 -18.894 -18.894 -18.876 -18.865
-18.863 -18.855 -10.106 -10.101 -10.099 -10.093 -10.078 -10.075
-10.070 -10.064 -10.063 -10.060 -10.060 -10.060 -10.040 -10.039
-10.036 -10.035 -10.018 -10.018 -10.017 -10.016  -1.029  -1.023
 -1.016  -1.010  -0.988  -0.987  -0.945  -0.939  -0.934  -0.926
 -0.770  -0.768  -0.734  -0.727  -0.723  -0.712  -0.702  -0.667
 -0.661  -0.624  -0.601  -0.580  -0.549  -0.546  -0.536  -0.535
 -0.519  -0.518  -0.492  -0.480  -0.470  -0.463  -0.456  -0.452
 -0.437  -0.437  -0.424  -0.418  -0.415  -0.414  -0.408  -0.405
 -0.402  -0.382  -0.378  -0.371  -0.365  -0.360  -0.355  -0.349
 -0.345  -0.342  -0.341  -0.339  -0.333  -0.326  -0.324  -0.314
 -0.310  -0.305  -0.302  -0.297  -0.292  -0.288  -0.281  -0.274
 -0.272  -0.253  -0.249  -0.242  -0.237  -0.235  -0.233  -0.188
 -0.175  -0.170  -0.167  -0.154  -0.151  -0.147  -0.144  -0.143
 -0.138
 -- Virtual --
  0.099   0.101   0.113   0.115   0.236   0.242   0.250   0.259
  0.273   0.288   0.302   0.306   0.319   0.329   0.336   0.341
  0.351   0.353   0.357   0.365   0.369   0.370   0.378   0.382
  0.386   0.388   0.393   0.401   0.404   0.409   0.410   0.416
  0.418   0.421   0.423   0.425   0.430   0.431   0.436   0.440
  0.443   0.446   0.447   0.454   0.456   0.466   0.467   0.470
  0.471   0.474   0.484   0.490   0.496   0.517   0.522   0.543
  0.546   0.555   0.555   0.648   0.655   0.658   0.668
 --------------------------------------------------------------
 
          Ground-State Mulliken Net Atomic Charges

     Atom                 Charge (a.u.)
  ----------------------------------------
      1 O                    -0.222046
      2 C                     0.218820
      3 C                    -0.079061
      4 C                    -0.080349
      5 C                     0.219151
      6 O                    -0.175400
      7 C                    -0.047137
      8 C                    -0.046944
      9 O                    -0.181741
     10 C                     0.217897
     11 C                    -0.080848
     12 C                    -0.079681
     13 C                     0.222538
     14 O                    -0.222315
     15 O                    -0.182989
     16 O                    -0.183745
     17 O                    -0.211994
     18 C                    -0.114101
     19 C                     0.029781
     20 C                    -0.143174
     21 C                    -0.145815
     22 C                     0.031529
     23 O                    -0.192373
     24 H                     0.086324
     25 H                     0.085100
     26 H                     0.085957
     27 H                     0.076586
     28 H                     0.074460
     29 H                     0.077080
     30 H                     0.072371
     31 H                     0.089246
     32 O                    -0.218224
     33 C                    -0.115300
     34 C                     0.029606
     35 C                    -0.144708
     36 C                    -0.144702
     37 C                     0.031955
     38 O                    -0.191833
     39 H                     0.084751
     40 H                     0.087920
     41 H                     0.086627
     42 H                     0.092370
     43 H                     0.075606
     44 H                     0.072605
     45 H                     0.075527
     46 H                     0.075225
     47 H                     0.080612
     48 H                     0.092486
     49 H                     0.092109
     50 H                     0.087066
     51 H                     0.083138
     52 H                     0.090371
     53 H                     0.104834
     54 H                     0.086037
     55 H                     0.102555
     56 H                     0.086241
  ----------------------------------------
  Sum of atomic charges =    -0.000000

 -----------------------------------------------------------------
                    Cartesian Multipole Moments
 -----------------------------------------------------------------
    Charge (ESU x 10^10)
                -0.0000
    Dipole Moment (Debye)
         X       1.6962      Y       1.1279      Z       0.6159
       Tot       2.1280
    Quadrupole Moments (Debye-Ang)
        XX    -165.2142     XY       3.5051     YY    -149.3140
        XZ     -12.7961     YZ       0.3618     ZZ    -160.7770
    Octopole Moments (Debye-Ang^2)
       XXX     215.1822    XXY       6.9728    XYY      -1.5125
       YYY     -30.8796    XXZ      50.1243    XYZ     -10.7703
       YYZ     -23.1176    XZZ     -16.7134    YZZ      -0.7368
       ZZZ     -32.9672
    Hexadecapole Moments (Debye-Ang^3)
      XXXX  -13247.3847   XXXY    -240.7102   XXYY   -2695.0996
      XYYY     -65.2694   YYYY   -2712.6465   XXXZ    -157.6120
      XXYZ     -33.9399   XYYZ      50.6449   YYYZ      24.9121
      XXZZ   -2614.3436   XYZZ     -18.3142   YYZZ    -731.2202
      XZZZ      60.9499   YZZZ     -29.6656   ZZZZ   -1836.6748
 -----------------------------------------------------------------
 Calculating analytic gradient of the SCF energy
 Gradient of SCF Energy
            1           2           3           4           5           6
    1   0.0025619   0.0088496  -0.0101429   0.0075974  -0.0111715   0.0100160
    2   0.0057294   0.0271627  -0.0150332  -0.0049411  -0.0021881  -0.0080746
    3   0.0111368   0.0008517   0.0111769   0.0106714  -0.0110068   0.0066425
            7           8           9          10          11          12
    1  -0.0043181  -0.0007628   0.0000536   0.0010107  -0.0139972  -0.0029522
    2   0.0191786   0.0181543   0.0090428  -0.0116545  -0.0012448  -0.0027129
    3   0.0134687   0.0079112  -0.0157824   0.0116798  -0.0104152  -0.0067144
           13          14          15          16          17          18
    1   0.0184322   0.0093132   0.0001103  -0.0339816   0.0032946   0.0096290
    2  -0.0171564   0.0096149  -0.0430043  -0.0028487   0.0023421  -0.0057510
    3   0.0106245   0.0051898  -0.0201984  -0.0317173   0.0118185   0.0236233
           19          20          21          22          23          24
    1  -0.0147069   0.0033047   0.0031508   0.0063063   0.0160968   0.0014642
    2   0.0158113   0.0079746  -0.0044031  -0.0259988   0.0117041   0.0005529
    3  -0.0112333  -0.0102009  -0.0074420  -0.0057079   0.0160987   0.0010587
           25          26          27          28          29          30
    1  -0.0019114   0.0046769  -0.0039575  -0.0002010  -0.0017605   0.0005036
    2   0.0034474  -0.0012286  -0.0002361  -0.0015674  -0.0052477   0.0028673
    3  -0.0006874   0.0071643  -0.0026581   0.0032064   0.0009768  -0.0010017
           31          32          33          34          35          36
    1   0.0020918  -0.0003455  -0.0118553  -0.0191553  -0.0028161   0.0080164
    2   0.0069947   0.0074058   0.0238332  -0.0130557  -0.0112529  -0.0079587
    3   0.0075666  -0.0057323   0.0059400   0.0092545  -0.0018506  -0.0017134
           37          38          39          40          41          42
    1   0.0235911  -0.0027278   0.0022196  -0.0020539  -0.0000207   0.0018134
    2   0.0003145   0.0103777  -0.0002828   0.0022935   0.0016646   0.0084785
    3   0.0070858  -0.0235344  -0.0011533  -0.0005477  -0.0006874  -0.0054895
           43          44          45          46          47          48
    1  -0.0025735   0.0015824   0.0030818  -0.0022444  -0.0056893  -0.0009756
    2  -0.0008574   0.0019910   0.0008819   0.0004287   0.0037558   0.0005041
    3   0.0041767  -0.0007240   0.0039988  -0.0008190  -0.0061635   0.0012500
           49          50          51          52          53          54
    1   0.0014361  -0.0000067   0.0002540   0.0004784   0.0031146  -0.0008320
    2  -0.0015721   0.0007901   0.0007361  -0.0011804  -0.0086646   0.0005082
    3   0.0000366  -0.0018276   0.0016492   0.0005919  -0.0052874  -0.0007447
           55          56
    1  -0.0024764  -0.0004153
    2  -0.0085525   0.0021272
    3  -0.0023174  -0.0014920
 Max gradient component =       4.300E-02
 RMS gradient           =       9.843E-03
 Gradient time:  CPU 30.20 s  wall 0.64 s
 Geometry Optimization Parameters
   NAtoms,    NIC,     NZ,  NCons,   NDum,   NFix, NCnnct, MaxDiis
       56     458       0       9       0       0       0       0

 Cartesian Hessian Update
 Hessian Updated using BFGS Update


** CONSTRAINED OPTIMIZATION IN DELOCALIZED INTERNAL COORDINATES **
   Searching for a Minimum

   Optimization Cycle:   3

                       Coordinates (Angstroms)
     ATOM                X               Y               Z
      1  O         4.7933038842   -1.2906083636   -1.0955172912
      2  C         4.9462642863   -0.2418464755   -0.4351254252
      3  C         3.9444543724    0.9390069274   -0.3732634171
      4  C         2.4357024194    0.5253339239   -0.3250652581
      5  C         2.1683099689   -0.9927488996   -0.1670547854
      6  O         1.2921384011   -1.4061144650   -1.1884207360
      7  C         0.8022796626   -2.7667262240   -0.9782188521
      8  C        -0.7263529564   -2.8031018902   -1.2602340929
      9  O        -1.4579298877   -2.1976306885   -0.1500909163
     10  C        -2.1456415591   -1.0305252171   -0.5243384253
     11  C        -2.9238805818   -0.4830777913    0.6955218139
     12  C        -3.6949622920    0.8531874558    0.4423749923
     13  C        -3.8266423063    1.2725566225   -1.0477297411
     14  O        -4.8887965819    1.3607048125   -1.6980428734
     15  O         6.0257516518   -0.0701862498    0.4377573664
     16  O        -2.6364566194    1.8585833935   -1.5032372782
     17  O        -2.0902484082   -0.5409434861   -1.6683432031
     18  C        -2.6948146290    2.3863199536   -2.8371154058
     19  C        -4.0968802305   -1.4325198077    1.1542630999
     20  C        -4.4050369550   -1.1417731401    2.6587197417
     21  C        -5.0480765821    0.2713772933    2.5526707365
     22  C        -5.1134000909    0.4480671866    0.9936342741
     23  O        -5.2778245650   -0.9061620049    0.4810566332
     24  H        -2.1938566582   -0.3645211438    1.5204449889
     25  H        -3.2613006441    1.7112672182    0.9911657646
     26  H        -3.8978054022   -2.5069217617    0.9692259665
     27  H        -5.1743322117   -1.8654285142    2.9839702543
     28  H        -3.5376086868   -1.2156877253    3.3365660506
     29  H        -6.0641807948    0.2436358883    2.9825844502
     30  H        -4.4674200320    1.0810161681    3.0275143923
     31  H        -5.9092256411    1.1581580297    0.6927529102
     32  O         2.6007661925   -1.7226955522    0.7462658249
     33  C         6.9650772286   -1.1569065913    0.4588186086
     34  C         4.0528612013    1.8290226331    0.9210956303
     35  C         3.3722728444    3.2127668786    0.6390039535
     36  C         1.8683966581    2.8149507470    0.6743445213
     37  C         1.9801113306    1.2835768804    0.9826187502
     38  O         3.1397483046    1.1892314836    1.8588353473
     39  H         4.1440581807    1.5521651098   -1.2750609698
     40  H         1.8778817722    0.8974735164   -1.2051630591
     41  H         7.4286692421   -1.3198019083   -0.5385288824
     42  H         5.0883707338    1.9547191305    1.2932476474
     43  H         3.5861242274    3.8902209709    1.4846340215
     44  H         3.7106288269    3.6874713481   -0.2978828476
     45  H         1.3798077929    3.3184929513    1.5273036280
     46  H         1.3020645212    3.0311870629   -0.2479679536
     47  H         1.0418625966    0.8791456587    1.4131837067
     48  H         6.4842468185   -2.1051112657    0.7838551957
     49  H         7.7584234352   -0.8896959885    1.1834901681
     50  H        -1.6975791110    2.8094370745   -3.0661146166
     51  H        -3.4571777903    3.1911522627   -2.9276515244
     52  H        -2.9274874506    1.5941217375   -3.5813157737
     53  H        -0.9431156640   -2.3635740677   -2.2576751358
     54  H        -1.0415182048   -3.8693265093   -1.3012679707
     55  H         1.0318699344   -3.1970050706    0.0204728496
     56  H         1.2918311143   -3.4151475656   -1.7399769334
   Point Group: c1    Number of degrees of freedom:   162


   Energy is  -1510.256968823

              Constraints and their Current Values
                                        Value     Constraint
   Dihedral:        1   2   3   4       39.355       39.364
   Dihedral:        3   4   5   6     -127.224     -127.226
   Dihedral:        4   5   6   7     -169.947     -169.951
   Dihedral:        5   6   7   8      135.781      135.775
   Dihedral:        6   7   8   9      -75.592      -75.576
   Dihedral:        7   8   9  10      115.788      115.781
   Dihedral:        8   9  10  11      178.275      178.277
   Dihedral:        9  10  11  12      177.639      177.638
   Dihedral:       11  12  13  14      115.288      115.284
 Hessian Updated using BFGS Update

   Using Lagrange Multiplier Algorithm


162 Hessian modes will be used to form the next step
  Hessian Eigenvalues:
    -0.977754   -0.977753   -0.977753   -0.977753   -0.977753   -0.977753
    -0.977753   -0.977730   -0.977280    0.044405    0.045000    0.045000
     0.045008    0.045037    0.045163    0.045480    0.045543    0.047277
     0.048739    0.048867    0.054012    0.059048    0.060023    0.062442
     0.062766    0.066995    0.067073    0.067409    0.067700    0.069282
     0.070604    0.071276    0.073725    0.073926    0.075840    0.075989
     0.077029    0.077748    0.082368    0.082464    0.083506    0.083806
     0.084487    0.084654    0.085582    0.085776    0.086690    0.086813
     0.087321    0.087778    0.088355    0.088975    0.089408    0.089555
     0.089756    0.090301    0.093759    0.093841    0.096612    0.096656
     0.111550    0.111653    0.114642    0.114657    0.115907    0.115919
     0.116284    0.117525    0.117769    0.118439    0.119561    0.121622
     0.122788    0.130572    0.130870    0.131452    0.140664    0.144583
     0.159828    0.160062    0.161626    0.171678    0.172258    0.172992
     0.177105    0.219704    0.220398    0.231970    0.239741    0.241090
     0.246033    0.249360    0.249691    0.249984    0.253809    0.256245
     0.259047    0.266582    0.267539    0.275044    0.281065    0.282135
     0.285481    0.293036    0.295691    0.297707    0.303150    0.308722
     0.310380    0.314350    0.317998    0.320792    0.321748    0.322109
     0.322382    0.322490    0.322758    0.322891    0.323174    0.323346
     0.323450    0.323588    0.323743    0.324100    0.324363    0.324484
     0.324545    0.324610    0.324678    0.324927    0.324936    0.325001
     0.325028    0.325158    0.326757    0.326782    0.331374    0.368443
     0.368755    0.384789    0.388023    0.404403    0.406690    0.461302
     0.491787    0.514132    0.521094    0.526783    0.538707    0.926810
     0.942359    0.951923    1.004900    1.022753    1.022753    1.022753
     1.022753    1.022753    1.022753    1.022753    1.022878    1.028319

 Minimum Search - Taking P-RFO Step
 Searching for Lamda that Maximizes Along the Constraint modes Only
 Value Taken    Lamda =   0.00002262
 Searching for Lamda that Minimizes Along All other modes
 Value Taken    Lamda =  -0.03842172
 Calculated Step too Large.  Step scaled by  0.625244
 Step Taken.  Stepsize is  0.300000

                             Maximum     Tolerance    Cnvgd?
         Gradient            0.031792       0.000300      NO
         Displacement        0.093425       0.001200      NO
         Energy change     -0.036432       0.000001      NO


 New Cartesian Coordinates Obtained by Inverse Iteration

 Displacement from previous Coordinates is:  1.585651
 Adding empirical dispersion correction 
 ----------------------------------------------------------------
 Doing -D3(op) with
 s6 =   1.00000
 s8 =   0.78311
 a1 =   0.30000
 a2 =   4.25000
 n  =  10.00000
 -D3 energy without 3body term =     -0.0641956355 hartrees
 ----------------------------------------------------------------
             Standard Nuclear Orientation (Angstroms)
    I     Atom           X                Y                Z
 ----------------------------------------------------------------
    1      O       4.7951911057    -1.3562173843    -1.0158729112
    2      C       4.9514833736    -0.2800190808    -0.3976496295
    3      C       3.9584936491     0.9265927625    -0.3915007211
    4      C       2.4422166973     0.5072108274    -0.3400492315
    5      C       2.1889184835    -1.0170356581    -0.1307559408
    6      O       1.3143431340    -1.4640734476    -1.1602144772
    7      C       0.8329684826    -2.8324476931    -0.9051317839
    8      C      -0.7000683849    -2.8771986436    -1.1983470593
    9      O      -1.4423003466    -2.2308971228    -0.1028141624
   10      C      -2.1251248511    -1.0648492095    -0.5460789596
   11      C      -2.9101299753    -0.4863874779     0.6740009055
   12      C      -3.7121423125     0.8575072249     0.4475965899
   13      C      -3.8278862207     1.3611855608    -1.0320026034
   14      O      -4.8756067248     1.4652636604    -1.7059381761
   15      O       6.0436464193    -0.0448739047     0.4732599970
   16      O      -2.6208150194     2.0204219403    -1.3929437448
   17      O      -2.0688309742    -0.6433686453    -1.7195056506
   18      C      -2.7217872322     2.6087650728    -2.7258427799
   19      C      -4.0803975194    -1.4680412816     1.1075759921
   20      C      -4.4090202779    -1.2059448771     2.6205683770
   21      C      -5.0774608394     0.2048162178     2.5326766055
   22      C      -5.1368790552     0.4148282473     0.9693896998
   23      O      -5.2739792496    -0.9452446503     0.4191357475
   24      H      -2.1902384857    -0.3674887282     1.5051543314
   25      H      -3.2957190275     1.7015375682     1.0276558191
   26      H      -3.8687574781    -2.5326785999     0.8877411838
   27      H      -5.1621279984    -1.9472217244     2.9379600134
   28      H      -3.5401980340    -1.2718844168     3.2950042906
   29      H      -6.0943764521     0.1648726682     2.9555247083
   30      H      -4.5087364781     1.0089944697     3.0272079837
   31      H      -5.9434165460     1.1076806631     0.6598708564
[...]
     15  O         5.9502551267    0.1685685630    0.1357962556
     16  O        -1.9278182961    1.9129288546   -0.7893965378
     17  O        -2.2062887814   -0.7099330356   -1.5400279699
     18  C        -1.5575013737    2.4164461201   -2.1297748135
     19  C        -4.0804603071   -1.4847907765    1.2880660675
     20  C        -4.6633941378   -1.0163159575    2.6803256616
     21  C        -5.4623540920    0.2743262514    2.2616939396
     22  C        -5.1125734874    0.3558509214    0.7260385382
     23  O        -5.1077521229   -1.0667571074    0.3072534762
     24  H        -2.1134351293   -0.4674866376    1.7184043632
     25  H        -3.3334466644    1.5572429293    1.3542631617
     26  H        -3.8722645277   -2.5692011745    1.2028111888
     27  H        -5.3279668178   -1.7885100526    3.0991433223
     28  H        -3.8651756409   -0.8047293026    3.4098300585
     29  H        -6.5466582379    0.1379551360    2.4014771653
     30  H        -5.1440844047    1.1728871563    2.8137526418
     31  H        -5.8109838467    0.9404441348    0.0961493312
     32  O         2.5218294963   -1.7745823772    0.7255328338
     33  C         6.9288209415   -0.9419607053    0.0734870093
     34  C         3.8525299957    1.9170387262    0.7612211459
     35  C         3.0784913174    3.2625529258    0.4675270077
     36  C         1.5838004285    2.7820145718    0.5752850092
     37  C         1.7782849730    1.2553159142    0.9271829362
     38  O         2.9991549249    1.2385148575    1.7636986910
     39  H         3.8538343122    1.5808945442   -1.4474796753
     40  H         1.6235514545    0.7817327233   -1.2645551620
     41  H         7.2194195469   -1.1720208617   -0.9719849142
     42  H         4.8866968389    2.0269643890    1.1393925836
     43  H         3.3158161187    4.0184383255    1.2328217476
     44  H         3.3245633188    3.6744825414   -0.5241970507
     45  H         1.0486256092    3.2984295379    1.3879181913
     46  H         1.0191115549    2.9193712549   -0.3603792446
     47  H         0.9312790100    0.7847943117    1.4632693461
     48  H         6.5245751235   -1.8642752885    0.5381898891
     49  H         7.8150789617   -0.5990373059    0.6382933248
     50  H        -0.5412223440    2.8407550245   -2.0317321094
     51  H        -2.2554015186    3.2030159253   -2.4828784449
     52  H        -1.5449690662    1.5940149694   -2.8745476968
     53  H        -1.0852409021   -2.3915206656   -2.0837564897
     54  H        -1.1599811831   -4.0113899214   -1.2474993703
     55  H         1.0212967420   -3.2197975726    0.0849960255
     56  H         1.2550722907   -3.5913543177   -1.6713567189
   Point Group: c1    Number of degrees of freedom:   162


   Energy is  -1510.286155695

              Constraints and their Current Values
                                        Value     Constraint
   Dihedral:        1   2   3   4       39.364       39.364
   Dihedral:        3   4   5   6     -127.226     -127.226
   Dihedral:        4   5   6   7     -169.951     -169.951
   Dihedral:        5   6   7   8      135.775      135.775
   Dihedral:        6   7   8   9      -75.576      -75.576
   Dihedral:        7   8   9  10      115.781      115.781
   Dihedral:        8   9  10  11      178.277      178.277
   Dihedral:        9  10  11  12      177.638      177.638
   Dihedral:       11  12  13  14      115.284      115.284
 Hessian Updated using BFGS Update

153 Hessian modes will be used to form the next step
  Hessian Eigenvalues:
     0.003501    0.008556    0.022592    0.026830    0.042307    0.045006
     0.045026    0.045115    0.045203    0.045395    0.045640    0.048078
     0.050779    0.054623    0.056636    0.060022    0.061987    0.066723
     0.067232    0.067373    0.067550    0.068187    0.069392    0.070847
     0.073603    0.074092    0.075632    0.076286    0.076577    0.077725
     0.082377    0.082481    0.083344    0.083906    0.084274    0.084608
     0.085929    0.086540    0.086820    0.087063    0.087187    0.088006
     0.088863    0.089029    0.089478    0.089779    0.089984    0.092309
     0.093724    0.093910    0.096646    0.096707    0.111356    0.111659
     0.114732    0.115030    0.115906    0.115945    0.117290    0.117867
     0.118393    0.120522    0.121706    0.122085    0.123400    0.131380
     0.131762    0.133999    0.142365    0.158021    0.159931    0.160004
     0.160125    0.160540    0.161540    0.163792    0.172043    0.173033
     0.174190    0.197308    0.216590    0.228531    0.238643    0.240422
     0.245635    0.248517    0.249458    0.249858    0.250077    0.251980
     0.255642    0.258223    0.264758    0.266800    0.267540    0.274837
     0.281031    0.282490    0.287403    0.289574    0.295647    0.299524
     0.302984    0.307861    0.310492    0.315742    0.318307    0.320694
     0.321535    0.321747    0.322113    0.322497    0.322722    0.322816
     0.322924    0.323195    0.323376    0.323610    0.323739    0.323875
     0.324129    0.324466    0.324489    0.324612    0.324926    0.324938
     0.324976    0.325146    0.325181    0.326328    0.326710    0.328599
     0.332101    0.346549    0.352171    0.363014    0.367836    0.370509
     0.389892    0.411973    0.418442    0.434298    0.469585    0.500975
     0.514305    0.530252    0.544415    0.566389    0.622078    0.928180
     0.942830    0.950522    1.017477

 Minimum Search - Taking Simple RFO Step
 Searching for Lamda that Minimizes Along All modes
 Value Taken    Lamda =   0.00000000
 Step Taken.  Stepsize is  0.002284

                             Maximum     Tolerance    Cnvgd?
         Gradient           0.000047      0.000300     YES
         Displacement       0.000612      0.001200     YES
         Energy change     -0.000001      0.000001     YES

 Final energy is   -1510.28615569490     


 ******************************
 **  OPTIMIZATION CONVERGED  **
 ******************************

                       Coordinates (Angstroms)
     ATOM                X               Y               Z
      1  O         4.6133902940   -1.2741569218   -1.1816598638
      2  C         4.7638012033   -0.1904137019   -0.5751689932
      3  C         3.7280657412    0.9894629613   -0.5209820780
      4  C         2.2302980461    0.4875089425   -0.3906714508
      5  C         2.0675308744   -1.0585545955   -0.1928299594
      6  O         1.1508183881   -1.5157708495   -1.1950917778
      7  C         0.7421275450   -2.9196649397   -0.9483495606
      8  C        -0.8038726474   -2.9621964129   -1.1723509065
      9  O        -1.4534353956   -2.3399922245    0.0098305919
     10  C        -2.1462485725   -1.1500094670   -0.3686076392
     11  C        -2.8480577387   -0.5576870674    0.8984069408
     12  C        -3.5964036094    0.8010690071    0.5925309359
     13  C        -3.2776830143    1.4169819164   -0.8205186837
     14  O        -4.0697212524    1.5806677557   -1.7718023499
     15  O         5.9502551267    0.1685685630    0.1357962556
     16  O        -1.9278182961    1.9129288546   -0.7893965378
     17  O        -2.2062887814   -0.7099330356   -1.5400279699
     18  C        -1.5575013737    2.4164461201   -2.1297748135
     19  C        -4.0804603071   -1.4847907765    1.2880660675
     20  C        -4.6633941378   -1.0163159575    2.6803256616
     21  C        -5.4623540920    0.2743262514    2.2616939396
     22  C        -5.1125734874    0.3558509214    0.7260385382
     23  O        -5.1077521229   -1.0667571074    0.3072534762
     24  H        -2.1134351293   -0.4674866376    1.7184043632
     25  H        -3.3334466644    1.5572429293    1.3542631617
     26  H        -3.8722645277   -2.5692011745    1.2028111888
     27  H        -5.3279668178   -1.7885100526    3.0991433223
     28  H        -3.8651756409   -0.8047293026    3.4098300585
     29  H        -6.5466582379    0.1379551360    2.4014771653
     30  H        -5.1440844047    1.1728871563    2.8137526418
     31  H        -5.8109838467    0.9404441348    0.0961493312
     32  O         2.5218294963   -1.7745823772    0.7255328338
     33  C         6.9288209415   -0.9419607053    0.0734870093
     34  C         3.8525299957    1.9170387262    0.7612211459
     35  C         3.0784913174    3.2625529258    0.4675270077
     36  C         1.5838004285    2.7820145718    0.5752850092
     37  C         1.7782849730    1.2553159142    0.9271829362
     38  O         2.9991549249    1.2385148575    1.7636986910
     39  H         3.8538343122    1.5808945442   -1.4474796753
     40  H         1.6235514545    0.7817327233   -1.2645551620
     41  H         7.2194195469   -1.1720208617   -0.9719849142
     42  H         4.8866968389    2.0269643890    1.1393925836
     43  H         3.3158161187    4.0184383255    1.2328217476
     44  H         3.3245633188    3.6744825414   -0.5241970507
     45  H         1.0486256092    3.2984295379    1.3879181913
     46  H         1.0191115549    2.9193712549   -0.3603792446
     47  H         0.9312790100    0.7847943117    1.4632693461
     48  H         6.5245751235   -1.8642752885    0.5381898891
     49  H         7.8150789617   -0.5990373059    0.6382933248
     50  H        -0.5412223440    2.8407550245   -2.0317321094
     51  H        -2.2554015186    3.2030159253   -2.4828784449
     52  H        -1.5449690662    1.5940149694   -2.8745476968
     53  H        -1.0852409021   -2.3915206656   -2.0837564897
     54  H        -1.1599811831   -4.0113899214   -1.2474993703
     55  H         1.0212967420   -3.2197975726    0.0849960255
     56  H         1.2550722907   -3.5913543177   -1.6713567189

Z-matrix Print:
$molecule
0 1
O 
C  1 1.433156
O  2 1.249989 1 124.300158
C  1 1.482845 2 111.221083 3 3.796238 0
H  4 1.111674 1 109.941978 2 14.594855 0
H  4 1.112213 1 109.663019 2 -105.221979 0
C  4 1.562723 1 105.936930 2 135.775024 0
H  7 1.110526 4 110.649370 1 166.454000 0
H  7 1.111530 4 110.731362 1 43.720207 0
O  7 1.485471 4 107.885983 1 -75.576023 0
C  10 1.428028 7 110.504684 4 115.781029 0
O  11 1.252796 10 124.316532 7 0.849766 0
C  11 1.564835 10 108.568455 7 178.277032 0
H  13 1.104628 11 109.493194 10 51.393313 0
C  2 1.567146 1 107.030690 3 -173.747251 0
H  15 1.103803 2 107.807741 1 -1.957351 0
C  13 1.581076 11 112.391327 10 177.638045 0
H  17 1.105071 13 110.003485 11 -131.888796 0
C  17 1.574052 13 114.462938 11 -10.575538 0
O  19 1.248623 17 127.357941 13 115.283991 0
O  19 1.438425 17 107.788591 13 -71.251965 0
C  21 1.478945 19 109.435887 17 176.115078 0
H  22 1.105655 21 106.286521 19 176.506587 0
H  22 1.109251 21 111.862554 19 56.994203 0
H  22 1.109611 21 111.026517 19 -64.505820 0
C  15 1.585007 2 114.894774 1 -127.226041 0
H  26 1.106348 15 110.216417 2 125.927246 0
C  26 1.570921 15 112.830589 2 5.979548 0
O  28 1.250981 26 126.023427 15 39.363978 0
O  28 1.428990 26 109.972712 15 -142.879131 0
C  30 1.481468 28 109.827438 26 -179.550465 0
H  31 1.105466 30 105.993727 28 179.965951 0
H  31 1.109066 30 111.407918 28 -60.829532 0
H  31 1.109228 30 111.602510 28 60.672869 0
C  17 1.585817 13 101.242795 11 110.421017 0
H  35 1.107378 17 114.009732 13 -150.906527 0
O  35 1.482976 17 104.030518 13 -30.654413 0
C  37 1.480565 35 94.935523 17 55.375847 0
H  38 1.107502 37 110.848592 35 179.486555 0
C  35 1.577096 17 107.971050 13 78.375975 0
H  40 1.101579 35 112.441412 17 48.650429 0
H  40 1.101749 35 110.378145 17 170.301768 0
C  40 1.574594 35 100.877787 17 -71.859086 0
H  43 1.101521 40 111.688726 35 -121.040689 0
H  43 1.101861 40 112.718424 35 116.288686 0
C  26 1.587430 15 101.112350 2 -116.813832 0
H  46 1.106616 26 114.038202 15 154.365897 0
O  46 1.481082 26 103.523215 15 34.071923 0
C  48 1.480056 46 95.021491 26 -56.467782 0
H  49 1.107338 48 110.640827 46 -179.835177 0
C  49 1.578754 48 103.802294 46 -55.797538 0
H  51 1.101457 49 111.906537 48 154.825038 0
H  51 1.101576 49 110.411304 48 -84.067164 0
C  51 1.573731 49 101.159586 48 34.259061 0
H  54 1.101527 51 111.505681 49 -116.777647 0
H  54 1.101705 51 112.826747 49 120.549663 0
$end

 
 --------------------------------------------------------------
 
                    Orbital Energies (a.u.)
 --------------------------------------------------------------
 
 Alpha MOs
 -- Occupied --
-18.940 -18.938 -18.928 -18.919 -18.887 -18.887 -18.886 -18.874
-18.869 -18.862 -10.107 -10.100 -10.095 -10.091 -10.073 -10.069
-10.065 -10.061 -10.060 -10.057 -10.056 -10.056 -10.041 -10.038
-10.035 -10.033 -10.021 -10.020 -10.019 -10.019  -1.021  -1.013
 -1.005  -0.998  -0.970  -0.970  -0.945  -0.937  -0.930  -0.925
 -0.764  -0.762  -0.729  -0.722  -0.715  -0.706  -0.697  -0.662
 -0.656  -0.618  -0.597  -0.576  -0.546  -0.543  -0.537  -0.536
 -0.513  -0.511  -0.487  -0.474  -0.463  -0.456  -0.453  -0.449
 -0.433  -0.431  -0.423  -0.416  -0.412  -0.411  -0.405  -0.403
 -0.400  -0.377  -0.373  -0.367  -0.361  -0.355  -0.354  -0.349
 -0.343  -0.339  -0.339  -0.333  -0.330  -0.325  -0.320  -0.312
 -0.310  -0.305  -0.303  -0.301  -0.293  -0.286  -0.277  -0.274
 -0.272  -0.256  -0.253  -0.246  -0.245  -0.234  -0.233  -0.187
 -0.178  -0.168  -0.165  -0.163  -0.156  -0.148  -0.145  -0.143
 -0.142
 -- Virtual --
  0.092   0.096   0.110   0.115   0.232   0.237   0.243   0.246
  0.258   0.270   0.284   0.287   0.307   0.311   0.326   0.330
  0.338   0.338   0.343   0.345   0.355   0.359   0.370   0.373
  0.374   0.383   0.392   0.396   0.404   0.407   0.409   0.411
  0.413   0.417   0.418   0.421   0.423   0.429   0.430   0.431
  0.432   0.434   0.438   0.440   0.444   0.448   0.459   0.461
  0.467   0.472   0.479   0.487   0.496   0.509   0.513   0.540
  0.543   0.552   0.557   0.636   0.637   0.656   0.659
 --------------------------------------------------------------
 
          Ground-State Mulliken Net Atomic Charges

     Atom                 Charge (a.u.)
  ----------------------------------------
      1 O                    -0.213640
      2 C                     0.212663
      3 C                    -0.078602
      4 C                    -0.079495
      5 C                     0.212977
      6 O                    -0.174591
      7 C                    -0.052508
      8 C                    -0.054020
      9 O                    -0.173336
     10 C                     0.217741
     11 C                    -0.076970
     12 C                    -0.081597
     13 C                     0.216684
     14 O                    -0.215839
     15 O                    -0.168486
     16 O                    -0.178902
     17 O                    -0.206620
     18 C                    -0.128314
     19 C                     0.024888
     20 C                    -0.144320
     21 C                    -0.143325
     22 C                     0.024130
     23 O                    -0.190236
     24 H                     0.087179
     25 H                     0.082954
     26 H                     0.085316
     27 H                     0.078534
     28 H                     0.074009
     29 H                     0.078222
     30 H                     0.073306
     31 H                     0.090594
     32 O                    -0.214504
     33 C                    -0.127437
     34 C                     0.023497
     35 C                    -0.144232
     36 C                    -0.142880
     37 C                     0.027001
     38 O                    -0.188080
     39 H                     0.084213
     40 H                     0.087390
     41 H                     0.088877
     42 H                     0.092465
     43 H                     0.077745
     44 H                     0.072394
     45 H                     0.078292
     46 H                     0.073892
     47 H                     0.082381
     48 H                     0.093538
     49 H                     0.090984
     50 H                     0.080535
     51 H                     0.087800
     52 H                     0.092819
     53 H                     0.107842
     54 H                     0.087451
     55 H                     0.102765
     56 H                     0.086855
  ----------------------------------------
  Sum of atomic charges =    -0.000000

 -----------------------------------------------------------------
                    Cartesian Multipole Moments
 -----------------------------------------------------------------
    Charge (ESU x 10^10)
                -0.0000
    Dipole Moment (Debye)
         X       1.4160      Y       0.9529      Z       0.7940
       Tot       1.8824
    Quadrupole Moments (Debye-Ang)
        XX    -159.6377     XY       3.6825     YY    -150.5784
        XZ     -15.8566     YZ       0.5168     ZZ    -162.2636
    Octopole Moments (Debye-Ang^2)
       XXX     155.4116    XXY       2.4720    XYY       1.2871
       YYY     -31.1939    XXZ      42.0043    XYZ     -11.0608
       YYZ     -21.7013    XZZ      -9.1451    YZZ      -4.2894
       ZZZ     -22.6083
    Hexadecapole Moments (Debye-Ang^3)
      XXXX  -11994.8471   XXXY    -401.1299   XXYY   -2614.2365
      XYYY    -182.0404   YYYY   -2836.0231   XXXZ     137.2020
      XXYZ     -27.0920   XYYZ     130.6868   YYYZ       7.7428
      XXZZ   -2427.7210   XYZZ     -46.2618   YYZZ    -722.1147
      XZZZ     330.0777   YZZZ     -40.9877   ZZZZ   -1563.5460
 -----------------------------------------------------------------
Archival summary:
1\1\vega02.cac.cornell.edu\OPT\ProcedureUnspecified\STO-3G\102026\jj585\MonJan1508:15:242018MonJan1508:15:242018\0\\#,OPT,ProcedureUnspecified,STO-3G,\\0,1\O\C,1,1.43316\O,2,1.24999,1,124.3\C,1,1.48284,2,111.221,3,3.79624,0\H,4,1.11167,1,109.942,2,14.5949,0\H,4,1.11221,1,109.663,2,-105.222,0\C,4,1.56272,1,105.937,2,135.775,0\H,7,1.11053,4,110.649,1,166.454,0\H,7,1.11153,4,110.731,1,43.7202,0\O,7,1.48547,4,107.886,1,-75.576,0\C,10,1.42803,7,110.505,4,115.781,0\O,11,1.2528,10,124.317,7,0.849766,0\C,11,1.56483,10,108.568,7,178.277,0\H,13,1.10463,11,109.493,10,51.3933,0\C,2,1.56715,1,107.031,3,-173.747,0\H,15,1.1038,2,107.808,1,-1.95735,0\C,13,1.58108,11,112.391,10,177.638,0\H,17,1.10507,13,110.003,11,-131.889,0\C,17,1.57405,13,114.463,11,-10.5755,0\O,19,1.24862,17,127.358,13,115.284,0\O,19,1.43843,17,107.789,13,-71.252,0\C,21,1.47894,19,109.436,17,176.115,0\H,22,1.10566,21,106.287,19,176.507,0\H,22,1.10925,21,111.863,19,56.9942,0\H,22,1.10961,21,111.027,19,-64.5058,0\C,15,1.58501,2,114.895,1,-127.226,0\H,26,1.10635,15,110.216,2,125.927,0\C,26,1.57092,15,112.831,2,5.97955,0\O,28,1.25098,26,126.023,15,39.364,0\O,28,1.42899,26,109.973,15,-142.879,0\C,30,1.48147,28,109.827,26,-179.55,0\H,31,1.10547,30,105.994,28,179.966,0\H,31,1.10907,30,111.408,28,-60.8295,0\H,31,1.10923,30,111.603,28,60.6729,0\C,17,1.58582,13,101.243,11,110.421,0\H,35,1.10738,17,114.01,13,-150.907,0\O,35,1.48298,17,104.031,13,-30.6544,0\C,37,1.48057,35,94.9355,17,55.3758,0\H,38,1.1075,37,110.849,35,179.487,0\C,35,1.5771,17,107.971,13,78.376,0\H,40,1.10158,35,112.441,17,48.6504,0\H,40,1.10175,35,110.378,17,170.302,0\C,40,1.57459,35,100.878,17,-71.8591,0\H,43,1.10152,40,111.689,35,-121.041,0\H,43,1.10186,40,112.718,35,116.289,0\C,26,1.58743,15,101.112,2,-116.814,0\H,46,1.10662,26,114.038,15,154.366,0\O,46,1.48108,26,103.523,15,34.0719,0\C,48,1.48006,46,95.0215,26,-56.4678,0\H,49,1.10734,48,110.641,46,-179.835,0\C,49,1.57875,48,103.802,46,-55.7975,0\H,51,1.10146,49,111.907,48,154.825,0\H,51,1.10158,49,110.411,48,-84.0672,0\C,51,1.57373,49,101.16,48,34.2591,0\H,54,1.10153,51,111.506,49,-116.778,0\H,54,1.10171,51,112.827,49,120.55,0\\\@

 Total job time:  53.56s(wall), 2549.57s(cpu) 
 Mon Jan 15 08:15:24 2018

        *************************************************************
        *                                                           *
        *  Thank you very much for using Q-Chem.  Have a nice day.  *
        *                                                           *
        *************************************************************


0 sent ACK to 0 
now end server 0 ... 
