mFile = /opt/software/qchem/qchem-5.0.1//bin/mpi/machines
Process 0 of 1 is on vega02.cac.cornell.edu - thread support 0
initial socket setup ...start
initial socket setup ...done 
now start server 0 ... 
vega02.cac.cornell.edu 10.84.3
Q-Chem Developer Version! Running on 10.84.3.*
                  Welcome to Q-Chem
     A Quantum Leap Into The Future Of Chemistry


 Q-Chem 5.0, Q-Chem, Inc., Pleasanton, CA (2017)

 Yihan Shao,  Zhengting Gan,  E. Epifanovsky,  A. T. B. Gilbert,  M. Wormit,  
 J. Kussmann,  A. W. Lange,  A. Behn,  Jia Deng,  Xintian Feng,  D. Ghosh,  
 M. Goldey,  P. R. Horn,  L. D. Jacobson,  I. Kaliman,  T. Kus,  A. Landau,  
 Jie Liu,  E. I. Proynov,  R. M. Richard,  R. P. Steele,  E. J. Sundstrom,  
 H. L. Woodcock III,  P. M. Zimmerman,  D. Zuev,  B. Albrecht,  E. Alguire,  
 S. A. Baeppler,  Z. Benda,  Y. A. Bernard,  E. J. Berquist,  K. B. Bravaya,  
 D. Casanova,  Chun-Min Chang,  Yunqing Chen,  A. Chien,  K. D. Closser,  
 M. P. Coons,  S. Dasgupta,  M. Diedenhofen,  Hainam Do,  R. G. Edgar,  
 Po-Tung Fang,  S. Fatehi,  Qingguo Feng,  Qinghui Ge,  A. Ghysels,  
 J. Gomes,  J. Gonthier,  A. Gunina,  M. W. D. Hanson-Heine,  
 P. H. P. Harbach,  A. W. Hauser,  J. E. Herr,  E. G. Hohenstein,  
 Z. C. Holden,  Kerwin Hui,  T.-C. Jagau,  Hyunjun Ji,  B. Kaduk,  
 K. Khistyaev,  Jaehoon Kim,  P. Klunzinger,  K. Koh,  D. Kosenkov,  
 T. Kowalczyk,  C. M. Krauter,  A. Kunitsa,  Ka Un Lao,  A. Laurent,  
 K. V. Lawler,  Joonho Lee,  D. Lefrancois,  S. Lehtola,  D. S. Levine,  
 Yi-Pei Li,  You-Sheng Lin,  Fenglai Liu,  E. Livshits,  A. Luenser,  
 P. Manohar,  E. Mansoor,  S. F. Manzer,  Shan-Ping Mao,  Yuezhi Mao,  
 N. Mardirossian,  A. V. Marenich,  L. A. Martinez-Martinez,  S. A. Maurer,  
 N. J. Mayhall,  S. C. McKenzie,  J.-M. Mewes,  A. F. Morrison,  K. Nanda,  
 T. S. Nguyen-Beck,  R. Olivares-Amaya,  J. A. Parkhill,  T. M. Perrine,  
 F. Plasser,  S. Prager,  A. Prociuk,  D. R. Rehn,  F. Rob,  M. Schneider,  
 N. Sergueev,  S. M. Sharada,  S. Sharma,  D. W. Small,  T. Stauch,  
 T. Stein,  Yu-Chuan Su,  A. J. W. Thom,  T. Tsuchimochi,  L. Vogt,  
 O. Vydrov,  M. A. Watson,  J. Wenzel,  M. de Wergifosse,  T. A. Wesolowski,  
 A. White,  J. Witte,  A. Yamada,  Jun Yang,  K. Yao,  S. Yeganeh,  
 S. R. Yost,  Zhi-Qiang You,  A. Zech,  Igor Ying Zhang,  Xing Zhang,  
 Yan Zhao,  Ying Zhu,  B. R. Brooks,  G. K. L. Chan,  C. J. Cramer,  
 M. S. Gordon,  W. J. Hehre,  A. Klamt,  M. W. Schmidt,  C. D. Sherrill,  
 D. G. Truhlar,  A. Aspuru-Guzik,  R. Baer,  A. T. Bell,  N. A. Besley,  
 Jeng-Da Chai,  A. Dreuw,  B. D. Dunietz,  T. R. Furlani,  Chao-Ping Hsu,  
 Yousung Jung,  Jing Kong,  D. S. Lambrecht,  WanZhen Liang,  C. Ochsenfeld,  
 V. A. Rassolov,  L. V. Slipchenko,  J. E. Subotnik,  T. Van Voorhis,  
 J. M. Herbert,  A. I. Krylov,  P. M. W. Gill,  M. Head-Gordon

 Contributors to earlier versions of Q-Chem not listed above: 
 R. D. Adamson,  B. Austin,  J. Baker,  G. J. O. Beran,  K. Brandhorst,  
 S. T. Brown,  E. F. C. Byrd,  A. K. Chakraborty,  C.-L. Cheng,  
 Siu Hung Chien,  D. M. Chipman,  D. L. Crittenden,  H. Dachsel,  
 R. A. DiStasio Jr.,  R. J. Doerksen,  A. D. Dutoi,  L. Fusti-Molnar,  
 W. A. Goddard III,  A. Golubeva-Zadorozhnaya,  S. R. Gwaltney,  G. Hawkins,  
 A. Heyden,  S. Hirata,  G. Kedziora,  F. J. Keil,  C. Kelley,  Jihan Kim,  
 R. A. King,  R. Z. Khaliullin,  P. P. Korambath,  W. Kurlancheek,  
 A. M. Lee,  M. S. Lee,  S. V. Levchenko,  Ching Yeh Lin,  D. Liotard,  
 R. C. Lochan,  I. Lotan,  P. E. Maslen,  N. Nair,  D. P. O'Neill,  
 D. Neuhauser,  E. Neuscamman,  C. M. Oana,  R. Olson,  B. Peters,  
 R. Peverati,  P. A. Pieniazek,  Y. M. Rhee,  J. Ritchie,  M. A. Rohrdanz,  
 E. Rosta,  N. J. Russ,  H. F. Schaefer III,  N. E. Schultz,  N. Shenvi,  
 A. C. Simmonett,  A. Sodt,  D. Stuck,  K. S. Thanthiriwatte,  V. Vanovschi,  
 Tao Wang,  A. Warshel,  C. F. Williams,  Q. Wu,  X. Xu,  W. Zhang

 Please cite Q-Chem as follows:
 Y. Shao et al., Mol. Phys. 113, 184-215 (2015)
 DOI: 10.1080/00268976.2014.952696

 Q-Chem 5.0.1 for Intel X86 EM64T Linux

 Parts of Q-Chem use Armadillo 5.200.1 (Boston Tea Smuggler).
 http://arma.sourceforge.net/

 Q-Chem begins on Mon Jan 15 08:19:52 2018  

Host: vega02.cac.cornell.edu
0

     Scratch files written to /scratch/jj585/SOT1001/0726c.save//
 Parallel job on  1  processors

Checking the input file for inconsistencies... 	...done.

--------------------------------------------------------------
User input:
--------------------------------------------------------------
$molecule
0  1
O -3.94934 -3.66094 2.70899
C -3.26408 -4.56952 2.26188
C -3.36658 -6.02376 2.66595
C -4.7785 -6.61395 2.81429
C -5.92685 -5.73529 2.37006
O -6.83738 -5.61538 3.38099
C -8.00026 -4.86954 3.00594
C -9.23777 -5.75883 3.06821
O -9.17888 -6.75261 2.03293
C -8.97462 -8.02459 2.45658
C -8.96393 -9.02651 1.32666
C -8.51693 -10.44185 1.72072
C -8.49425 -10.73787 3.20684
O -9.19913 -11.55797 3.77705
O -2.42126 -4.27679 1.23481
O -7.48478 -10.15383 3.91006
O -9.25262 -8.33575 3.6073
C -7.27275 -10.33109 5.26151
C -10.33633 -9.31203 0.69608
C -10.13354 -9.81641 -0.73434
C -9.55949 -11.19402 -0.46961
C -9.65783 -11.24461 1.05978
O -10.79292 -10.46587 1.35653
H -8.28675 -8.60053 0.55095
H -7.51744 -10.71538 1.31593
H -11.01652 -8.43279 0.70645
H -11.14214 -9.93296 -1.19071
H -9.51169 -9.16538 -1.3869
H -10.23352 -11.94904 -0.93167
H -8.51517 -11.35168 -0.81733
H -9.68855 -12.30202 1.40305
O -6.02604 -5.26121 1.24327
C -2.22769 -3.01289 0.71733
C -2.76847 -7.00953 1.63643
C -2.43461 -8.34357 2.3068
C -3.82004 -8.92444 2.49103
C -4.67086 -7.81933 1.86301
O -3.86303 -7.33667 0.81574
H -2.81938 -6.09267 3.63238
H -4.97037 -6.95684 3.85795
H -1.83963 -2.33282 1.50572
H -1.86274 -6.62777 1.11875
H -1.88623 -8.97306 1.56973
H -1.82954 -8.24617 3.23362
H -3.90179 -9.84528 1.87104
H -4.10655 -9.15243 3.54049
H -5.66695 -8.22112 1.57062
H -3.18215 -2.61388 0.31258
H -1.48476 -3.06646 -0.10465
H -6.3855 -9.74145 5.57072
H -7.08759 -11.40336 5.48554
H -8.1557 -9.97533 5.83453
H -9.31403 -6.14269 4.10903
H -10.14471 -5.14134 2.89585
H -7.97688 -4.38913 2.00271
H -8.11925 -4.04327 3.73876
$end

$opt
CONSTRAINT
tors           1           2           3           4     +43.158
tors           3           4           5           6    -126.306
tors           4           5           6           7    -176.059
tors           5           6           7           8    +116.447
tors           6           7           8           9     -68.575
tors           7           8           9          10    +110.044
tors           8           9          10          11    +178.277
tors           9          10          11          12    +170.715
tors          11          12          13          14    +115.644
ENDCONSTRAINT
$end

$rem
JOBTYPE                   OPT
METHOD                    B3LYP
DFT_D                     d3_op
BASIS                     STO-3G
GEOM_OPT_MAX_CYCLES       100
GEOM_OPT_TOL_GRADIENT     300
GEOM_OPT_TOL_DISPLACEMENT 1200
GEOM_OPT_TOL_ENERGY       100
SYMMETRY                  False
THRESH                    12
SCF_CONVERGENCE           8
MAX_SUB_FILE_NUM          128
MEM_STATIC                400
MEM_TOTAL                 4000
$end
--------------------------------------------------------------
 Adding empirical dispersion correction 
 ----------------------------------------------------------------
 Doing -D3(op) with
 s6 =   1.00000
 s8 =   0.78311
 a1 =   0.30000
 a2 =   4.25000
 n  =  10.00000
 -D3 energy without 3body term =     -0.0680002465 hartrees
 ----------------------------------------------------------------
             Standard Nuclear Orientation (Angstroms)
    I     Atom           X                Y                Z
 ----------------------------------------------------------------
    1      O       4.7105338644    -1.2987156177    -0.7089420023
    2      C       4.6554005649    -0.2243439807    -0.1278291553
    3      C       3.6507253491     0.8715930407    -0.4073690426
    4      C       2.1880478073     0.4470116362    -0.6174930959
    5      C       1.8622199017    -1.0055322437    -0.3490832150
    6      O       1.2439588343    -1.5512413902    -1.4378336611
    7      C       0.8225875451    -2.9030550157    -1.2274153605
    8      C      -0.6972630554    -2.9989556462    -1.3110961728
    9      O      -1.2924991039    -2.3271528139    -0.1898261785
   10      C      -1.9445853154    -1.1740112644    -0.4799687817
   11      C      -2.5826922867    -0.5379530698     0.7320240546
   12      C      -3.1396052141     0.8748828187     0.5039399851
   13      C      -3.3021094349     1.2954707979    -0.9429162646
   14      O      -4.3647201406     1.5453275774    -1.4933609451
   15      O       5.4848229271    -0.0389556917     0.9345262078
   16      O      -2.1480085359     1.5730698959    -1.6104794652
   17      O      -2.3502372929    -0.9727886219    -1.6171657679
   18      C      -2.0897666177     2.0064177729    -2.9187655301
   19      C      -3.8251902531    -1.2647551842     1.2710899657
   20      C      -3.9996680242    -0.9238847735     2.7526395651
   21      C      -4.4354797493     0.5248747272     2.6599641260
   22      C      -4.5342276473     0.6864348670     1.1383166472
   23      O      -4.9091472885    -0.5916209533     0.6812231766
   24      H      -1.7942060023    -0.5288767752     1.5194024371
   25      H      -2.5472542375     1.6677375447     1.0120301041
   26      H      -3.7875207940    -2.3663511344     1.1265343534
   27      H      -4.8532170452    -1.5284945609     3.1334709099
   28      H      -3.1093840550    -1.1070001948     3.3931356491
   29      H      -5.4390419070     0.6195448160     3.1308905053
   30      H      -3.7343169668     1.2644226542     3.1047222091
   31      H      -5.2307262162     1.5170355174     0.8895472309
   32      O       2.0816523780    -1.5672016654     0.7189163429
   33      C       6.4374259867    -0.9454364949     1.3511052156
   34      C       3.4757170423     1.8793145468     0.7516214466
   35      C       2.8852734888     3.1918139646     0.2327352872
   36      C       1.4491530825     2.7812200944    -0.0116778611
   37      C       1.4957857259     1.3216323447     0.4432956574
   38      O       2.4193802908     1.3372051598     1.5058656572
   39      H       4.0338050961     1.3876649194    -1.3157098908
   40      H       1.8277972090     0.7140588773    -1.6385313528
   41      H       7.1749873661    -1.1243272046     0.5395352025
   42      H       4.4134709263     2.0981162773     1.3055380185
   43      H       2.9011585067     3.9310440780     1.0655239610
   44      H       3.4188136080     3.6125643898    -0.6464096372
   45      H       0.7947213711     3.3584934620     0.6793297816
   46      H       1.0894242139     2.9012064092    -1.0564898716
   47      H       0.4707941673     0.9628858203     0.6878680198
   48      H       5.9549373102    -1.9037218992     1.6390621483
   49      H       6.9701576031    -0.5336754572     2.2326468896
   50      H      -1.0285549401     2.1546707060    -3.2057316594
   51      H      -2.6302907639     2.9706063186    -3.0301689197
   52      H      -2.5389049317     1.2448282637    -3.5916503604
   53      H      -0.9946870569    -2.6277412209    -2.3161877972
   54      H      -1.0023155852    -4.0660781144    -1.2694473404
   55      H       1.1411589046    -3.3770162098    -0.2725939632
   56      H       1.2628133791    -3.5214379413    -2.0384083677
 ----------------------------------------------------------------
 Molecular Point Group                 C1    NOp =  1
 Largest Abelian Subgroup              C1    NOp =  1
 Nuclear Repulsion Energy =  3274.7051474157 hartrees
 There are      113 alpha and      113 beta electrons
 Requested basis set is STO-3G
 There are 86 shells and 176 basis functions

 Total QAlloc Memory Limit   4000 MB
 Mega-Array Size       392 MB
 MEM_STATIC part       400 MB
 A cutoff of  1.0D-12 yielded   2386 shell pairs
 There are     11413 function pairs
 
 -------------------------------------------------------
 OpenMP Integral Computing Module                       
 Release: version 1.0, May 2013, Q-Chem Inc. Pittsburgh 
 -------------------------------------------------------
 Integral Job Info:
 Integral job number is                      11
 Integral operator is                         1
 short-range coefficients                     0
 long-range coefficients              100000000
 Omega coefficients                           0
 if combine SR and LR in K                    0
 Integral screening is                        0
 Integral computing path is                   2
 max size of driver memory is            800000
 size of driver memory is                 45569
 size of scratch memory is              1046100
 max col of scratch BK array                289
 max len of scratch array in speh3           22
 max len of scratch index in speh4            8
 max int batch size is                      520
 min int batch size is                       52
 fixed nKL is                                52
 max L of basis functions is                  1
 order of int derivative is                   0
 number of shells is                         86
 number of basis is                         176
 number of cartesian basis is               176
 number of contracted shell pairs          2386
 number of primitive shell pairs          11754
 maxK2 (contraction) of shell pair            9
 max number of K2 of shell pair               1
 max number of CS2 of shell pair            378
 max number of PS2 of shell pair           1284
 mem total for path MDJ                   49782
 -------------------------------------------------------
 Smallest overlap matrix eigenvalue = 1.93E-01

 Scale SEOQF with 1.000000e-02/1.000000e-01/1.000000e-01

 Standard Electronic Orientation quadrupole field applied
 Nucleus-field energy     =     0.0000000083 hartrees
 Guess from superposition of atomic densities
 Warning:  Energy on first SCF cycle will be non-variational
 A restricted hybrid HF-DFT SCF calculation will be
 performed using Pulay DIIS extrapolation
 Exchange:     0.2000 Hartree-Fock + 0.0800 Slater + 0.7200 B88
 Correlation:  0.1900 VWN1RPA + 0.8100 LYP
 Using SG-1 standard quadrature grid
 Dispersion:   Grimme D3
 SCF converges when DIIS error is below 1.0E-08
 using 48 threads for integral computing
 -------------------------------------------------------
 OpenMP Integral computing Module                
 Release: version 1.0, May 2013, Q-Chem Inc. Pittsburgh 
 -------------------------------------------------------
 -------------------------------------------------------
 OpenMP BLAS3 based DFT computing Module                
 Release: version 1.0, May 2013, Q-Chem Inc. Pittsburgh 
 -------------------------------------------------------
 ---------------------------------------
  Cycle       Energy         DIIS Error
 ---------------------------------------
    1   -1509.4578796435      8.29E-02
    2   -1509.6034288004      1.04E-02
    3   -1507.6042310410      2.51E-02
    4   -1510.0999850643      3.41E-03
    5   -1510.1456702427      1.21E-03
    6   -1510.1519963670      2.99E-04
    7   -1510.1523328394      1.23E-04
    8   -1510.1523948010      2.93E-05
    9   -1510.1523984010      8.03E-06
   10   -1510.1523986268      4.16E-06
   11   -1510.1523987016      8.29E-07
   12   -1510.1523987045      1.93E-07
   13   -1510.1523987046      1.02E-07
   14   -1510.1523987047      3.86E-08
   15   -1510.1523987047      6.95E-09 Convergence criterion met
 ---------------------------------------
 SCF time:  CPU 117.03 s  wall 2.49 s
 SCF   energy in the final basis set = -1510.15239870
 Total energy in the final basis set = -1510.15239870
 
 --------------------------------------------------------------
 
                    Orbital Energies (a.u.)
 --------------------------------------------------------------
 
 Alpha MOs
 -- Occupied --
-18.952 -18.949 -18.929 -18.915 -18.900 -18.899 -18.867 -18.865
-18.853 -18.844 -10.113 -10.110 -10.109 -10.102 -10.084 -10.080
-10.080 -10.072 -10.071 -10.068 -10.066 -10.065 -10.042 -10.040
-10.039 -10.036 -10.016 -10.016 -10.015 -10.015  -1.054  -1.044
 -1.040  -1.031  -1.023  -1.023  -0.956  -0.949  -0.943  -0.934
 -0.784  -0.782  -0.748  -0.741  -0.737  -0.726  -0.716  -0.678
 -0.674  -0.637  -0.609  -0.588  -0.557  -0.550  -0.538  -0.537
 -0.529  -0.524  -0.506  -0.493  -0.484  -0.478  -0.465  -0.460
 -0.448  -0.446  -0.440  -0.427  -0.424  -0.422  -0.420  -0.413
 -0.409  -0.394  -0.389  -0.382  -0.376  -0.373  -0.365  -0.356
 -0.355  -0.349  -0.342  -0.338  -0.337  -0.326  -0.325  -0.317
 -0.314  -0.311  -0.306  -0.301  -0.298  -0.292  -0.286  -0.279
 -0.278  -0.254  -0.247  -0.237  -0.235  -0.223  -0.216  -0.194
 -0.173  -0.168  -0.161  -0.157  -0.154  -0.150  -0.146  -0.138
 -0.131
 -- Virtual --
  0.098   0.106   0.126   0.130   0.240   0.246   0.257   0.270
  0.292   0.305   0.327   0.331   0.339   0.342   0.350   0.358
  0.369   0.373   0.376   0.386   0.391   0.394   0.395   0.400
  0.405   0.408   0.409   0.411   0.412   0.414   0.418   0.420
  0.428   0.435   0.437   0.442   0.445   0.448   0.456   0.458
  0.460   0.468   0.473   0.474   0.477   0.480   0.486   0.487
  0.492   0.494   0.504   0.519   0.535   0.538   0.548   0.561
  0.563   0.578   0.580   0.681   0.686   0.699   0.702
 --------------------------------------------------------------
 
          Ground-State Mulliken Net Atomic Charges

     Atom                 Charge (a.u.)
  ----------------------------------------
      1 O                    -0.238814
      2 C                     0.239066
      3 C                    -0.080659
      4 C                    -0.081443
      5 C                     0.235942
      6 O                    -0.182624
      7 C                    -0.043307
      8 C                    -0.040291
      9 O                    -0.191026
     10 C                     0.232275
     11 C                    -0.082575
     12 C                    -0.081360
     13 C                     0.245234
     14 O                    -0.236701
     15 O                    -0.211102
     16 O                    -0.217120
     17 O                    -0.225946
     18 C                    -0.096680
     19 C                     0.039947
     20 C                    -0.140691
     21 C                    -0.144386
     22 C                     0.042286
     23 O                    -0.206384
     24 H                     0.084056
     25 H                     0.085173
     26 H                     0.086913
     27 H                     0.075989
     28 H                     0.074171
     29 H                     0.076686
     30 H                     0.071904
     31 H                     0.091449
     32 O                    -0.226321
     33 C                    -0.097114
     34 C                     0.039714
     35 C                    -0.143371
     36 C                    -0.142451
     37 C                     0.041680
     38 O                    -0.207767
     39 H                     0.087227
     40 H                     0.085692
     41 H                     0.084834
     42 H                     0.092345
     43 H                     0.074353
     44 H                     0.071043
     45 H                     0.074320
     46 H                     0.073247
     47 H                     0.081148
     48 H                     0.090531
     49 H                     0.093853
     50 H                     0.087050
     51 H                     0.082301
     52 H                     0.090867
     53 H                     0.103287
     54 H                     0.090830
     55 H                     0.103491
     56 H                     0.089228
  ----------------------------------------
  Sum of atomic charges =    -0.000000

 -----------------------------------------------------------------
                    Cartesian Multipole Moments
 -----------------------------------------------------------------
    Charge (ESU x 10^10)
                -0.0000
    Dipole Moment (Debye)
         X       2.4407      Y       0.7790      Z       0.4952
       Tot       2.6095
    Quadrupole Moments (Debye-Ang)
        XX    -167.9307     XY       5.7580     YY    -149.4586
        XZ      -9.9209     YZ       0.3888     ZZ    -158.6709
    Octopole Moments (Debye-Ang^2)
       XXX     190.6354    XXY       4.1068    XYY      -2.7799
       YYY     -40.7935    XXZ      70.0610    XYZ     -16.1033
       YYZ     -20.3739    XZZ      -3.4908    YZZ      -3.5642
       ZZZ     -26.8131
    Hexadecapole Moments (Debye-Ang^3)
      XXXX  -10881.0763   XXXY     -34.9432   XXYY   -2309.4895
      XYYY     -25.5776   YYYY   -2681.2332   XXXZ      43.7856
      XXYZ     -40.4396   XYYZ      31.6417   YYYZ      54.8533
      XXZZ   -2130.9575   XYZZ     -15.3955   YYZZ    -752.4376
      XZZZ      81.8642   YZZZ     -25.5817   ZZZZ   -1917.3896
 -----------------------------------------------------------------
 Calculating analytic gradient of the SCF energy
 Gradient of SCF Energy
            1           2           3           4           5           6
    1   0.0058902  -0.0008532  -0.0230413   0.0120346  -0.0178605   0.0140459
    2   0.0567746   0.0339676  -0.0323208  -0.0095694  -0.0183945  -0.0058287
    3   0.0491437  -0.0070031   0.0243539   0.0495288  -0.0164009   0.0418498
            7           8           9          10          11          12
    1  -0.0144571   0.0112269  -0.0346853   0.0433263  -0.0629759  -0.0291118
    2   0.0462521   0.0198132   0.0369351  -0.0024462  -0.0109813  -0.0222828
    3  -0.0010074   0.0316088  -0.0536535   0.0094018  -0.0380659  -0.0217808
           13          14          15          16          17          18
    1   0.0136021   0.0678815   0.0248132  -0.0952797   0.0122992   0.0232370
    2  -0.0083625  -0.0053523  -0.1147229   0.0181725  -0.0275371  -0.0139300
    3   0.0249238   0.0212917  -0.0457441  -0.0771262   0.0686715   0.0495817
           19          20          21          22          23          24
    1  -0.0278415  -0.0052155   0.0062554   0.0206498   0.0655941   0.0063472
    2   0.0627647   0.0296764  -0.0306502  -0.0711087   0.0272849  -0.0021643
    3  -0.0129768  -0.0436604  -0.0340867  -0.0024290   0.0493879   0.0014449
           25          26          27          28          29          30
    1   0.0004164   0.0073933  -0.0107740   0.0058854  -0.0090180   0.0060855
    2   0.0073449  -0.0043586  -0.0009438  -0.0003861  -0.0084716   0.0070376
    3  -0.0002982   0.0096834  -0.0008093   0.0065299   0.0041912  -0.0001624
           31          32          33          34          35          36
    1   0.0023055  -0.0066784  -0.0300535  -0.0649060  -0.0209682   0.0389954
    2   0.0102932   0.0298030   0.0498048  -0.0261604  -0.0466965  -0.0275534
    3   0.0104742  -0.0406146   0.0031431   0.0017967   0.0057290   0.0175015
           37          38          39          40          41          42
    1   0.0667559   0.0072895   0.0041379  -0.0044927  -0.0046473   0.0046967
    2   0.0098241   0.0255314   0.0005113   0.0035395   0.0077828   0.0134072
    3   0.0153255  -0.0823016  -0.0032449  -0.0069570  -0.0018902  -0.0065198
           43          44          45          46          47          48
    1  -0.0061384   0.0040218   0.0010655  -0.0022680  -0.0082247  -0.0057052
    2   0.0025333   0.0027157   0.0057566  -0.0003520   0.0042576   0.0064263
    3   0.0102324  -0.0063474   0.0108825  -0.0081196  -0.0093387  -0.0000833
           49          50          51          52          53          54
    1   0.0025146  -0.0002822   0.0018053   0.0015175   0.0105169  -0.0007546
    2  -0.0026566   0.0009457  -0.0020232  -0.0034958  -0.0086034   0.0009500
    3   0.0006952  -0.0033519   0.0087396   0.0076593  -0.0063483  -0.0025633
           55          56
    1  -0.0071869   0.0008133
    2  -0.0132873   0.0005342
    3  -0.0032311   0.0023446
 Max gradient component =       1.147E-01
 RMS gradient           =       2.816E-02
 Gradient time:  CPU 32.37 s  wall 0.70 s
 Geometry Optimization Parameters
   NAtoms,    NIC,     NZ,  NCons,   NDum,   NFix, NCnnct, MaxDiis
       56     458       0       9       0       0       0       0


** CONSTRAINED OPTIMIZATION IN DELOCALIZED INTERNAL COORDINATES **
   Searching for a Minimum

   Optimization Cycle:   1

                       Coordinates (Angstroms)
     ATOM                X               Y               Z
      1  O         4.7105338644   -1.2987156177   -0.7089420023
      2  C         4.6554005649   -0.2243439807   -0.1278291553
      3  C         3.6507253491    0.8715930407   -0.4073690426
      4  C         2.1880478073    0.4470116362   -0.6174930959
      5  C         1.8622199017   -1.0055322437   -0.3490832150
      6  O         1.2439588343   -1.5512413902   -1.4378336611
      7  C         0.8225875451   -2.9030550157   -1.2274153605
      8  C        -0.6972630554   -2.9989556462   -1.3110961728
      9  O        -1.2924991039   -2.3271528139   -0.1898261785
     10  C        -1.9445853154   -1.1740112644   -0.4799687817
     11  C        -2.5826922867   -0.5379530698    0.7320240546
     12  C        -3.1396052141    0.8748828187    0.5039399851
     13  C        -3.3021094349    1.2954707979   -0.9429162646
     14  O        -4.3647201406    1.5453275774   -1.4933609451
     15  O         5.4848229271   -0.0389556917    0.9345262078
     16  O        -2.1480085359    1.5730698959   -1.6104794652
     17  O        -2.3502372929   -0.9727886219   -1.6171657679
     18  C        -2.0897666177    2.0064177729   -2.9187655301
     19  C        -3.8251902531   -1.2647551842    1.2710899657
     20  C        -3.9996680242   -0.9238847735    2.7526395651
     21  C        -4.4354797493    0.5248747272    2.6599641260
     22  C        -4.5342276473    0.6864348670    1.1383166472
     23  O        -4.9091472885   -0.5916209533    0.6812231766
     24  H        -1.7942060023   -0.5288767752    1.5194024371
     25  H        -2.5472542375    1.6677375447    1.0120301041
     26  H        -3.7875207940   -2.3663511344    1.1265343534
     27  H        -4.8532170452   -1.5284945609    3.1334709099
     28  H        -3.1093840550   -1.1070001948    3.3931356491
     29  H        -5.4390419070    0.6195448160    3.1308905053
     30  H        -3.7343169668    1.2644226542    3.1047222091
     31  H        -5.2307262162    1.5170355174    0.8895472309
     32  O         2.0816523780   -1.5672016654    0.7189163429
     33  C         6.4374259867   -0.9454364949    1.3511052156
     34  C         3.4757170423    1.8793145468    0.7516214466
     35  C         2.8852734888    3.1918139646    0.2327352872
     36  C         1.4491530825    2.7812200944   -0.0116778611
     37  C         1.4957857259    1.3216323447    0.4432956574
     38  O         2.4193802908    1.3372051598    1.5058656572
     39  H         4.0338050961    1.3876649194   -1.3157098908
     40  H         1.8277972090    0.7140588773   -1.6385313528
     41  H         7.1749873661   -1.1243272046    0.5395352025
     42  H         4.4134709263    2.0981162773    1.3055380185
     43  H         2.9011585067    3.9310440780    1.0655239610
     44  H         3.4188136080    3.6125643898   -0.6464096372
     45  H         0.7947213711    3.3584934620    0.6793297816
     46  H         1.0894242139    2.9012064092   -1.0564898716
     47  H         0.4707941673    0.9628858203    0.6878680198
     48  H         5.9549373102   -1.9037218992    1.6390621483
     49  H         6.9701576031   -0.5336754572    2.2326468896
     50  H        -1.0285549401    2.1546707060   -3.2057316594
     51  H        -2.6302907639    2.9706063186   -3.0301689197
     52  H        -2.5389049317    1.2448282637   -3.5916503604
     53  H        -0.9946870569   -2.6277412209   -2.3161877972
     54  H        -1.0023155852   -4.0660781144   -1.2694473404
     55  H         1.1411589046   -3.3770162098   -0.2725939632
     56  H         1.2628133791   -3.5214379413   -2.0384083677
   Point Group: c1    Number of degrees of freedom:   162


   Energy is  -1510.152398705

              Constraints and their Current Values
                                        Value     Constraint
   Dihedral:        1   2   3   4       43.158       43.158
   Dihedral:        3   4   5   6     -126.305     -126.306
   Dihedral:        4   5   6   7     -176.059     -176.059
   Dihedral:        5   6   7   8      116.447      116.447
   Dihedral:        6   7   8   9      -68.574      -68.575
   Dihedral:        7   8   9  10      110.044      110.044
   Dihedral:        8   9  10  11      178.276      178.277
   Dihedral:        9  10  11  12      170.715      170.715
   Dihedral:       11  12  13  14      115.643      115.644

 Attempting to Generate Delocalized Internal Coordinates

   Using Lagrange Multiplier Algorithm


171 Hessian modes will be used to form the next step
  Hessian Eigenvalues:
    -0.977753   -0.977753   -0.977753   -0.977753   -0.977753   -0.977753
    -0.977753   -0.977753   -0.977753    0.045000    0.045000    0.045000
     0.045000    0.045038    0.045152    0.045322    0.045544    0.045585
     0.047659    0.048864    0.048874    0.054405    0.059984    0.060001
     0.062437    0.062481    0.066979    0.067138    0.067465    0.067802
     0.069626    0.070702    0.071600    0.073814    0.074127    0.075794
     0.075927    0.077210    0.077228    0.082383    0.082417    0.083519
     0.083851    0.084364    0.084490    0.085399    0.085706    0.086739
     0.086831    0.087065    0.087233    0.088393    0.088529    0.089098
     0.089342    0.089757    0.089824    0.093509    0.093848    0.096569
     0.096678    0.111550    0.111655    0.114638    0.114644    0.115898
     0.115910    0.117043    0.117746    0.117786    0.118468    0.118817
     0.121841    0.122232    0.129995    0.131479    0.131518    0.140809
     0.141137    0.160000    0.160000    0.160000    0.160000    0.160000
     0.160000    0.171553    0.172004    0.173102    0.173263    0.219824
     0.219869    0.230225    0.240932    0.241625    0.248674    0.249364
     0.249653    0.250000    0.250000    0.250000    0.250000    0.250000
     0.250000    0.250000    0.250000    0.258314    0.258975    0.266663
     0.267711    0.278130    0.279640    0.283390    0.284926    0.294128
     0.296134    0.298740    0.308056    0.310698    0.310862    0.313313
     0.320583    0.321446    0.322150    0.322674    0.322679    0.322728
     0.323129    0.323266    0.323295    0.323369    0.323727    0.323927
     0.323973    0.323974    0.324230    0.324417    0.324790    0.324815
     0.324850    0.324984    0.325058    0.325084    0.325141    0.325314
     0.326765    0.326781    0.368141    0.368752    0.383383    0.383892
     0.401015    0.407727    0.492088    0.492152    0.517913    0.525742
     0.528504    0.537340    0.925701    0.936177    0.941950    0.942747
     1.022753    1.022753    1.022753    1.022753    1.022753    1.022753
     1.022753    1.022753    1.022753

 Minimum Search - Taking P-RFO Step
 Searching for Lamda that Maximizes Along the Constraint modes Only
 Value Taken    Lamda =   0.00060760
 Searching for Lamda that Minimizes Along All other modes
 Value Taken    Lamda =  -0.16870660
 Calculated Step too Large.  Step scaled by  0.518957
 Step Taken.  Stepsize is  0.300000

                             Maximum     Tolerance    Cnvgd?
         Gradient            0.113453       0.000300      NO
         Displacement        0.100070       0.001200      NO
         Energy change     *********       0.000001      NO


 New Cartesian Coordinates Obtained by Inverse Iteration

 Displacement from previous Coordinates is:  0.951488
 Adding empirical dispersion correction 
 ----------------------------------------------------------------
 Doing -D3(op) with
 s6 =   1.00000
 s8 =   0.78311
 a1 =   0.30000
 a2 =   4.25000
 n  =  10.00000
 -D3 energy without 3body term =     -0.0679174121 hartrees
 ----------------------------------------------------------------
             Standard Nuclear Orientation (Angstroms)
    I     Atom           X                Y                Z
 ----------------------------------------------------------------
    1      O       4.7012662658    -1.3404103418    -0.6872851170
    2      C       4.6600261931    -0.2403689662    -0.1148587487
    3      C       3.6601080110     0.8777568459    -0.4242111971
    4      C       2.1842742281     0.4404414338    -0.6346986641
    5      C       1.8704405307    -1.0307043015    -0.3338640234
    6      O       1.2511749387    -1.6045779300    -1.4366802200
    7      C       0.8325351064    -2.9721171132    -1.2184701088
    8      C      -0.7050288115    -3.0583168830    -1.3165911949
    9      O      -1.2995607425    -2.3689937813    -0.1910525442
   10      C      -1.9480164664    -1.1875255064    -0.5074674913
   11      C      -2.5794447735    -0.5541331929     0.7354023433
   12      C      -3.1378352596     0.8832823858     0.5334750879
   13      C      -3.2857083873     1.3438322955    -0.9242945144
   14      O      -4.3554118434     1.6132690214    -1.4900595839
   15      O       5.4790798954     0.0120051467     0.9666901373
   16      O      -2.0760153808     1.6226112235    -1.5320518321
   17      O      -2.3382025783    -0.9554396490    -1.6635517338
   18      C      -2.0349533888     2.0926828047    -2.8565625148
   19      C      -3.8486885570    -1.2981977218     1.2548714116
   20      C      -4.0229034872    -0.9799900715     2.7629491308
   21      C      -4.4547610425     0.4966144405     2.6953589061
   22      C      -4.5570148875     0.6931811515     1.1564293503
   23      O      -4.9476025879    -0.5950438199     0.6608026909
   24      H      -1.7989252624    -0.5679682249     1.5262928128
   25      H      -2.5444422630     1.6573307165     1.0624351813
   26      H      -3.8214844300    -2.3934992663     1.0779497167
   27      H      -4.8736730657    -1.5858530296     3.1340301935
   28      H      -3.1362118191    -1.1823237743     3.3943429542
   29      H      -5.4522742467     0.5980275128     3.1656433621
   30      H      -3.7496944113     1.2168981010     3.1536127076
   31      H      -5.2456433377     1.5286834806     0.9119165675
   32      O       2.0891583353    -1.5903074621     0.7497938990
   33      C       6.4268514141    -0.9397805975     1.3848733442
   34      C       3.4861957548     1.9236016438     0.7246803088
   35      C       2.8920748318     3.2377844205     0.1501107725
   36      C       1.4321605412     2.8139483705    -0.0928697020
   37      C       1.4727907599     1.3497048531     0.4181928775
   38      O       2.4066259820     1.3940806222     1.5059235412
   39      H       4.0466118454     1.3730789487    -1.3396820049
   40      H       1.8286151793     0.6806491303    -1.6587086754
   41      H       7.1621224529    -1.1559830452     0.5780572924
   42      H       4.4207610630     2.1411204542     1.2807484937
   43      H       2.9102626397     4.0039479861     0.9509945436
   44      H       3.4292002182     3.6250750126    -0.7365937520
   45      H       0.7717974402     3.4109125724     0.5668693968
   46      H       1.0810501776     2.8985014406    -1.1391553264
   47      H       0.4528229113     0.9917875748     0.6741696779
   48      H       5.9337660145    -1.8898211017     1.6884185208
   49      H       6.9715983937    -0.5276630691     2.2583187266
   50      H      -0.9737579884     2.2491963909    -3.1375834032
   51      H      -2.5774327557     3.0588681932    -2.9604391941
   52      H      -2.4813242920     1.3514123897    -3.5560712560
   53      H      -1.0133707040    -2.6844545569    -2.3173731108
   54      H      -1.0187251707    -4.1230586020    -1.2670924042
   55      H       1.1591857446    -3.4270180647    -0.2576705694
   56      H       1.2766550611    -3.5959123326    -2.0244659669
 ----------------------------------------------------------------
 Molecular Point Group                 C1    NOp =  1
 Largest Abelian Subgroup              C1    NOp =  1
 Nuclear Repulsion Energy =  3248.7184285977 hartrees
 There are      113 alpha and      113 beta electrons
 Applying Cartesian multipole field
    Component          Value
    ---------          -----
     (2,0,0)        1.00000E-12
     (0,2,0)        2.00000E-11
     (0,0,2)       -3.00000E-11
 Nucleus-field energy     =     0.0000000103 hartrees
 Requested basis set is STO-3G
 There are 86 shells and 176 basis functions
 A cutoff of  1.0D-12 yielded   2376 shell pairs
 There are     11373 function pairs
 Smallest overlap matrix eigenvalue = 2.02E-01
 Guess MOs from SCF MO coefficient file
 Reading MOs from coefficient file
 Reading MOs from coefficient file
 A restricted hybrid HF-DFT SCF calculation will be
 performed using Pulay DIIS extrapolation
 Exchange:     0.2000 Hartree-Fock + 0.0800 Slater + 0.7200 B88
 Correlation:  0.1900 VWN1RPA + 0.8100 LYP
 Using SG-1 standard quadrature grid
 Dispersion:   Grimme D3
 SCF converges when DIIS error is below 1.0E-08
 Geometry optimization detected.  Setting ReadMinima to 0
 Setting SaveMinima to 0
 using 48 threads for integral computing
 -------------------------------------------------------
 OpenMP Integral computing Module                
 Release: version 1.0, May 2013, Q-Chem Inc. Pittsburgh 
 -------------------------------------------------------
 -------------------------------------------------------
 OpenMP BLAS3 based DFT computing Module                
 Release: version 1.0, May 2013, Q-Chem Inc. Pittsburgh 
 -------------------------------------------------------
 ---------------------------------------
  Cycle       Energy         DIIS Error
 ---------------------------------------
    1   -1510.0489503431      3.21E-03
    2   -1510.2181840404      9.47E-04
    3   -1510.2123985287      1.51E-03
    4   -1510.2218833432      3.03E-04
    5   -1510.2223127780      5.54E-05
    6   -1510.2223266963      1.50E-05
    7   -1510.2223271741      1.15E-05
    8   -1510.2223277359      2.49E-06
    9   -1510.2223277668      4.54E-07
   10   -1510.2223277675      2.82E-07
   11   -1510.2223277678      1.28E-07
   12   -1510.2223277678      2.21E-08
   13   -1510.2223277679      1.18E-08
   14   -1510.2223277679      6.43E-09 Convergence criterion met
 ---------------------------------------
 SCF time:  CPU 101.10 s  wall 2.11 s
 SCF   energy in the final basis set = -1510.22232777
 Total energy in the final basis set = -1510.22232777
 
 --------------------------------------------------------------
 
                    Orbital Energies (a.u.)
 --------------------------------------------------------------
 
 Alpha MOs
 -- Occupied --
-18.945 -18.945 -18.934 -18.920 -18.897 -18.896 -18.869 -18.865
-18.857 -18.849 -10.107 -10.105 -10.104 -10.097 -10.081 -10.078
-10.076 -10.068 -10.067 -10.065 -10.062 -10.062 -10.041 -10.039
-10.037 -10.036 -10.017 -10.017 -10.016 -10.015  -1.039  -1.031
 -1.026  -1.019  -1.003  -1.002  -0.948  -0.942  -0.938  -0.930
 -0.775  -0.773  -0.739  -0.733  -0.729  -0.717  -0.708  -0.672
 -0.669  -0.630  -0.605  -0.584  -0.552  -0.547  -0.536  -0.535
 -0.524  -0.520  -0.499  -0.487  -0.477  -0.470  -0.458  -0.455
 -0.442  -0.440  -0.433  -0.422  -0.419  -0.417  -0.414  -0.409
 -0.404  -0.388  -0.384  -0.375  -0.371  -0.366  -0.360  -0.351
 -0.350  -0.345  -0.340  -0.339  -0.335  -0.325  -0.324  -0.315
 -0.310  -0.307  -0.303  -0.298  -0.296  -0.290  -0.283  -0.275
 -0.274  -0.252  -0.247  -0.237  -0.235  -0.230  -0.225  -0.191
 -0.173  -0.168  -0.162  -0.155  -0.152  -0.148  -0.148  -0.141
 -0.135
 -- Virtual --
  0.092   0.101   0.119   0.122   0.236   0.243   0.253   0.263
  0.281   0.295   0.314   0.318   0.331   0.339   0.344   0.350
  0.361   0.363   0.366   0.379   0.381   0.384   0.385   0.390
  0.394   0.397   0.398   0.404   0.408   0.411   0.413   0.416
  0.423   0.426   0.429   0.433   0.436   0.438   0.441   0.442
  0.450   0.454   0.459   0.466   0.470   0.471   0.472   0.475
  0.486   0.488   0.490   0.495   0.510   0.523   0.527   0.549
  0.552   0.562   0.563   0.657   0.662   0.673   0.680
 --------------------------------------------------------------
 
          Ground-State Mulliken Net Atomic Charges

     Atom                 Charge (a.u.)
  ----------------------------------------
      1 O                    -0.229738
      2 C                     0.226948
      3 C                    -0.079609
      4 C                    -0.080119
      5 C                     0.226027
      6 O                    -0.179453
      7 C                    -0.045073
      8 C                    -0.043184
      9 O                    -0.185080
     10 C                     0.220995
     11 C                    -0.080988
     12 C                    -0.080296
     13 C                     0.232678
     14 O                    -0.227579
     15 O                    -0.196901
     16 O                    -0.203537
     17 O                    -0.217718
     18 C                    -0.104784
     19 C                     0.035127
     20 C                    -0.141900
     21 C                    -0.145182
     22 C                     0.036841
     23 O                    -0.197541
     24 H                     0.084570
     25 H                     0.084466
     26 H                     0.086404
     27 H                     0.076256
     28 H                     0.074940
     29 H                     0.076723
     30 H                     0.072519
     31 H                     0.090700
     32 O                    -0.220848
     33 C                    -0.105430
     34 C                     0.034540
     35 C                    -0.144321
     36 C                    -0.143065
     37 C                     0.036609
     38 O                    -0.199160
     39 H                     0.085966
     40 H                     0.086232
     41 H                     0.085367
     42 H                     0.092252
     43 H                     0.074750
     44 H                     0.071633
     45 H                     0.075002
     46 H                     0.073696
     47 H                     0.081828
     48 H                     0.091055
     49 H                     0.093553
     50 H                     0.086695
     51 H                     0.082981
     52 H                     0.091324
     53 H                     0.102351
     54 H                     0.089471
     55 H                     0.102670
     56 H                     0.088336
  ----------------------------------------
  Sum of atomic charges =    -0.000000

 -----------------------------------------------------------------
                    Cartesian Multipole Moments
 -----------------------------------------------------------------
    Charge (ESU x 10^10)
                -0.0000
    Dipole Moment (Debye)
         X       2.4514      Y       0.7151      Z       0.4354
       Tot       2.5904
    Quadrupole Moments (Debye-Ang)
        XX    -166.7666     XY       5.4127     YY    -149.0385
        XZ      -9.7619     YZ       0.0244     ZZ    -158.5045
    Octopole Moments (Debye-Ang^2)
       XXX     193.8407    XXY       1.2994    XYY      -2.9648
       YYY     -41.7086    XXZ      69.0917    XYZ     -16.7514
       YYZ     -21.6285    XZZ      -3.7888    YZZ      -3.8349
       ZZZ     -26.4696
    Hexadecapole Moments (Debye-Ang^3)
      XXXX  -10857.8058   XXXY     -57.3627   XXYY   -2324.9798
      XYYY     -31.5585   YYYY   -2779.9061   XXXZ      70.1088
      XXYZ     -36.2551   XYYZ      36.8780   YYYZ      68.6431
      XXZZ   -2124.6275   XYZZ     -20.5906   YYZZ    -769.2313
      XZZZ      97.0962   YZZZ     -15.2689   ZZZZ   -1910.8319
 -----------------------------------------------------------------
 Calculating analytic gradient of the SCF energy
 Gradient of SCF Energy
            1           2           3           4           5           6
    1   0.0017404   0.0027831  -0.0162862   0.0097339  -0.0125564   0.0069094
    2   0.0231813   0.0390498  -0.0232608  -0.0057021  -0.0087494  -0.0058179
    3   0.0225201   0.0001913   0.0152780   0.0291351  -0.0176676   0.0263915
            7           8           9          10          11          12
    1  -0.0085065   0.0049296  -0.0199876   0.0416815  -0.0430049  -0.0163699
    2   0.0320756   0.0156300   0.0171623   0.0029246  -0.0085470  -0.0104806
    3   0.0010496   0.0220400  -0.0365729   0.0197642  -0.0247796  -0.0142099
           13          14          15          16          17          18
    1   0.0222325   0.0289287   0.0160847  -0.0645406  -0.0018945   0.0183638
    2  -0.0103667   0.0000045  -0.0798566   0.0138458  -0.0163138  -0.0113242
    3   0.0224684   0.0098230  -0.0281065  -0.0551618   0.0312115   0.0378369
           19          20          21          22          23          24
    1  -0.0195366   0.0002210   0.0035366   0.0088785   0.0388722   0.0042630
    2   0.0372999   0.0157269  -0.0139759  -0.0459904   0.0167279  -0.0019038
    3  -0.0113403  -0.0235508  -0.0182773  -0.0063876   0.0303710   0.0008756
           25          26          27          28          29          30
    1  -0.0004403   0.0066864  -0.0069212   0.0023278  -0.0053076   0.0029487
    2   0.0055210  -0.0032253  -0.0000044  -0.0010464  -0.0066209   0.0048031
    3  -0.0010964   0.0086225  -0.0014492   0.0048238   0.0022197  -0.0004853
           31          32          33          34          35          36
    1   0.0031176  -0.0023805  -0.0217622  -0.0391073  -0.0088344   0.0191566
    2   0.0084034   0.0163422   0.0390256  -0.0190530  -0.0250115  -0.0152703
    3   0.0093720  -0.0184145   0.0024707   0.0061444   0.0022941   0.0081783
           37          38          39          40          41          42
    1   0.0407635   0.0047462   0.0033626  -0.0030263  -0.0011514   0.0039154
    2   0.0046154   0.0138945  -0.0001236   0.0025818   0.0041032   0.0108041
    3   0.0144132  -0.0501787  -0.0017216  -0.0038142  -0.0016351  -0.0067129
           43          44          45          46          47          48
    1  -0.0044990   0.0026575   0.0017431  -0.0020647  -0.0061163  -0.0032231
    2   0.0008343   0.0025193   0.0036007  -0.0002055   0.0035758   0.0024511
    3   0.0065081  -0.0029422   0.0071033  -0.0042162  -0.0087477   0.0007603
           49          50          51          52          53          54
    1   0.0025916   0.0001502   0.0007499   0.0006762   0.0070987  -0.0008176
    2  -0.0024199   0.0010385   0.0001085  -0.0027082  -0.0082599   0.0006838
    3   0.0010578  -0.0033212   0.0043013   0.0030191  -0.0053742  -0.0027443
           55          56
    1  -0.0042559   0.0007398
    2  -0.0116270  -0.0006696
    3  -0.0033877   0.0020507
 Max gradient component =       7.986E-02
 RMS gradient           =       1.814E-02
 Gradient time:  CPU 32.01 s  wall 0.67 s
 Geometry Optimization Parameters
   NAtoms,    NIC,     NZ,  NCons,   NDum,   NFix, NCnnct, MaxDiis
       56     458       0       9       0       0       0       0

 Cartesian Hessian Update
 Hessian Updated using BFGS Update


** CONSTRAINED OPTIMIZATION IN DELOCALIZED INTERNAL COORDINATES **
   Searching for a Minimum

   Optimization Cycle:   2

                       Coordinates (Angstroms)
     ATOM                X               Y               Z
      1  O         4.7012662658   -1.3404103418   -0.6872851170
      2  C         4.6600261931   -0.2403689662   -0.1148587487
      3  C         3.6601080110    0.8777568459   -0.4242111971
      4  C         2.1842742281    0.4404414338   -0.6346986641
      5  C         1.8704405307   -1.0307043015   -0.3338640234
      6  O         1.2511749387   -1.6045779300   -1.4366802200
      7  C         0.8325351064   -2.9721171132   -1.2184701088
      8  C        -0.7050288115   -3.0583168830   -1.3165911949
      9  O        -1.2995607425   -2.3689937813   -0.1910525442
     10  C        -1.9480164664   -1.1875255064   -0.5074674913
     11  C        -2.5794447735   -0.5541331929    0.7354023433
     12  C        -3.1378352596    0.8832823858    0.5334750879
     13  C        -3.2857083873    1.3438322955   -0.9242945144
     14  O        -4.3554118434    1.6132690214   -1.4900595839
     15  O         5.4790798954    0.0120051467    0.9666901373
     16  O        -2.0760153808    1.6226112235   -1.5320518321
     17  O        -2.3382025783   -0.9554396490   -1.6635517338
     18  C        -2.0349533888    2.0926828047   -2.8565625148
     19  C        -3.8486885570   -1.2981977218    1.2548714116
     20  C        -4.0229034872   -0.9799900715    2.7629491308
     21  C        -4.4547610425    0.4966144405    2.6953589061
     22  C        -4.5570148875    0.6931811515    1.1564293503
     23  O        -4.9476025879   -0.5950438199    0.6608026909
     24  H        -1.7989252624   -0.5679682249    1.5262928128
     25  H        -2.5444422630    1.6573307165    1.0624351813
     26  H        -3.8214844300   -2.3934992663    1.0779497167
     27  H        -4.8736730657   -1.5858530296    3.1340301935
     28  H        -3.1362118191   -1.1823237743    3.3943429542
     29  H        -5.4522742467    0.5980275128    3.1656433621
     30  H        -3.7496944113    1.2168981010    3.1536127076
     31  H        -5.2456433377    1.5286834806    0.9119165675
     32  O         2.0891583353   -1.5903074621    0.7497938990
     33  C         6.4268514141   -0.9397805975    1.3848733442
     34  C         3.4861957548    1.9236016438    0.7246803088
     35  C         2.8920748318    3.2377844205    0.1501107725
     36  C         1.4321605412    2.8139483705   -0.0928697020
     37  C         1.4727907599    1.3497048531    0.4181928775
     38  O         2.4066259820    1.3940806222    1.5059235412
     39  H         4.0466118454    1.3730789487   -1.3396820049
     40  H         1.8286151793    0.6806491303   -1.6587086754
     41  H         7.1621224529   -1.1559830452    0.5780572924
     42  H         4.4207610630    2.1411204542    1.2807484937
     43  H         2.9102626397    4.0039479861    0.9509945436
     44  H         3.4292002182    3.6250750126   -0.7365937520
     45  H         0.7717974402    3.4109125724    0.5668693968
     46  H         1.0810501776    2.8985014406   -1.1391553264
     47  H         0.4528229113    0.9917875748    0.6741696779
     48  H         5.9337660145   -1.8898211017    1.6884185208
     49  H         6.9715983937   -0.5276630691    2.2583187266
     50  H        -0.9737579884    2.2491963909   -3.1375834032
     51  H        -2.5774327557    3.0588681932   -2.9604391941
     52  H        -2.4813242920    1.3514123897   -3.5560712560
     53  H        -1.0133707040   -2.6844545569   -2.3173731108
     54  H        -1.0187251707   -4.1230586020   -1.2670924042
     55  H         1.1591857446   -3.4270180647   -0.2576705694
     56  H         1.2766550611   -3.5959123326   -2.0244659669
   Point Group: c1    Number of degrees of freedom:   162


   Energy is  -1510.222327768

              Constraints and their Current Values
                                        Value     Constraint
   Dihedral:        1   2   3   4       43.154       43.158
   Dihedral:        3   4   5   6     -126.307     -126.306
   Dihedral:        4   5   6   7     -176.065     -176.059
   Dihedral:        5   6   7   8      116.458      116.447
   Dihedral:        6   7   8   9      -68.607      -68.575
   Dihedral:        7   8   9  10      110.057      110.044
   Dihedral:        8   9  10  11      178.267      178.277
   Dihedral:        9  10  11  12      170.777      170.715
   Dihedral:       11  12  13  14      115.643      115.644
 Hessian Updated using BFGS Update

   Using Lagrange Multiplier Algorithm


159 Hessian modes will be used to form the next step
  Hessian Eigenvalues:
    -0.977753   -0.977753   -0.977753   -0.977753   -0.977753   -0.977753
    -0.977753   -0.977753   -0.977116    0.044998    0.045000    0.045039
     0.045144    0.045328    0.045544    0.045571    0.047663    0.048862
     0.048864    0.054383    0.059892    0.059992    0.062434    0.062455
     0.066976    0.067135    0.067464    0.067799    0.069626    0.070681
     0.071394    0.073804    0.074118    0.075793    0.075928    0.077155
     0.077252    0.082375    0.082402    0.083527    0.083817    0.084395
     0.084492    0.085399    0.085708    0.086640    0.086823    0.086863
     0.087228    0.088399    0.088500    0.089117    0.089372    0.089772
     0.089855    0.093512    0.093855    0.096566    0.096679    0.111578
     0.111676    0.114641    0.114673    0.115898    0.115910    0.117009
     0.117769    0.117886    0.118466    0.118736    0.121876    0.122400
     0.129999    0.131405    0.131520    0.140720    0.141450    0.159617
     0.161576    0.171369    0.171872    0.173094    0.173257    0.218110
     0.219869    0.227158    0.232452    0.240954    0.241630    0.248835
     0.249527    0.249664    0.254817    0.258492    0.260877    0.266742
     0.267712    0.278622    0.281234    0.284212    0.289044    0.294902
     0.297521    0.301945    0.308700    0.310417    0.312305    0.319138
     0.320822    0.321445    0.322270    0.322677    0.322699    0.322939
     0.323143    0.323294    0.323344    0.323515    0.323737    0.323926
     0.323973    0.324123    0.324232    0.324447    0.324775    0.324821
     0.324926    0.325046    0.325052    0.325139    0.325313    0.326694
     0.326773    0.329349    0.368149    0.368670    0.383582    0.400198
     0.405261    0.415594    0.476633    0.492119    0.519827    0.523003
     0.527805    0.544042    0.926365    0.937961    0.942373    0.994222
     1.022753    1.022753    1.022753    1.022753    1.022753    1.022753
     1.022753    1.022753    1.031495

 Minimum Search - Taking P-RFO Step
 Searching for Lamda that Maximizes Along the Constraint modes Only
 Value Taken    Lamda =   0.00006290
 Searching for Lamda that Minimizes Along All other modes
 Value Taken    Lamda =  -0.08065547
 Calculated Step too Large.  Step scaled by  0.598859
 Step Taken.  Stepsize is  0.300000

                             Maximum     Tolerance    Cnvgd?
         Gradient            0.065215       0.000300      NO
         Displacement        0.088393       0.001200      NO
         Energy change     -0.069929       0.000001      NO


 New Cartesian Coordinates Obtained by Inverse Iteration

 Displacement from previous Coordinates is:  0.984750
 Adding empirical dispersion correction 
 ----------------------------------------------------------------
 Doing -D3(op) with
 s6 =   1.00000
 s8 =   0.78311
 a1 =   0.30000
 a2 =   4.25000
 n  =  10.00000
 -D3 energy without 3body term =     -0.0686101094 hartrees
 ----------------------------------------------------------------
             Standard Nuclear Orientation (Angstroms)
    I     Atom           X                Y                Z
 ----------------------------------------------------------------
    1      O       4.6554968357    -1.3407379358    -0.6815861854
    2      C       4.6168814279    -0.2322483025    -0.1100210274
    3      C       3.6140380933     0.9073092047    -0.4193549646
    4      C       2.1330136970     0.4479116880    -0.6233375907
    5      C       1.8561887999    -1.0441384382    -0.3179451448
    6      O       1.2347935964    -1.6182025552    -1.4412880221
    7      C       0.8483088997    -3.0072565166    -1.2184559258
    8      C      -0.7011456130    -3.0954317059    -1.3088362491
    9      O      -1.2760697129    -2.3985037518    -0.1623480959
   10      C      -1.9209980935    -1.2022782390    -0.5155325334
   11      C      -2.5353111619    -0.5550972240     0.7467430439
   12      C      -3.0891971328     0.8941871416     0.5451150771
   13      C      -3.1975786552     1.3598778590    -0.9318174639
   14      O      -4.2461665655     1.6376843379    -1.5456551550
   15      O       5.4431754878     0.0630083312     0.9783089545
   16      O      -1.9273900808     1.6208383740    -1.4643808615
   17      O      -2.2762699975    -0.9594376772    -1.6887119308
   18      C      -1.9221485196     2.0890755729    -2.8199427330
   19      C      -3.8291974967    -1.3037285989     1.2488651421
   20      C      -4.0114775078    -0.9827450621     2.7685592676
   21      C      -4.4346095321     0.5122211988     2.6995573916
   22      C      -4.5307336726     0.7175939608     1.1474576939
   23      O      -4.9344431315    -0.5839270975     0.6347921331
   24      H      -1.7663723557    -0.5806173208     1.5443592210
   25      H      -2.4963981417     1.6574868432     1.0856258857
   26      H      -3.8157085264    -2.3941966983     1.0508738581
   27      H      -4.8621538127    -1.5827405748     3.1394511619
   28      H      -3.1278590002    -1.1919949081     3.3962996798
   29      H      -5.4288831242     0.6315103128     3.1644395260
   30      H      -3.7239333067     1.2188129093     3.1624813351
   31      H      -5.2116935795     1.5505773782     0.8816191384
   32      O       2.0877161753    -1.6286550250     0.7575921945
   33      C       6.3778308894    -0.9689082524     1.3283867432
   34      C       3.4399019468     1.9622927297     0.7356680915
   35      C       2.8238036778     3.2721921954     0.1369062130
   36      C       1.3524576627     2.8260318320    -0.0979555360
   37      C       1.4052157085     1.3575563882     0.4397951365
   38      O       2.3540135846     1.4219146354     1.5414978471
   39      H       3.9896504644     1.4034591952    -1.3366871501
   40      H       1.7690483731     0.6756516449    -1.6433570838
   41      H       7.0744637591    -1.1925450475     0.4913926286
   42      H       4.3722812619     2.1724770417     1.2950997994
   43      H       2.8420020835     4.0539255073     0.9175978166
   44      H       3.3528058588     3.6438335593    -0.7574694635
   45      H       0.6836468489     3.4252888098     0.5451424357
   46      H       1.0030572054     2.8882864030    -1.1431288626
   47      H       0.3987135327     0.9817264245     0.7149442874
   48      H       5.8579626499    -1.9081463419     1.6166491667
   49      H       6.9631040580    -0.6014931556     2.1934369027
   50      H      -0.8653427518     2.2543936450    -3.1063610251
   51      H      -2.4789644592     3.0455155316    -2.9282697963
   52      H      -2.3679778528     1.3397852684    -3.5094581599
   53      H      -1.0398209762    -2.7076380182    -2.2942663164
   54      H      -1.0146992458    -4.1602826826    -1.2510000689
   55      H       1.2008847163    -3.4381725723    -0.2563748968
   56      H       1.2931907003    -3.6224780635    -2.0311664346
 ----------------------------------------------------------------
 Molecular Point Group                 C1    NOp =  1
 Largest Abelian Subgroup              C1    NOp =  1
 Nuclear Repulsion Energy =  3248.7099462496 hartrees
 There are      113 alpha and      113 beta electrons
 Applying Cartesian multipole field
    Component          Value
    ---------          -----
     (2,0,0)        1.00000E-12
     (0,2,0)        2.00000E-11
     (0,0,2)       -3.00000E-11
 Nucleus-field energy     =     0.0000000112 hartrees
 Requested basis set is STO-3G
 There are 86 shells and 176 basis functions
 A cutoff of  1.0D-12 yielded   2390 shell pairs
 There are     11438 function pairs
 Smallest overlap matrix eigenvalue = 2.07E-01
 Guess MOs from SCF MO coefficient file
 Reading MOs from coefficient file
 Reading MOs from coefficient file
 A restricted hybrid HF-DFT SCF calculation will be
 performed using Pulay DIIS extrapolation
 Exchange:     0.2000 Hartree-Fock + 0.0800 Slater + 0.7200 B88
 Correlation:  0.1900 VWN1RPA + 0.8100 LYP
 Using SG-1 standard quadrature grid
 Dispersion:   Grimme D3
 SCF converges when DIIS error is below 1.0E-08
 Geometry optimization detected.  Setting ReadMinima to 0
 Setting SaveMinima to 0
 using 48 threads for integral computing
 -------------------------------------------------------
 OpenMP Integral computing Module                
 Release: version 1.0, May 2013, Q-Chem Inc. Pittsburgh 
 -------------------------------------------------------
 -------------------------------------------------------
 OpenMP BLAS3 based DFT computing Module                
 Release: version 1.0, May 2013, Q-Chem Inc. Pittsburgh 
 -------------------------------------------------------
 ---------------------------------------
  Cycle       Energy         DIIS Error
 ---------------------------------------
    1   -1510.1232512204      2.75E-03
    2   -1510.2571318843      8.21E-04
    3   -1510.2517558616      1.39E-03
    4   -1510.2599494233      2.48E-04
    5   -1510.2602330505      4.97E-05
    6   -1510.2602440398      1.42E-05
    7   -1510.2602445742      9.94E-06
    8   -1510.2602449858      2.67E-06
    9   -1510.2602450208      4.02E-07
   10   -1510.2602450213      2.84E-07
   11   -1510.2602450217      1.15E-07
   12   -1510.2602450217      2.34E-08
   13   -1510.2602450218      1.09E-08
   14   -1510.2602450218      6.35E-09 Convergence criterion met
 ---------------------------------------
 SCF time:  CPU 98.91 s  wall 2.07 s
 SCF   energy in the final basis set = -1510.26024502
 Total energy in the final basis set = -1510.26024502
 
 --------------------------------------------------------------
 
                    Orbital Energies (a.u.)
 --------------------------------------------------------------
 
 Alpha MOs
 -- Occupied --
-18.942 -18.940 -18.938 -18.924 -18.895 -18.894 -18.873 -18.867
-18.863 -18.856 -10.105 -10.102 -10.100 -10.094 -10.077 -10.074
-10.070 -10.065 -10.063 -10.062 -10.060 -10.060 -10.039 -10.039
-10.036 -10.035 -10.017 -10.017 -10.016 -10.016  -1.030  -1.024
 -1.018  -1.012  -0.989  -0.987  -0.944  -0.939  -0.935  -0.928
 -0.771  -0.769  -0.734  -0.727  -0.723  -0.712  -0.703  -0.667
 -0.663  -0.625  -0.601  -0.581  -0.549  -0.546  -0.536  -0.535
 -0.519  -0.517  -0.493  -0.481  -0.471  -0.463  -0.455  -0.452
 -0.438  -0.436  -0.428  -0.419  -0.416  -0.415  -0.411  -0.405
 -0.401  -0.383  -0.380  -0.369  -0.366  -0.362  -0.357  -0.348
 -0.345  -0.342  -0.341  -0.337  -0.335  -0.325  -0.324  -0.313
 -0.309  -0.305  -0.302  -0.298  -0.294  -0.289  -0.282  -0.274
 -0.272  -0.253  -0.249  -0.242  -0.237  -0.235  -0.234  -0.190
 -0.175  -0.169  -0.164  -0.155  -0.154  -0.149  -0.148  -0.143
 -0.139
 -- Virtual --
  0.091   0.099   0.115   0.117   0.235   0.242   0.250   0.259
  0.275   0.288   0.303   0.307   0.321   0.330   0.337   0.345
  0.352   0.354   0.357   0.365   0.371   0.374   0.378   0.382
  0.386   0.392   0.393   0.401   0.405   0.411   0.412   0.414
  0.417   0.421   0.424   0.425   0.429   0.431   0.435   0.439
  0.443   0.444   0.447   0.451   0.459   0.465   0.466   0.471
  0.474   0.477   0.483   0.490   0.498   0.517   0.518   0.544
  0.547   0.555   0.556   0.647   0.649   0.661   0.669
 --------------------------------------------------------------
 
          Ground-State Mulliken Net Atomic Charges

     Atom                 Charge (a.u.)
  ----------------------------------------
      1 O                    -0.223694
      2 C                     0.219138
      3 C                    -0.079297
      4 C                    -0.079862
      5 C                     0.219707
      6 O                    -0.176390
      7 C                    -0.047859
      8 C                    -0.047098
      9 O                    -0.179767
     10 C                     0.215724
     11 C                    -0.080606
     12 C                    -0.080420
     13 C                     0.224495
     14 O                    -0.220972
     15 O                    -0.182882
     16 O                    -0.190740
     17 O                    -0.213305
     18 C                    -0.114571
     19 C                     0.031177
     20 C                    -0.142755
     21 C                    -0.145662
     22 C                     0.031998
     23 O                    -0.191171
     24 H                     0.085668
     25 H                     0.083912
     26 H                     0.085904
     27 H                     0.076830
     28 H                     0.075620
     29 H                     0.077035
     30 H                     0.073146
     31 H                     0.089710
     32 O                    -0.217596
     33 C                    -0.115097
     34 C                     0.029863
     35 C                    -0.144909
     36 C                    -0.143239
     37 C                     0.032508
     38 O                    -0.192883
     39 H                     0.084901
     40 H                     0.087067
     41 H                     0.086553
     42 H                     0.092056
     43 H                     0.075388
     44 H                     0.072230
     45 H                     0.075478
     46 H                     0.074571
     47 H                     0.081937
     48 H                     0.092378
     49 H                     0.092359
     50 H                     0.085195
     51 H                     0.084321
     52 H                     0.092679
     53 H                     0.103177
     54 H                     0.087561
     55 H                     0.103250
     56 H                     0.087235
  ----------------------------------------
  Sum of atomic charges =    -0.000000

 -----------------------------------------------------------------
                    Cartesian Multipole Moments
 -----------------------------------------------------------------
    Charge (ESU x 10^10)
                -0.0000
    Dipole Moment (Debye)
         X       2.2952      Y       0.6978      Z       0.4000
       Tot       2.4320
    Quadrupole Moments (Debye-Ang)
        XX    -165.7382     XY       4.7753     YY    -149.0241
        XZ     -10.0964     YZ      -0.0326     ZZ    -158.8779
    Octopole Moments (Debye-Ang^2)
       XXX     182.4259    XXY      -1.4128    XYY      -2.9892
       YYY     -41.9713    XXZ      63.7310    XYZ     -17.0336
       YYZ     -22.1188    XZZ      -5.0659    YZZ      -4.6555
       ZZZ     -26.5549
    Hexadecapole Moments (Debye-Ang^3)
      XXXX  -10587.6057   XXXY     -82.4524   XXYY   -2282.7605
      XYYY     -30.0152   YYYY   -2831.7661   XXXZ      74.9529
      XXYZ     -35.2822   XYYZ      40.1399   YYYZ      63.6403
      XXZZ   -2086.6054   XYZZ     -19.1995   YYZZ    -778.5484
      XZZZ     105.1429   YZZZ     -20.2103   ZZZZ   -1903.0939
 -----------------------------------------------------------------
 Calculating analytic gradient of the SCF energy
 Gradient of SCF Energy
            1           2           3           4           5           6
    1   0.0001532   0.0068008  -0.0116610   0.0072385  -0.0076298   0.0014906
    2   0.0085585   0.0263507  -0.0142472  -0.0034910  -0.0050634  -0.0033084
    3   0.0113405   0.0005130   0.0095075   0.0139135  -0.0133903   0.0137482
            7           8           9          10          11          12
    1  -0.0029180   0.0003114  -0.0118951   0.0347613  -0.0264886  -0.0065974
    2   0.0212107   0.0162132   0.0064077   0.0059517  -0.0056600  -0.0053428
    3   0.0066047   0.0112157  -0.0204100   0.0157816  -0.0136345  -0.0073882
           13          14          15          16          17          18
    1   0.0160633   0.0116532   0.0064774  -0.0365737  -0.0056481   0.0093646
    2  -0.0086757   0.0025706  -0.0457743   0.0063717  -0.0108667  -0.0069667
    3   0.0123622   0.0044754  -0.0160159  -0.0317939   0.0129028   0.0241210
           19          20          21          22          23          24
    1  -0.0126128   0.0035056   0.0028057   0.0022658   0.0193244   0.0017269
    2   0.0203197   0.0078003  -0.0051808  -0.0276708   0.0090214  -0.0010363
    3  -0.0095517  -0.0115268  -0.0080171  -0.0058455   0.0163827   0.0010460
           25          26          27          28          29          30
    1  -0.0007669   0.0053975  -0.0042194   0.0001028  -0.0027962   0.0008794
    2   0.0038622  -0.0020538   0.0007646  -0.0013721  -0.0049416   0.0029564
    3  -0.0014600   0.0067111  -0.0018411   0.0032496   0.0008169  -0.0007178
           31          32          33          34          35          36
    1   0.0034002  -0.0007619  -0.0137189  -0.0213675  -0.0027077   0.0088776
    2   0.0064216   0.0077800   0.0240197  -0.0122727  -0.0125448  -0.0078925
    3   0.0073083  -0.0067627   0.0006130   0.0065554  -0.0011981   0.0019158
           37          38          39          40          41          42
    1   0.0228419   0.0021078   0.0021701  -0.0018468   0.0000331   0.0029052
    2   0.0021096   0.0072851  -0.0001439   0.0020709   0.0017917   0.0077043
    3   0.0114727  -0.0259896  -0.0007967  -0.0015439  -0.0007918  -0.0059731
           43          44          45          46          47          48
    1  -0.0033743   0.0016578   0.0021558  -0.0017182  -0.0042680  -0.0013387
    2  -0.0005431   0.0021364   0.0018476  -0.0000373   0.0025810   0.0007617
    3   0.0039897  -0.0006346   0.0045591  -0.0016641  -0.0072422   0.0008062
           49          50          51          52          53          54
    1   0.0014380   0.0000288   0.0003466   0.0002917   0.0041328  -0.0004423
    2  -0.0014586   0.0005605   0.0005368  -0.0013330  -0.0072577   0.0000913
    3   0.0004780  -0.0018606   0.0017144   0.0008959  -0.0049688  -0.0023027
           55          56
    1  -0.0018678   0.0005096
    2  -0.0098196  -0.0011025
    3  -0.0030632   0.0013841
 Max gradient component =       4.577E-02
 RMS gradient           =       1.066E-02
 Gradient time:  CPU 31.46 s  wall 0.66 s
 Geometry Optimization Parameters
   NAtoms,    NIC,     NZ,  NCons,   NDum,   NFix, NCnnct, MaxDiis
       56     458       0       9       0       0       0       0

 Cartesian Hessian Update
 Hessian Updated using BFGS Update


** CONSTRAINED OPTIMIZATION IN DELOCALIZED INTERNAL COORDINATES **
   Searching for a Minimum

   Optimization Cycle:   3

                       Coordinates (Angstroms)
     ATOM                X               Y               Z
      1  O         4.6554968357   -1.3407379358   -0.6815861854
      2  C         4.6168814279   -0.2322483025   -0.1100210274
      3  C         3.6140380933    0.9073092047   -0.4193549646
      4  C         2.1330136970    0.4479116880   -0.6233375907
      5  C         1.8561887999   -1.0441384382   -0.3179451448
      6  O         1.2347935964   -1.6182025552   -1.4412880221
      7  C         0.8483088997   -3.0072565166   -1.2184559258
      8  C        -0.7011456130   -3.0954317059   -1.3088362491
      9  O        -1.2760697129   -2.3985037518   -0.1623480959
     10  C        -1.9209980935   -1.2022782390   -0.5155325334
     11  C        -2.5353111619   -0.5550972240    0.7467430439
     12  C        -3.0891971328    0.8941871416    0.5451150771
     13  C        -3.1975786552    1.3598778590   -0.9318174639
     14  O        -4.2461665655    1.6376843379   -1.5456551550
     15  O         5.4431754878    0.0630083312    0.9783089545
     16  O        -1.9273900808    1.6208383740   -1.4643808615
     17  O        -2.2762699975   -0.9594376772   -1.6887119308
     18  C        -1.9221485196    2.0890755729   -2.8199427330
     19  C        -3.8291974967   -1.3037285989    1.2488651421
     20  C        -4.0114775078   -0.9827450621    2.7685592676
     21  C        -4.4346095321    0.5122211988    2.6995573916
     22  C        -4.5307336726    0.7175939608    1.1474576939
     23  O        -4.9344431315   -0.5839270975    0.6347921331
     24  H        -1.7663723557   -0.5806173208    1.5443592210
     25  H        -2.4963981417    1.6574868432    1.0856258857
     26  H        -3.8157085264   -2.3941966983    1.0508738581
     27  H        -4.8621538127   -1.5827405748    3.1394511619
     28  H        -3.1278590002   -1.1919949081    3.3962996798
     29  H        -5.4288831242    0.6315103128    3.1644395260
     30  H        -3.7239333067    1.2188129093    3.1624813351
     31  H        -5.2116935795    1.5505773782    0.8816191384
     32  O         2.0877161753   -1.6286550250    0.7575921945
     33  C         6.3778308894   -0.9689082524    1.3283867432
     34  C         3.4399019468    1.9622927297    0.7356680915
     35  C         2.8238036778    3.2721921954    0.1369062130
     36  C         1.3524576627    2.8260318320   -0.0979555360
     37  C         1.4052157085    1.3575563882    0.4397951365
     38  O         2.3540135846    1.4219146354    1.5414978471
     39  H         3.9896504644    1.4034591952   -1.3366871501
     40  H         1.7690483731    0.6756516449   -1.6433570838
     41  H         7.0744637591   -1.1925450475    0.4913926286
     42  H         4.3722812619    2.1724770417    1.2950997994
     43  H         2.8420020835    4.0539255073    0.9175978166
     44  H         3.3528058588    3.6438335593   -0.7574694635
     45  H         0.6836468489    3.4252888098    0.5451424357
     46  H         1.0030572054    2.8882864030   -1.1431288626
     47  H         0.3987135327    0.9817264245    0.7149442874
     48  H         5.8579626499   -1.9081463419    1.6166491667
     49  H         6.9631040580   -0.6014931556    2.1934369027
     50  H        -0.8653427518    2.2543936450   -3.1063610251
     51  H        -2.4789644592    3.0455155316   -2.9282697963
     52  H        -2.3679778528    1.3397852684   -3.5094581599
     53  H        -1.0398209762   -2.7076380182   -2.2942663164
     54  H        -1.0146992458   -4.1602826826   -1.2510000689
     55  H         1.2008847163   -3.4381725723   -0.2563748968
     56  H         1.2931907003   -3.6224780635   -2.0311664346
   Point Group: c1    Number of degrees of freedom:   162


   Energy is  -1510.260245022

              Constraints and their Current Values
                                        Value     Constraint
   Dihedral:        1   2   3   4       43.150       43.158
   Dihedral:        3   4   5   6     -126.298     -126.306
   Dihedral:        4   5   6   7     -176.062     -176.059
   Dihedral:        5   6   7   8      116.466      116.447
   Dihedral:        6   7   8   9      -68.574      -68.575
   Dihedral:        7   8   9  10      110.066      110.044
   Dihedral:        8   9  10  11      178.270      178.277
   Dihedral:        9  10  11  12      170.728      170.715
   Dihedral:       11  12  13  14      115.649      115.644
 Hessian Updated using BFGS Update

   Using Lagrange Multiplier Algorithm


162 Hessian modes will be used to form the next step
  Hessian Eigenvalues:
    -0.977754   -0.977753   -0.977753   -0.977753   -0.977753   -0.977753
    -0.977753   -0.977746   -0.976886    0.044947    0.045000    0.045000
     0.045039    0.045070    0.045292    0.045477    0.045545    0.047530
     0.048771    0.048864    0.054235    0.059418    0.059992    0.062404
     0.062445    0.066966    0.067105    0.067462    0.067794    0.069620
     0.070516    0.070929    0.073775    0.074064    0.075792    0.075919
     0.077093    0.077250    0.082379    0.082410    0.083529    0.083828
     0.084413    0.084492    0.085355    0.085666    0.086184    0.086770
     0.086846    0.087229    0.088402    0.088543    0.089130    0.089375
     0.089776    0.089868    0.093492    0.093834    0.096566    0.096678
     0.111575    0.111669    0.114640    0.114663    0.115898    0.115910
     0.116868    0.117777    0.117976    0.118436    0.118672    0.121856
     0.122312    0.129999    0.131221    0.131520    0.140837    0.141355
     0.159882    0.160006    0.161555    0.171626    0.172376    0.173174
     0.173402    0.217816    0.219885    0.230532    0.240692    0.241329
     0.243299    0.248958    0.249563    0.249750    0.254251    0.255651
     0.258484    0.261053    0.266747    0.267712    0.278622    0.281268
     0.284197    0.289133    0.294922    0.297534    0.302237    0.308609
     0.310329    0.312194    0.318569    0.320753    0.321404    0.322264
     0.322676    0.322698    0.322924    0.323125    0.323279    0.323347
     0.323459    0.323738    0.323902    0.323974    0.324138    0.324236
     0.324423    0.324772    0.324821    0.324925    0.325046    0.325055
     0.325140    0.325317    0.326731    0.326774    0.330889    0.368147
     0.368332    0.383315    0.389325    0.406216    0.407560    0.460766
     0.492120    0.514989    0.522034    0.527481    0.540341    0.926707
     0.938065    0.942360    0.999745    1.022753    1.022753    1.022753
     1.022753    1.022753    1.022753    1.022753    1.022788    1.035415

 Minimum Search - Taking P-RFO Step
 Searching for Lamda that Maximizes Along the Constraint modes Only
 Value Taken    Lamda =   0.00000516
 Searching for Lamda that Minimizes Along All other modes
 Value Taken    Lamda =  -0.03605858
 Calculated Step too Large.  Step scaled by  0.669814
 Step Taken.  Stepsize is  0.300000

                             Maximum     Tolerance    Cnvgd?
         Gradient            0.033229       0.000300      NO
         Displacement        0.077194       0.001200      NO
         Energy change     -0.037917       0.000001      NO


 New Cartesian Coordinates Obtained by Inverse Iteration

 Displacement from previous Coordinates is:  1.590549
 Adding empirical dispersion correction 
 ----------------------------------------------------------------
 Doing -D3(op) with
 s6 =   1.00000
 s8 =   0.78311
 a1 =   0.30000
 a2 =   4.25000
 n  =  10.00000
 -D3 energy without 3body term =     -0.0699485493 hartrees
 ----------------------------------------------------------------
             Standard Nuclear Orientation (Angstroms)
    I     Atom           X                Y                Z
 ----------------------------------------------------------------
    1      O       4.5957837338    -1.3482022072    -0.6556468172
    2      C       4.5547721513    -0.2246954447    -0.1076685664
    3      C       3.5486195852     0.9213515167    -0.4449929692
    4      C       2.0660332844     0.4322810255    -0.6406438230
    5      C       1.8240844759    -1.0707357376    -0.3084377773
    6      O       1.2063416331    -1.6643453441    -1.4425590902
    7      C       0.8425304837    -3.0710881044    -1.2132002990
    8      C      -0.7140021484    -3.1489716118    -1.3098513266
    9      O      -1.2673863925    -2.4347055446    -0.1480169230
   10      C      -1.9002351145    -1.2159959631    -0.5151832973
   11      C      -2.4853388267    -0.5662642146     0.7715106854
   12      C      -3.0239264078     0.9012974435     0.5917981242
   13      C      -3.0627757027     1.4017776775    -0.8903221935
   14      O      -4.0730133635     1.7050405058    -1.5584554991
   15      O       5.3942731428     0.1330028668     0.9755835242
   16      O      -1.7325925494     1.6554752524    -1.3241408370
   17      O      -2.2104070410    -0.9306303137    -1.6946925810
   18      C      -1.6986055667     2.1458402770    -2.6980824954
   19      C      -3.8115821984    -1.3129455499     1.2327618625
   20      C      -4.0211257614    -1.0154352074     2.7620666078
   21      C      -4.4231812986     0.4971357332     2.7116283499
   22      C      -4.4895725609     0.7390319644     1.1540827483
   23      O      -4.9039236392    -0.5593640777     0.6006035306
   24      H      -1.7308547684    -0.6260883521     1.5778531881
   25      H      -2.4316736511     1.6396772884     1.1637523605
   26      H      -3.8199964797    -2.3936637780     0.9901759472
   27      H      -4.8796549385    -1.6117604318     3.1152089171
   28      H      -3.1466456743    -1.2456196867     3.3923764553
   29      H      -5.4194552557     0.6354589470     3.1626633351
   30      H      -3.7060409367     1.1764871906     3.2007781952
   31      H      -5.1574670534     1.5754667590     0.8696677737
[...]
     15  O         5.4599094084    0.1283260128    0.6868065123
     16  O        -1.5221438782    1.6225603797   -1.1204518014
     17  O        -2.1485643537   -0.9609794837   -1.5835339129
     18  C        -1.3066995898    1.9600903307   -2.5448816318
     19  C        -3.7962951647   -1.3513932725    1.4151722990
     20  C        -4.1606483952   -0.7865071273    2.8456912236
     21  C        -4.8025005629    0.6022638526    2.4731154921
     22  C        -4.6370169505    0.5983147039    0.9041808631
     23  O        -4.8644519377   -0.8209429217    0.5401097458
     24  H        -1.7061820585   -0.5577439401    1.6526917669
     25  H        -2.6599907673    1.5950290806    1.2345531727
     26  H        -3.7383555487   -2.4550316930    1.3425197395
     27  H        -4.8856127761   -1.4479738717    3.3460726151
     28  H        -3.2715056477   -0.6870277788    3.4888354457
     29  H        -5.8682705827    0.6400979828    2.7496292639
     30  H        -4.2837116167    1.4523455339    2.9445928525
     31  H        -5.3260522286    1.2546186568    0.3379856549
     32  O         2.0789871660   -1.6175291550    0.6805893132
     33  C         6.4081187539   -0.9989007952    0.8433212268
     34  C         3.3707501446    1.9507664436    0.7921127582
     35  C         2.7519804233    3.3256480298    0.3261123705
     36  C         1.2569855504    2.9063348844    0.0717865413
     37  C         1.2802628019    1.3875963522    0.5041054367
     38  O         2.2821290622    1.3433845820    1.5938358961
     39  H         3.8004027018    1.5787020844   -1.3696515447
     40  H         1.5697675342    0.7630655092   -1.6416466678
     41  H         6.9695922699   -1.1928415359   -0.0936105664
     42  H         4.3034354041    2.0129219283    1.3842161542
     43  H         2.8306484167    4.0749162380    1.1300101540
     44  H         3.2438708885    3.7225085458   -0.5764209656
     45  H         0.5587809426    3.4741690554    0.7065405579
     46  H         0.9544953834    3.0318511107   -0.9786735638
     47  H         0.3052022541    0.9864041353    0.8413530038
     48  H         5.8844384592   -1.9302295604    1.1402163103
     49  H         7.1111629602   -0.6965672630    1.6411039142
     50  H        -0.2334370923    2.2014239230   -2.6497425998
     51  H        -1.9154544350    2.8329408899   -2.8577354330
     52  H        -1.5565852342    1.0996936842   -3.1988812275
     53  H        -1.1800316075   -2.7435500672   -2.1101137858
     54  H        -1.0070295063   -4.2584613562   -1.1023193675
     55  H         1.2646861488   -3.2767943842   -0.2174224025
     56  H         1.2892385776   -3.6343668493   -2.0074045461
   Point Group: c1    Number of degrees of freedom:   162


   Energy is  -1510.289790426

              Constraints and their Current Values
                                        Value     Constraint
   Dihedral:        1   2   3   4       43.158       43.158
   Dihedral:        3   4   5   6     -126.306     -126.306
   Dihedral:        4   5   6   7     -176.059     -176.059
   Dihedral:        5   6   7   8      116.447      116.447
   Dihedral:        6   7   8   9      -68.575      -68.575
   Dihedral:        7   8   9  10      110.044      110.044
   Dihedral:        8   9  10  11      178.277      178.277
   Dihedral:        9  10  11  12      170.715      170.715
   Dihedral:       11  12  13  14      115.644      115.644
 Hessian Updated using BFGS Update

153 Hessian modes will be used to form the next step
  Hessian Eigenvalues:
     0.002894    0.007336    0.009937    0.022939    0.045005    0.045023
     0.045044    0.045089    0.045184    0.045856    0.047633    0.049071
     0.051785    0.057153    0.059924    0.061865    0.062924    0.066816
     0.066879    0.067417    0.067678    0.069026    0.070642    0.071156
     0.074198    0.074832    0.075696    0.075981    0.077740    0.078410
     0.082299    0.082488    0.083209    0.083805    0.084474    0.084777
     0.085474    0.086199    0.086754    0.087024    0.087393    0.087580
     0.089069    0.089100    0.089463    0.089834    0.090092    0.092739
     0.093573    0.093812    0.096618    0.096754    0.111610    0.111914
     0.114728    0.114795    0.115906    0.115908    0.117807    0.118151
     0.119322    0.120045    0.120720    0.122190    0.123795    0.130801
     0.131649    0.133844    0.141916    0.158627    0.159998    0.160002
     0.160230    0.160660    0.161049    0.161895    0.172657    0.172811
     0.174173    0.199751    0.223097    0.234915    0.238008    0.240875
     0.246669    0.248858    0.249167    0.249564    0.250065    0.251599
     0.252681    0.258623    0.265339    0.267591    0.269388    0.275943
     0.279502    0.281060    0.285488    0.292545    0.296272    0.300323
     0.302135    0.308243    0.310283    0.311229    0.319280    0.319763
     0.321158    0.322055    0.322367    0.322695    0.322916    0.322968
     0.323185    0.323295    0.323512    0.323592    0.323810    0.323999
     0.324199    0.324223    0.324571    0.324782    0.324928    0.324973
     0.325108    0.325138    0.325328    0.325859    0.326707    0.327989
     0.332087    0.347177    0.364284    0.367969    0.371651    0.375066
     0.400521    0.415843    0.441167    0.446097    0.476861    0.501114
     0.519082    0.534710    0.579850    0.616389    0.928263    0.939504
     0.942449    1.020844    1.266419

 Minimum Search - Taking Simple RFO Step
 Searching for Lamda that Minimizes Along All modes
 Value Taken    Lamda =   0.00000000
 Step Taken.  Stepsize is  0.006725

                             Maximum     Tolerance    Cnvgd?
         Gradient           0.000054      0.000300     YES
         Displacement       0.004726      0.001200      NO
         Energy change     -0.000001      0.000001     YES

 Final energy is   -1510.28979042560     


 ******************************
 **  OPTIMIZATION CONVERGED  **
 ******************************

                       Coordinates (Angstroms)
     ATOM                X               Y               Z
      1  O         4.4783815356   -1.2594903175   -0.9597885040
      2  C         4.4845196278   -0.1920551763   -0.3075168534
      3  C         3.4807781349    1.0053475106   -0.4794576636
      4  C         1.9751739287    0.5327228856   -0.6415260724
      5  C         1.7772014699   -0.9943757347   -0.3616105929
      6  O         1.1138649649   -1.5874337446   -1.4882423561
      7  C         0.8292542865   -3.0171386256   -1.2070804441
      8  C        -0.7258083095   -3.1891015221   -1.1991430787
      9  O        -1.2307864037   -2.4697622649   -0.0002097866
     10  C        -1.9475635735   -1.2995384442   -0.3937940473
     11  C        -2.5003030013   -0.5935116547    0.8853977265
     12  C        -3.1066141353    0.8338367583    0.5695323064
     13  C        -2.9117636567    1.3097834099   -0.9178489341
     14  O        -3.8095361970    1.5224082039   -1.7595328723
     15  O         5.4599094084    0.1283260128    0.6868065123
     16  O        -1.5221438782    1.6225603797   -1.1204518014
     17  O        -2.1485643537   -0.9609794837   -1.5835339129
     18  C        -1.3066995898    1.9600903307   -2.5448816318
     19  C        -3.7962951647   -1.3513932725    1.4151722990
     20  C        -4.1606483952   -0.7865071273    2.8456912236
     21  C        -4.8025005629    0.6022638526    2.4731154921
     22  C        -4.6370169505    0.5983147039    0.9041808631
     23  O        -4.8644519377   -0.8209429217    0.5401097458
     24  H        -1.7061820585   -0.5577439401    1.6526917669
     25  H        -2.6599907673    1.5950290806    1.2345531727
     26  H        -3.7383555487   -2.4550316930    1.3425197395
     27  H        -4.8856127761   -1.4479738717    3.3460726151
     28  H        -3.2715056477   -0.6870277788    3.4888354457
     29  H        -5.8682705827    0.6400979828    2.7496292639
     30  H        -4.2837116167    1.4523455339    2.9445928525
     31  H        -5.3260522286    1.2546186568    0.3379856549
     32  O         2.0789871660   -1.6175291550    0.6805893132
     33  C         6.4081187539   -0.9989007952    0.8433212268
     34  C         3.3707501446    1.9507664436    0.7921127582
     35  C         2.7519804233    3.3256480298    0.3261123705
     36  C         1.2569855504    2.9063348844    0.0717865413
     37  C         1.2802628019    1.3875963522    0.5041054367
     38  O         2.2821290622    1.3433845820    1.5938358961
     39  H         3.8004027018    1.5787020844   -1.3696515447
     40  H         1.5697675342    0.7630655092   -1.6416466678
     41  H         6.9695922699   -1.1928415359   -0.0936105664
     42  H         4.3034354041    2.0129219283    1.3842161542
     43  H         2.8306484167    4.0749162380    1.1300101540
     44  H         3.2438708885    3.7225085458   -0.5764209656
     45  H         0.5587809426    3.4741690554    0.7065405579
     46  H         0.9544953834    3.0318511107   -0.9786735638
     47  H         0.3052022541    0.9864041353    0.8413530038
     48  H         5.8844384592   -1.9302295604    1.1402163103
     49  H         7.1111629602   -0.6965672630    1.6411039142
     50  H        -0.2334370923    2.2014239230   -2.6497425998
     51  H        -1.9154544350    2.8329408899   -2.8577354330
     52  H        -1.5565852342    1.0996936842   -3.1988812275
     53  H        -1.1800316075   -2.7435500672   -2.1101137858
     54  H        -1.0070295063   -4.2584613562   -1.1023193675
     55  H         1.2646861488   -3.2767943842   -0.2174224025
     56  H         1.2892385776   -3.6343668493   -2.0074045461

Z-matrix Print:
$molecule
0 1
O 
C  1 1.438722
O  2 1.248854 1 124.223343
C  1 1.479643 2 109.013753 3 -11.437328 0
H  4 1.105048 1 106.414722 2 179.455536 0
H  4 1.109202 1 111.785022 2 59.905889 0
H  4 1.109252 1 110.967925 2 -61.609381 0
C  2 1.573784 1 108.567471 3 -173.346840 0
H  8 1.105052 2 108.083597 1 52.046190 0
C  8 1.582627 2 114.452798 1 -71.229935 0
H  10 1.104829 8 112.629826 2 118.297500 0
C  10 1.562154 8 112.317374 2 -5.511335 0
O  12 1.253198 10 126.766061 8 -13.076282 0
O  12 1.427621 10 108.806110 8 170.714996 0
C  14 1.486571 12 110.172701 10 178.277004 0
H  15 1.109951 14 108.045734 12 -130.509929 0
H  15 1.111172 14 109.166362 12 -9.999781 0
C  15 1.564562 14 106.770405 12 110.044015 0
H  18 1.110439 15 110.749602 14 173.020305 0
H  18 1.111956 15 111.040797 14 49.918702 0
O  18 1.484625 15 107.298362 14 -68.575023 0
C  21 1.435630 18 109.741391 15 116.447008 0
O  22 1.251230 21 124.012137 18 1.100895 0
C  22 1.565112 21 108.733025 18 -176.058963 0
H  24 1.103473 22 108.620449 21 -0.946083 0
C  8 1.584170 2 111.359444 1 174.784953 0
H  26 1.107286 8 113.892169 2 -30.592884 0
O  26 1.482756 8 103.804962 2 89.334565 0
C  28 1.479213 26 95.004319 8 56.059515 0
H  29 1.107544 28 110.873687 26 179.810203 0
C  26 1.577643 8 108.121927 2 -161.387675 0
H  31 1.101706 26 110.558214 8 168.904502 0
H  31 1.101849 26 112.214716 8 47.292717 0
C  31 1.574634 26 100.972675 8 -73.058221 0
H  34 1.101587 31 111.642232 26 -119.479504 0
H  34 1.101865 31 112.793255 26 117.814602 0
C  24 1.586343 22 113.108798 21 -126.306047 0
H  37 1.106047 24 110.272645 22 129.629176 0
C  37 1.571889 24 112.971851 22 9.492309 0
O  39 1.250965 37 126.145230 24 43.157997 0
O  39 1.429233 37 109.945665 24 -138.926416 0
C  41 1.481296 39 109.863567 37 -179.764929 0
H  42 1.105502 41 105.975339 39 -178.446558 0
H  42 1.108946 41 111.413257 39 -59.200432 0
H  42 1.109372 41 111.578392 39 62.317360 0
C  37 1.588337 24 101.150142 22 -113.023049 0
H  46 1.106504 37 113.793272 24 152.101555 0
O  46 1.482150 37 103.886516 24 31.700884 0
C  48 1.480947 46 94.969386 37 -55.682678 0
H  49 1.106993 48 111.154546 46 -179.134915 0
C  46 1.578078 37 108.019502 24 -77.460568 0
H  51 1.101746 46 110.428813 37 -169.428909 0
H  51 1.101826 46 112.373526 37 -47.856311 0
C  51 1.573377 46 100.842670 37 72.528619 0
H  54 1.100328 51 112.651851 46 -117.366004 0
H  54 1.101289 51 111.828230 46 120.130380 0
$end

 
 --------------------------------------------------------------
 
                    Orbital Energies (a.u.)
 --------------------------------------------------------------
 
 Alpha MOs
 -- Occupied --
-18.940 -18.937 -18.929 -18.920 -18.887 -18.885 -18.885 -18.873
-18.870 -18.863 -10.106 -10.100 -10.096 -10.091 -10.071 -10.066
-10.065 -10.062 -10.058 -10.056 -10.056 -10.056 -10.041 -10.038
-10.036 -10.034 -10.020 -10.019 -10.019 -10.017  -1.021  -1.013
 -1.006  -0.998  -0.970  -0.968  -0.944  -0.937  -0.930  -0.925
 -0.764  -0.761  -0.727  -0.721  -0.714  -0.705  -0.696  -0.661
 -0.656  -0.618  -0.597  -0.576  -0.545  -0.543  -0.537  -0.535
 -0.511  -0.511  -0.488  -0.473  -0.462  -0.457  -0.453  -0.448
 -0.433  -0.430  -0.424  -0.417  -0.413  -0.411  -0.405  -0.402
 -0.399  -0.377  -0.373  -0.364  -0.360  -0.356  -0.354  -0.348
 -0.343  -0.340  -0.338  -0.333  -0.329  -0.324  -0.321  -0.312
 -0.308  -0.304  -0.301  -0.301  -0.290  -0.287  -0.278  -0.274
 -0.272  -0.255  -0.252  -0.246  -0.244  -0.234  -0.232  -0.188
 -0.178  -0.167  -0.164  -0.162  -0.157  -0.150  -0.145  -0.142
 -0.141
 -- Virtual --
  0.092   0.095   0.110   0.115   0.229   0.238   0.243   0.247
  0.261   0.270   0.284   0.288   0.307   0.313   0.326   0.331
  0.338   0.341   0.344   0.345   0.355   0.361   0.370   0.374
  0.375   0.385   0.390   0.393   0.402   0.408   0.410   0.412
  0.415   0.419   0.421   0.423   0.424   0.428   0.430   0.431
  0.433   0.436   0.439   0.441   0.445   0.451   0.456   0.463
  0.467   0.474   0.483   0.488   0.496   0.508   0.522   0.540
  0.542   0.552   0.559   0.637   0.638   0.653   0.655
 --------------------------------------------------------------
 
          Ground-State Mulliken Net Atomic Charges

     Atom                 Charge (a.u.)
  ----------------------------------------
      1 O                    -0.215806
      2 C                     0.212184
      3 C                    -0.078815
      4 C                    -0.077936
      5 C                     0.212290
      6 O                    -0.172065
      7 C                    -0.056240
      8 C                    -0.054971
      9 O                    -0.171887
     10 C                     0.215565
     11 C                    -0.078669
     12 C                    -0.081842
     13 C                     0.216352
     14 O                    -0.215387
     15 O                    -0.168144
     16 O                    -0.179628
     17 O                    -0.207700
     18 C                    -0.128167
     19 C                     0.025634
     20 C                    -0.143799
     21 C                    -0.143738
     22 C                     0.024587
     23 O                    -0.189157
     24 H                     0.088005
     25 H                     0.082536
     26 H                     0.084796
     27 H                     0.078524
     28 H                     0.074871
     29 H                     0.078234
     30 H                     0.073323
     31 H                     0.090803
     32 O                    -0.214515
     33 C                    -0.127291
     34 C                     0.023044
     35 C                    -0.144163
     36 C                    -0.142027
     37 C                     0.028143
     38 O                    -0.188712
     39 H                     0.083983
     40 H                     0.086884
     41 H                     0.088334
     42 H                     0.092844
     43 H                     0.077252
     44 H                     0.071953
     45 H                     0.077832
     46 H                     0.073973
     47 H                     0.084192
     48 H                     0.093690
     49 H                     0.091050
     50 H                     0.080491
     51 H                     0.087073
     52 H                     0.094875
     53 H                     0.105705
     54 H                     0.088069
     55 H                     0.106626
     56 H                     0.086943
  ----------------------------------------
  Sum of atomic charges =    -0.000000

 -----------------------------------------------------------------
                    Cartesian Multipole Moments
 -----------------------------------------------------------------
    Charge (ESU x 10^10)
                -0.0000
    Dipole Moment (Debye)
         X       1.9065      Y       0.7339      Z       0.6833
       Tot       2.1541
    Quadrupole Moments (Debye-Ang)
        XX    -161.0663     XY       2.9781     YY    -149.3920
        XZ     -11.6146     YZ       0.1500     ZZ    -160.7819
    Octopole Moments (Debye-Ang^2)
       XXX     150.9960    XXY      -0.1573    XYY       0.5034
       YYY     -39.0583    XXZ      56.0055    XYZ     -16.2214
       YYZ     -19.6844    XZZ      -5.4982    YZZ      -4.0441
       ZZZ     -17.1025
    Hexadecapole Moments (Debye-Ang^3)
      XXXX  -10094.0750   XXXY    -272.9994   XXYY   -2232.4988
      XYYY    -103.4076   YYYY   -2848.7993   XXXZ     215.4541
      XXYZ     -47.2977   XYYZ      96.2071   YYYZ      14.5017
      XXZZ   -2049.3195   XYZZ     -24.4878   YYZZ    -763.6252
      XZZZ     255.9161   YZZZ     -58.0450   ZZZZ   -1777.9607
 -----------------------------------------------------------------
Archival summary:
1\1\vega02.cac.cornell.edu\OPT\ProcedureUnspecified\STO-3G\102026\jj585\MonJan1508:20:532018MonJan1508:20:532018\0\\#,OPT,ProcedureUnspecified,STO-3G,\\0,1\O\C,1,1.43872\O,2,1.24885,1,124.223\C,1,1.47964,2,109.014,3,-11.4373,0\H,4,1.10505,1,106.415,2,179.456,0\H,4,1.1092,1,111.785,2,59.9059,0\H,4,1.10925,1,110.968,2,-61.6094,0\C,2,1.57378,1,108.567,3,-173.347,0\H,8,1.10505,2,108.084,1,52.0462,0\C,8,1.58263,2,114.453,1,-71.2299,0\H,10,1.10483,8,112.63,2,118.297,0\C,10,1.56215,8,112.317,2,-5.51134,0\O,12,1.2532,10,126.766,8,-13.0763,0\O,12,1.42762,10,108.806,8,170.715,0\C,14,1.48657,12,110.173,10,178.277,0\H,15,1.10995,14,108.046,12,-130.51,0\H,15,1.11117,14,109.166,12,-9.99978,0\C,15,1.56456,14,106.77,12,110.044,0\H,18,1.11044,15,110.75,14,173.02,0\H,18,1.11196,15,111.041,14,49.9187,0\O,18,1.48462,15,107.298,14,-68.575,0\C,21,1.43563,18,109.741,15,116.447,0\O,22,1.25123,21,124.012,18,1.1009,0\C,22,1.56511,21,108.733,18,-176.059,0\H,24,1.10347,22,108.62,21,-0.946083,0\C,8,1.58417,2,111.359,1,174.785,0\H,26,1.10729,8,113.892,2,-30.5929,0\O,26,1.48276,8,103.805,2,89.3346,0\C,28,1.47921,26,95.0043,8,56.0595,0\H,29,1.10754,28,110.874,26,179.81,0\C,26,1.57764,8,108.122,2,-161.388,0\H,31,1.10171,26,110.558,8,168.905,0\H,31,1.10185,26,112.215,8,47.2927,0\C,31,1.57463,26,100.973,8,-73.0582,0\H,34,1.10159,31,111.642,26,-119.48,0\H,34,1.10186,31,112.793,26,117.815,0\C,24,1.58634,22,113.109,21,-126.306,0\H,37,1.10605,24,110.273,22,129.629,0\C,37,1.57189,24,112.972,22,9.49231,0\O,39,1.25097,37,126.145,24,43.158,0\O,39,1.42923,37,109.946,24,-138.926,0\C,41,1.4813,39,109.864,37,-179.765,0\H,42,1.1055,41,105.975,39,-178.447,0\H,42,1.10895,41,111.413,39,-59.2004,0\H,42,1.10937,41,111.578,39,62.3174,0\C,37,1.58834,24,101.15,22,-113.023,0\H,46,1.1065,37,113.793,24,152.102,0\O,46,1.48215,37,103.887,24,31.7009,0\C,48,1.48095,46,94.9694,37,-55.6827,0\H,49,1.10699,48,111.155,46,-179.135,0\C,46,1.57808,37,108.02,24,-77.4606,0\H,51,1.10175,46,110.429,37,-169.429,0\H,51,1.10183,46,112.374,37,-47.8563,0\C,51,1.57338,46,100.843,37,72.5286,0\H,54,1.10033,51,112.652,46,-117.366,0\H,54,1.10129,51,111.828,46,120.13,0\\\@

 Total job time:  60.94s(wall), 2903.87s(cpu) 
 Mon Jan 15 08:20:53 2018

        *************************************************************
        *                                                           *
        *  Thank you very much for using Q-Chem.  Have a nice day.  *
        *                                                           *
        *************************************************************


0 sent ACK to 0 
now end server 0 ... 
