mFile = /opt/software/qchem/qchem-5.0.1//bin/mpi/machines
Process 0 of 1 is on vega02.cac.cornell.edu - thread support 0
initial socket setup ...start
initial socket setup ...done 
now start server 0 ... 
vega02.cac.cornell.edu 10.84.3
Q-Chem Developer Version! Running on 10.84.3.*
                  Welcome to Q-Chem
     A Quantum Leap Into The Future Of Chemistry


 Q-Chem 5.0, Q-Chem, Inc., Pleasanton, CA (2017)

 Yihan Shao,  Zhengting Gan,  E. Epifanovsky,  A. T. B. Gilbert,  M. Wormit,  
 J. Kussmann,  A. W. Lange,  A. Behn,  Jia Deng,  Xintian Feng,  D. Ghosh,  
 M. Goldey,  P. R. Horn,  L. D. Jacobson,  I. Kaliman,  T. Kus,  A. Landau,  
 Jie Liu,  E. I. Proynov,  R. M. Richard,  R. P. Steele,  E. J. Sundstrom,  
 H. L. Woodcock III,  P. M. Zimmerman,  D. Zuev,  B. Albrecht,  E. Alguire,  
 S. A. Baeppler,  Z. Benda,  Y. A. Bernard,  E. J. Berquist,  K. B. Bravaya,  
 D. Casanova,  Chun-Min Chang,  Yunqing Chen,  A. Chien,  K. D. Closser,  
 M. P. Coons,  S. Dasgupta,  M. Diedenhofen,  Hainam Do,  R. G. Edgar,  
 Po-Tung Fang,  S. Fatehi,  Qingguo Feng,  Qinghui Ge,  A. Ghysels,  
 J. Gomes,  J. Gonthier,  A. Gunina,  M. W. D. Hanson-Heine,  
 P. H. P. Harbach,  A. W. Hauser,  J. E. Herr,  E. G. Hohenstein,  
 Z. C. Holden,  Kerwin Hui,  T.-C. Jagau,  Hyunjun Ji,  B. Kaduk,  
 K. Khistyaev,  Jaehoon Kim,  P. Klunzinger,  K. Koh,  D. Kosenkov,  
 T. Kowalczyk,  C. M. Krauter,  A. Kunitsa,  Ka Un Lao,  A. Laurent,  
 K. V. Lawler,  Joonho Lee,  D. Lefrancois,  S. Lehtola,  D. S. Levine,  
 Yi-Pei Li,  You-Sheng Lin,  Fenglai Liu,  E. Livshits,  A. Luenser,  
 P. Manohar,  E. Mansoor,  S. F. Manzer,  Shan-Ping Mao,  Yuezhi Mao,  
 N. Mardirossian,  A. V. Marenich,  L. A. Martinez-Martinez,  S. A. Maurer,  
 N. J. Mayhall,  S. C. McKenzie,  J.-M. Mewes,  A. F. Morrison,  K. Nanda,  
 T. S. Nguyen-Beck,  R. Olivares-Amaya,  J. A. Parkhill,  T. M. Perrine,  
 F. Plasser,  S. Prager,  A. Prociuk,  D. R. Rehn,  F. Rob,  M. Schneider,  
 N. Sergueev,  S. M. Sharada,  S. Sharma,  D. W. Small,  T. Stauch,  
 T. Stein,  Yu-Chuan Su,  A. J. W. Thom,  T. Tsuchimochi,  L. Vogt,  
 O. Vydrov,  M. A. Watson,  J. Wenzel,  M. de Wergifosse,  T. A. Wesolowski,  
 A. White,  J. Witte,  A. Yamada,  Jun Yang,  K. Yao,  S. Yeganeh,  
 S. R. Yost,  Zhi-Qiang You,  A. Zech,  Igor Ying Zhang,  Xing Zhang,  
 Yan Zhao,  Ying Zhu,  B. R. Brooks,  G. K. L. Chan,  C. J. Cramer,  
 M. S. Gordon,  W. J. Hehre,  A. Klamt,  M. W. Schmidt,  C. D. Sherrill,  
 D. G. Truhlar,  A. Aspuru-Guzik,  R. Baer,  A. T. Bell,  N. A. Besley,  
 Jeng-Da Chai,  A. Dreuw,  B. D. Dunietz,  T. R. Furlani,  Chao-Ping Hsu,  
 Yousung Jung,  Jing Kong,  D. S. Lambrecht,  WanZhen Liang,  C. Ochsenfeld,  
 V. A. Rassolov,  L. V. Slipchenko,  J. E. Subotnik,  T. Van Voorhis,  
 J. M. Herbert,  A. I. Krylov,  P. M. W. Gill,  M. Head-Gordon

 Contributors to earlier versions of Q-Chem not listed above: 
 R. D. Adamson,  B. Austin,  J. Baker,  G. J. O. Beran,  K. Brandhorst,  
 S. T. Brown,  E. F. C. Byrd,  A. K. Chakraborty,  C.-L. Cheng,  
 Siu Hung Chien,  D. M. Chipman,  D. L. Crittenden,  H. Dachsel,  
 R. A. DiStasio Jr.,  R. J. Doerksen,  A. D. Dutoi,  L. Fusti-Molnar,  
 W. A. Goddard III,  A. Golubeva-Zadorozhnaya,  S. R. Gwaltney,  G. Hawkins,  
 A. Heyden,  S. Hirata,  G. Kedziora,  F. J. Keil,  C. Kelley,  Jihan Kim,  
 R. A. King,  R. Z. Khaliullin,  P. P. Korambath,  W. Kurlancheek,  
 A. M. Lee,  M. S. Lee,  S. V. Levchenko,  Ching Yeh Lin,  D. Liotard,  
 R. C. Lochan,  I. Lotan,  P. E. Maslen,  N. Nair,  D. P. O'Neill,  
 D. Neuhauser,  E. Neuscamman,  C. M. Oana,  R. Olson,  B. Peters,  
 R. Peverati,  P. A. Pieniazek,  Y. M. Rhee,  J. Ritchie,  M. A. Rohrdanz,  
 E. Rosta,  N. J. Russ,  H. F. Schaefer III,  N. E. Schultz,  N. Shenvi,  
 A. C. Simmonett,  A. Sodt,  D. Stuck,  K. S. Thanthiriwatte,  V. Vanovschi,  
 Tao Wang,  A. Warshel,  C. F. Williams,  Q. Wu,  X. Xu,  W. Zhang

 Please cite Q-Chem as follows:
 Y. Shao et al., Mol. Phys. 113, 184-215 (2015)
 DOI: 10.1080/00268976.2014.952696

 Q-Chem 5.0.1 for Intel X86 EM64T Linux

 Parts of Q-Chem use Armadillo 5.200.1 (Boston Tea Smuggler).
 http://arma.sourceforge.net/

 Q-Chem begins on Mon Jan 15 12:03:53 2018  

Host: vega02.cac.cornell.edu
0

     Scratch files written to /scratch/jj585/SOT1001/0783r.save//
 Parallel job on  1  processors

Checking the input file for inconsistencies... 	...done.

--------------------------------------------------------------
User input:
--------------------------------------------------------------
$molecule
0  1
O -5.6021156768 0.4555604283 2.0826347738
C -5.3346980502 0.7922976406 0.9099355043
C -5.1245781951 -0.1545775948 -0.330511573
C -3.6634416731 -0.1448934758 -0.9331919435
C -2.6434715657 0.5835804654 0.0086259396
O -1.3348822801 0.4487860415 -0.5398537992
C -0.3447172426 1.1682432532 0.3021703088
C 1.035458807 1.1084986703 -0.4521560559
O 1.9846332685 0.2297867841 0.2694101634
C 2.3386826924 -0.9120388545 -0.5301133622
C 3.8110416016 -1.3695116796 -0.2123479581
C 4.9254819348 -0.2555708451 -0.3264351178
C 4.5615222777 0.9973022967 -1.1892256568
O 3.4873089743 1.2670822293 -1.7677388563
O -5.3675857745 2.1450281047 0.4239257065
O 5.7139022325 1.8476752769 -1.2168939856
O 1.5897875526 -1.4178309545 -1.3944754654
C 5.4245942357 3.0677945582 -2.005282795
C 3.9204318491 -1.6892758241 1.3459242812
C 5.3190485071 -2.3575821422 1.6629693372
C 6.2706597445 -1.1029962427 1.6634190895
C 5.2642255011 0.024208947 1.2080137161
O 4.0278113081 -0.3330729993 1.9341202409
H 4.0364007101 -2.2465393269 -0.8438798713
H 5.8201866244 -0.6951212536 -0.8066566527
H 3.0434546969 -2.2215264524 1.7629848994
H 5.2975960729 -2.8523108474 2.6467015775
H 5.599592619 -3.101910985 0.9003402628
H 6.650407553 -0.8876030301 2.6751692868
H 7.1261290109 -1.2081025178 0.9774073185
H 5.5713888322 1.063797668 1.4330568403
O -2.8967829939 1.1701319898 1.0861032127
C -5.5229396669 3.0765803605 1.5614912491
C -5.2961055338 -1.6877483734 0.0366497456
C -5.6389847705 -2.466497036 -1.2912296416
C -4.2506693004 -2.4106356056 -2.0332953328
C -3.3459688534 -1.7024290106 -0.9470894017
O -3.9200100207 -2.1454652734 0.3445066419
H -5.8520102791 0.150968219 -1.104348324
H -3.6191044937 0.3032530007 -1.9420375806
H -4.6460638757 3.0298434168 2.2395425718
H -5.9662414436 -1.8736042992 0.8983622155
H -5.9305274313 -3.5044091969 -1.0637291327
H -6.4501347523 -1.9873998034 -1.8624732075
H -3.8676017518 -3.4186957696 -2.2573627774
H -4.2946791553 -1.8329624253 -2.9704999612
H -2.265220324 -1.9391785826 -1.000815877
H -6.4365446839 2.8573766747 2.151547964
H -5.5984091671 4.0890797142 1.1237912286
H 6.3446757702 3.679519941 -1.9688030212
H 4.579723113 3.6418172691 -1.5730000376
H 5.1816244024 2.8254496392 -3.060142779
H 0.8625464648 0.7409182348 -1.4856154402
H 1.4938245244 2.118513004 -0.4862981684
H -0.2506848637 0.6859023669 1.3003028945
H -0.6703599943 2.2191644264 0.4594022782
$end

$rem
JOBTYPE                   OPT
METHOD                    B3LYP
DFT_D                     d3_op
BASIS                     STO-3G
GEOM_OPT_MAX_CYCLES       100
GEOM_OPT_TOL_GRADIENT     300
GEOM_OPT_TOL_DISPLACEMENT 1200
GEOM_OPT_TOL_ENERGY       100
SYMMETRY                  False
THRESH                    12
SCF_CONVERGENCE           8
MAX_SUB_FILE_NUM          128
MEM_STATIC                400
MEM_TOTAL                 4000
$end
--------------------------------------------------------------
 Adding empirical dispersion correction 
 ----------------------------------------------------------------
 Doing -D3(op) with
 s6 =   1.00000
 s8 =   0.78311
 a1 =   0.30000
 a2 =   4.25000
 n  =  10.00000
 -D3 energy without 3body term =     -0.0649201370 hartrees
 ----------------------------------------------------------------
             Standard Nuclear Orientation (Angstroms)
    I     Atom           X                Y                Z
 ----------------------------------------------------------------
    1      O      -5.6054196115     0.5497265656     2.0388848487
    2      C      -5.3203630443     0.8856546359     0.8701150686
    3      C      -5.1110987322    -0.0608322875    -0.3707729070
    4      C      -3.6435706967    -0.0714206588    -0.9577027995
    5      C      -2.6230088124     0.6390468195    -0.0028605977
    6      O      -1.3107511165     0.4861372757    -0.5376539128
    7      C      -0.3190488202     1.1883127841     0.3170543359
    8      C       1.0681265229     1.1099391227    -0.4225845923
    9      O       1.9961955602     0.2150806724     0.3065524059
   10      C       2.3416916687    -0.9297153182    -0.4924652601
   11      C       3.8035200307    -1.4101220177    -0.1602541251
   12      C       4.9356920018    -0.3127288538    -0.2591085167
   13      C       4.5998667492     0.9478509504    -1.1220831471
   14      O       3.5361138464     1.2353300131    -1.7113017019
   15      O      -5.3277371572     2.2400662667     0.3877442659
   16      O       5.7650910567     1.7808981472    -1.1348887398
   17      O       1.5946605940    -1.4218115195    -1.3662943775
   18      C       5.5026120878     3.0074010916    -1.9227608175
   19      C       3.8913060103    -1.7358039219     1.3981593711
   20      C       5.2762531967    -2.4259102895     1.7282411048
   21      C       6.2464969096    -1.1857605217     1.7425805478
   22      C       5.2620328938    -0.0423145651     1.2797010538
   23      O       4.0126500862    -0.3829993390     1.9914437152
   24      H       4.0225051227    -2.2886834867    -0.7918964716
   25      H       5.8288333264    -0.7643331969    -0.7309833491
   26      H       3.0020078856    -2.2559787231     1.8042212355
   27      H       5.2367890545    -2.9229816906     2.7102331734
   28      H       5.5538152109    -3.1722542255     0.9664907602
   29      H       6.6185035778    -0.9788944274     2.7589754286
   30      H       7.1076388797    -1.3018010634     1.0654865774
   31      H       5.5822963169     0.9919180471     1.5110723406
   32      O      -2.8791002492     1.2263515822     1.0735486814
   33      C      -5.4813656509     3.1706943983     1.5263000912
   34      C      -5.3095278039    -1.5922649510    -0.0099660350
   35      C      -5.6497067778    -2.3620995306    -1.3437247475
   36      C      -4.2527932316    -2.3250368008    -2.0706777945
   37      C      -3.3493411937    -1.6335031013    -0.9727532241
   38      O      -3.9438433082    -2.0714428597     0.3113031359
   39      H      -5.8254884790     0.2577420505    -1.1514755899
   40      H      -3.5816530662     0.3787998254    -1.9646974827
   41      H      -4.6126471980     3.1089199191     2.2135855157
   42      H      -5.9916215304    -1.7704217656     0.8439550628
   43      H      -5.9592043067    -3.3961427393    -1.1224078241
   44      H      -6.4473829908    -1.8692976377    -1.9222371643
   45      H      -3.8824814354    -3.3381111959    -2.2935717257
   46      H      -4.2780387846    -1.7441764277    -3.0066049151
   47      H      -2.2717453410    -1.8863040595    -1.0155683092
   48      H      -6.4044589704     2.9636012584     2.1058710228
   49      H      -5.5369331578     4.1854202549     1.0907824880
   50      H       6.4313101671     3.6051389897    -1.8746148868
   51      H       4.6618275058     3.5928464712    -1.4978929991
   52      H       5.2674208443     2.7716519882    -2.9808734886
   53      H       0.9008735918     0.7478579464    -1.4589127413
   54      H       1.5419167534     2.1130477531    -0.4488460093
   55      H      -0.2430173951     0.7018538757     1.3147218308
   56      H      -0.6305830365     2.2435659136     0.4738588987
 ----------------------------------------------------------------
 Molecular Point Group                 C1    NOp =  1
 Largest Abelian Subgroup              C1    NOp =  1
 Nuclear Repulsion Energy =  3035.7373439133 hartrees
 There are      113 alpha and      113 beta electrons
 Requested basis set is STO-3G
 There are 86 shells and 176 basis functions

 Total QAlloc Memory Limit   4000 MB
 Mega-Array Size       392 MB
 MEM_STATIC part       400 MB
 A cutoff of  1.0D-12 yielded   1984 shell pairs
 There are      9301 function pairs
 
 -------------------------------------------------------
 OpenMP Integral Computing Module                       
 Release: version 1.0, May 2013, Q-Chem Inc. Pittsburgh 
 -------------------------------------------------------
 Integral Job Info:
 Integral job number is                      11
 Integral operator is                         1
 short-range coefficients                     0
 long-range coefficients              100000000
 Omega coefficients                           0
 if combine SR and LR in K                    0
 Integral screening is                        0
 Integral computing path is                   2
 max size of driver memory is            800000
 size of driver memory is                 45569
 size of scratch memory is              1046100
 max col of scratch BK array                289
 max len of scratch array in speh3           22
 max len of scratch index in speh4            8
 max int batch size is                      520
 min int batch size is                       52
 fixed nKL is                                52
 max L of basis functions is                  1
 order of int derivative is                   0
 number of shells is                         86
 number of basis is                         176
 number of cartesian basis is               176
 number of contracted shell pairs          1984
 number of primitive shell pairs          10376
 maxK2 (contraction) of shell pair            9
 max number of K2 of shell pair               1
 max number of CS2 of shell pair            295
 max number of PS2 of shell pair           1216
 mem total for path MDJ                   49782
 -------------------------------------------------------
 Smallest overlap matrix eigenvalue = 2.13E-01

 Scale SEOQF with 1.000000e-02/1.000000e-01/1.000000e-01

 Standard Electronic Orientation quadrupole field applied
 Nucleus-field energy     =     0.0000000200 hartrees
 Guess from superposition of atomic densities
 Warning:  Energy on first SCF cycle will be non-variational
 A restricted hybrid HF-DFT SCF calculation will be
 performed using Pulay DIIS extrapolation
 Exchange:     0.2000 Hartree-Fock + 0.0800 Slater + 0.7200 B88
 Correlation:  0.1900 VWN1RPA + 0.8100 LYP
 Using SG-1 standard quadrature grid
 Dispersion:   Grimme D3
 SCF converges when DIIS error is below 1.0E-08
 using 48 threads for integral computing
 -------------------------------------------------------
 OpenMP Integral computing Module                
 Release: version 1.0, May 2013, Q-Chem Inc. Pittsburgh 
 -------------------------------------------------------
 -------------------------------------------------------
 OpenMP BLAS3 based DFT computing Module                
 Release: version 1.0, May 2013, Q-Chem Inc. Pittsburgh 
 -------------------------------------------------------
 ---------------------------------------
  Cycle       Energy         DIIS Error
 ---------------------------------------
    1   -1507.6199043472      7.46E-02
    2   -1509.7401622644      1.03E-02
    3   -1507.6785688389      2.54E-02
    4   -1510.1913606633      4.22E-03
    5   -1510.2658238525      1.33E-03
    6   -1510.2736039689      2.88E-04
    7   -1510.2739489596      1.00E-04
    8   -1510.2739855823      4.24E-05
    9   -1510.2739935647      6.85E-06
   10   -1510.2739937517      2.89E-06
   11   -1510.2739937806      1.42E-06
   12   -1510.2739937891      3.11E-07
   13   -1510.2739937896      8.84E-08
   14   -1510.2739937896      2.87E-08
   15   -1510.2739937896      1.76E-08
   16   -1510.2739937896      5.60E-09 Convergence criterion met
 ---------------------------------------
 SCF time:  CPU 118.41 s  wall 2.52 s
 SCF   energy in the final basis set = -1510.27399379
 Total energy in the final basis set = -1510.27399379
 
 --------------------------------------------------------------
 
                    Orbital Energies (a.u.)
 --------------------------------------------------------------
 
 Alpha MOs
 -- Occupied --
-18.941 -18.935 -18.918 -18.912 -18.891 -18.883 -18.879 -18.879
-18.874 -18.854 -10.107 -10.100 -10.096 -10.084 -10.071 -10.069
-10.066 -10.064 -10.062 -10.054 -10.050 -10.049 -10.042 -10.039
-10.034 -10.026 -10.023 -10.022 -10.015 -10.013  -1.019  -1.014
 -1.002  -0.991  -0.973  -0.963  -0.944  -0.938  -0.928  -0.918
 -0.766  -0.756  -0.727  -0.719  -0.712  -0.704  -0.691  -0.668
 -0.648  -0.610  -0.596  -0.575  -0.547  -0.540  -0.538  -0.531
 -0.516  -0.507  -0.487  -0.474  -0.463  -0.451  -0.448  -0.440
 -0.436  -0.425  -0.421  -0.416  -0.412  -0.408  -0.400  -0.396
 -0.395  -0.381  -0.375  -0.364  -0.359  -0.351  -0.348  -0.343
 -0.340  -0.335  -0.332  -0.332  -0.326  -0.326  -0.318  -0.316
 -0.308  -0.306  -0.302  -0.299  -0.294  -0.285  -0.278  -0.270
 -0.266  -0.261  -0.251  -0.239  -0.238  -0.236  -0.228  -0.185
 -0.178  -0.168  -0.160  -0.158  -0.152  -0.149  -0.145  -0.138
 -0.135
 -- Virtual --
  0.093   0.096   0.100   0.121   0.230   0.241   0.246   0.251
  0.263   0.278   0.282   0.290   0.306   0.314   0.325   0.332
  0.337   0.341   0.343   0.351   0.354   0.360   0.361   0.373
  0.376   0.384   0.390   0.397   0.405   0.407   0.409   0.412
  0.416   0.417   0.424   0.426   0.427   0.430   0.434   0.436
  0.438   0.440   0.442   0.445   0.447   0.448   0.456   0.463
  0.472   0.475   0.488   0.489   0.493   0.497   0.516   0.535
  0.546   0.550   0.559   0.636   0.642   0.649   0.662
 --------------------------------------------------------------
 
          Ground-State Mulliken Net Atomic Charges

     Atom                 Charge (a.u.)
  ----------------------------------------
      1 O                    -0.219245
      2 C                     0.216271
      3 C                    -0.082048
      4 C                    -0.076867
      5 C                     0.215417
      6 O                    -0.170301
      7 C                    -0.049089
      8 C                    -0.045123
      9 O                    -0.176064
     10 C                     0.215480
     11 C                    -0.078835
     12 C                    -0.079428
     13 C                     0.211248
     14 O                    -0.215375
     15 O                    -0.177990
     16 O                    -0.171268
     17 O                    -0.208700
     18 C                    -0.128438
     19 C                     0.025986
     20 C                    -0.145375
     21 C                    -0.141851
     22 C                     0.027228
     23 O                    -0.183972
     24 H                     0.085279
     25 H                     0.085846
     26 H                     0.084122
     27 H                     0.079008
     28 H                     0.073973
     29 H                     0.078537
     30 H                     0.074066
     31 H                     0.086764
     32 O                    -0.207542
     33 C                    -0.128423
     34 C                     0.023704
     35 C                    -0.143252
     36 C                    -0.144431
     37 C                     0.023929
     38 O                    -0.191461
     39 H                     0.082290
     40 H                     0.086537
     41 H                     0.090785
     42 H                     0.089339
     43 H                     0.077047
     44 H                     0.072314
     45 H                     0.078007
     46 H                     0.072969
     47 H                     0.089711
     48 H                     0.085898
     49 H                     0.084303
     50 H                     0.091736
     51 H                     0.088892
     52 H                     0.089655
     53 H                     0.106366
     54 H                     0.089207
     55 H                     0.095537
     56 H                     0.087623
  ----------------------------------------
  Sum of atomic charges =     0.000000

 -----------------------------------------------------------------
                    Cartesian Multipole Moments
 -----------------------------------------------------------------
    Charge (ESU x 10^10)
                 0.0000
    Dipole Moment (Debye)
         X       3.4078      Y       1.1066      Z      -2.4117
       Tot       4.3191
    Quadrupole Moments (Debye-Ang)
        XX    -140.0174     XY      -1.1780     YY    -149.3983
        XZ       8.9130     YZ      -1.4768     ZZ    -164.4815
    Octopole Moments (Debye-Ang^2)
       XXX      82.1402    XXY       8.4431    XYY      20.5700
       YYY      53.6464    XXZ     -65.9993    XYZ     -35.5432
       YYZ       3.8090    XZZ      13.4337    YZZ      12.4639
       ZZZ      -9.1308
    Hexadecapole Moments (Debye-Ang^3)
      XXXX  -17680.1308   XXXY       2.5380   XXYY   -3234.3356
      XYYY      11.8936   YYYY   -2630.3464   XXXZ      51.3084
      XXYZ      -3.6628   XYYZ    -111.4430   YYYZ      -0.0409
      XXZZ   -3353.0583   XYZZ      11.8073   YYZZ    -702.5264
      XZZZ     -76.5353   YZZZ     -30.7163   ZZZZ   -1650.5808
 -----------------------------------------------------------------
 Calculating analytic gradient of the SCF energy
 Gradient of SCF Energy
            1           2           3           4           5           6
    1  -0.0014553   0.0020267  -0.0001008  -0.0006680   0.0000112   0.0000296
    2   0.0001176   0.0001075  -0.0021677   0.0030142   0.0000961  -0.0010571
    3  -0.0003589   0.0002583   0.0013139  -0.0018108  -0.0001239   0.0007822
            7           8           9          10          11          12
    1   0.0003321   0.0071977  -0.0075535  -0.0039965   0.0055976  -0.0025468
    2  -0.0002653   0.0041165  -0.0012592  -0.0088663   0.0041054   0.0034486
    3   0.0003607  -0.0050752   0.0007878   0.0130136  -0.0145848   0.0079365
           13          14          15          16          17          18
    1   0.0022430  -0.0011951   0.0000290  -0.0000274   0.0000286   0.0000226
    2  -0.0031613   0.0018126   0.0000134  -0.0000573  -0.0000082   0.0000349
    3  -0.0055547   0.0030408   0.0000041   0.0000694   0.0000101   0.0000051
           19          20          21          22          23          24
    1   0.0000161   0.0000256   0.0000291   0.0000503  -0.0000672   0.0000174
    2   0.0000960  -0.0000747   0.0000233  -0.0000135  -0.0000307   0.0000235
    3  -0.0000646   0.0000477  -0.0000446  -0.0000022   0.0000436  -0.0000007
           25          26          27          28          29          30
    1  -0.0000009  -0.0000114  -0.0000017  -0.0000029  -0.0000140  -0.0000200
    2   0.0000189   0.0000106  -0.0000146  -0.0000065   0.0000194   0.0000226
    3  -0.0000009   0.0000081  -0.0000053   0.0000042   0.0000030  -0.0000128
           31          32          33          34          35          36
    1  -0.0000106  -0.0000025  -0.0000189   0.0000175   0.0000177  -0.0000115
    2  -0.0000055   0.0000021   0.0000022  -0.0000038   0.0000307  -0.0000180
    3  -0.0000021   0.0000059  -0.0000070  -0.0000329  -0.0000327   0.0000383
           37          38          39          40          41          42
    1  -0.0000043   0.0000062   0.0000094  -0.0000309  -0.0000038  -0.0000072
    2  -0.0000583  -0.0000405   0.0000470  -0.0000128  -0.0000009  -0.0000087
    3  -0.0000635   0.0000067   0.0000160  -0.0000052   0.0000040  -0.0000092
           43          44          45          46          47          48
    1   0.0000311  -0.0000195   0.0000012   0.0000135  -0.0000019   0.0000093
    2  -0.0000048  -0.0000286   0.0000084   0.0000023   0.0000511  -0.0000183
    3   0.0000042   0.0000015  -0.0000119  -0.0000421   0.0000130   0.0000026
           49          50          51          52          53          54
    1  -0.0000100  -0.0000108  -0.0000014  -0.0000083   0.0000060   0.0000190
    2  -0.0000186   0.0000090   0.0000018   0.0000167  -0.0000172   0.0000035
    3   0.0000062  -0.0000103   0.0000206   0.0000018   0.0000108   0.0000253
           55          56
    1   0.0000155  -0.0000001
    2  -0.0000280  -0.0000094
    3   0.0000055   0.0000048
 Max gradient component =       1.458E-02
 RMS gradient           =       2.246E-03
 Gradient time:  CPU 31.94 s  wall 0.69 s
 Geometry Optimization Parameters
   NAtoms,    NIC,     NZ,  NCons,   NDum,   NFix, NCnnct, MaxDiis
       56     458       0       0       0       0       0       0


** GEOMETRY OPTIMIZATION IN DELOCALIZED INTERNAL COORDINATES **
   Searching for a Minimum

   Optimization Cycle:   1

                       Coordinates (Angstroms)
     ATOM                X               Y               Z
      1  O        -5.6054196115    0.5497265656    2.0388848487
      2  C        -5.3203630443    0.8856546359    0.8701150686
      3  C        -5.1110987322   -0.0608322875   -0.3707729070
      4  C        -3.6435706967   -0.0714206588   -0.9577027995
      5  C        -2.6230088124    0.6390468195   -0.0028605977
      6  O        -1.3107511165    0.4861372757   -0.5376539128
      7  C        -0.3190488202    1.1883127841    0.3170543359
      8  C         1.0681265229    1.1099391227   -0.4225845923
      9  O         1.9961955602    0.2150806724    0.3065524059
     10  C         2.3416916687   -0.9297153182   -0.4924652601
     11  C         3.8035200307   -1.4101220177   -0.1602541251
     12  C         4.9356920018   -0.3127288538   -0.2591085167
     13  C         4.5998667492    0.9478509504   -1.1220831471
     14  O         3.5361138464    1.2353300131   -1.7113017019
     15  O        -5.3277371572    2.2400662667    0.3877442659
     16  O         5.7650910567    1.7808981472   -1.1348887398
     17  O         1.5946605940   -1.4218115195   -1.3662943775
     18  C         5.5026120878    3.0074010916   -1.9227608175
     19  C         3.8913060103   -1.7358039219    1.3981593711
     20  C         5.2762531967   -2.4259102895    1.7282411048
     21  C         6.2464969096   -1.1857605217    1.7425805478
     22  C         5.2620328938   -0.0423145651    1.2797010538
     23  O         4.0126500862   -0.3829993390    1.9914437152
     24  H         4.0225051227   -2.2886834867   -0.7918964716
     25  H         5.8288333264   -0.7643331969   -0.7309833491
     26  H         3.0020078856   -2.2559787231    1.8042212355
     27  H         5.2367890545   -2.9229816906    2.7102331734
     28  H         5.5538152109   -3.1722542255    0.9664907602
     29  H         6.6185035778   -0.9788944274    2.7589754286
     30  H         7.1076388797   -1.3018010634    1.0654865774
     31  H         5.5822963169    0.9919180471    1.5110723406
     32  O        -2.8791002492    1.2263515822    1.0735486814
     33  C        -5.4813656509    3.1706943983    1.5263000912
     34  C        -5.3095278039   -1.5922649510   -0.0099660350
     35  C        -5.6497067778   -2.3620995306   -1.3437247475
     36  C        -4.2527932316   -2.3250368008   -2.0706777945
     37  C        -3.3493411937   -1.6335031013   -0.9727532241
     38  O        -3.9438433082   -2.0714428597    0.3113031359
     39  H        -5.8254884790    0.2577420505   -1.1514755899
     40  H        -3.5816530662    0.3787998254   -1.9646974827
     41  H        -4.6126471980    3.1089199191    2.2135855157
     42  H        -5.9916215304   -1.7704217656    0.8439550628
     43  H        -5.9592043067   -3.3961427393   -1.1224078241
     44  H        -6.4473829908   -1.8692976377   -1.9222371643
     45  H        -3.8824814354   -3.3381111959   -2.2935717257
     46  H        -4.2780387846   -1.7441764277   -3.0066049151
     47  H        -2.2717453410   -1.8863040595   -1.0155683092
     48  H        -6.4044589704    2.9636012584    2.1058710228
     49  H        -5.5369331578    4.1854202549    1.0907824880
     50  H         6.4313101671    3.6051389897   -1.8746148868
     51  H         4.6618275058    3.5928464712   -1.4978929991
     52  H         5.2674208443    2.7716519882   -2.9808734886
     53  H         0.9008735918    0.7478579464   -1.4589127413
     54  H         1.5419167534    2.1130477531   -0.4488460093
     55  H        -0.2430173951    0.7018538757    1.3147218308
     56  H        -0.6305830365    2.2435659136    0.4738588987
   Point Group: c1    Number of degrees of freedom:   162


   Energy is  -1510.273993790


 Attempting to Generate Delocalized Internal Coordinates

162 Hessian modes will be used to form the next step
  Hessian Eigenvalues:
     0.002000    0.002000    0.002000    0.002000    0.002000    0.002721
     0.002769    0.004111    0.004183    0.004320    0.004460    0.004860
     0.004904    0.004914    0.005261    0.006792    0.006798    0.010595
     0.010650    0.011354    0.012302    0.021584    0.021693    0.025439
     0.026240    0.030707    0.030806    0.034993    0.035409    0.038405
     0.040688    0.041971    0.042126    0.044130    0.046292    0.047546
     0.047888    0.048890    0.051067    0.051147    0.051572    0.053093
     0.054073    0.054578    0.055448    0.055633    0.055780    0.056908
     0.057317    0.058645    0.059666    0.060408    0.060477    0.063210
     0.063500    0.064303    0.064416    0.069673    0.070109    0.072974
     0.073254    0.091561    0.091935    0.092688    0.093222    0.096407
     0.096610    0.096953    0.097019    0.102607    0.102608    0.107676
     0.110213    0.111325    0.111583    0.120995    0.122921    0.134400
     0.136827    0.157153    0.158266    0.160000    0.160000    0.160000
     0.160000    0.160000    0.160000    0.163128    0.164969    0.217617
     0.219093    0.219448    0.220893    0.229922    0.230213    0.238102
     0.238306    0.239020    0.239695    0.242232    0.247011    0.247927
     0.249758    0.249940    0.249999    0.250000    0.250000    0.250000
     0.250000    0.250000    0.250000    0.250000    0.250000    0.252639
     0.253440    0.256595    0.256921    0.257077    0.261906    0.264823
     0.291798    0.293388    0.306717    0.308767    0.323317    0.324527
     0.325547    0.326337    0.326577    0.326598    0.326767    0.326919
     0.328469    0.328776    0.328847    0.329057    0.329748    0.330664
     0.330832    0.331198    0.331574    0.332446    0.334654    0.334700
     0.334813    0.334822    0.334911    0.335076    0.335253    0.335346
     0.339347    0.344328    0.344414    0.347412    0.398365    0.398936
     0.406410    0.416759    0.822603    0.830463    0.834007    0.835886

 Minimum Search - Taking Simple RFO Step
 Searching for Lamda that Minimizes Along All modes
 Value Taken    Lamda =  -0.02021467
 Calculated Step too Large.  Step scaled by  0.352207
 Step Taken.  Stepsize is  0.300000

                             Maximum     Tolerance    Cnvgd?
         Gradient           0.009012      0.000300      NO
         Displacement       0.113888      0.001200      NO
         Energy change     *********      0.000001      NO


 New Cartesian Coordinates Obtained by Inverse Iteration

 Displacement from previous Coordinates is:  3.994658
 Adding empirical dispersion correction 
 ----------------------------------------------------------------
 Doing -D3(op) with
 s6 =   1.00000
 s8 =   0.78311
 a1 =   0.30000
 a2 =   4.25000
 n  =  10.00000
 -D3 energy without 3body term =     -0.0644309617 hartrees
 ----------------------------------------------------------------
             Standard Nuclear Orientation (Angstroms)
    I     Atom           X                Y                Z
 ----------------------------------------------------------------
    1      O      -5.5211779767     0.4408756265     2.1510092006
    2      C      -5.3137364626     0.7810028883     0.9671893943
    3      C      -5.1063863266    -0.1637940713    -0.2753092331
    4      C      -3.6646429227    -0.1053837073    -0.9204450301
    5      C      -2.6449677352     0.6662378386    -0.0133046637
    6      O      -1.3516131412     0.5880575003    -0.6070422802
    7      C      -0.3596107290     1.3277679552     0.2150378316
    8      C       0.9962674576     1.3284048659    -0.5843914842
    9      O       1.9931089446     0.4586616249     0.0815870412
   10      C       2.3529717005    -0.6501000753    -0.7607065436
   11      C       3.7198894971    -1.2743043159    -0.2916134196
   12      C       4.9640714546    -0.3009583970    -0.2864519527
   13      C       4.8380022965     0.9820548810    -1.1721860537
   14      O       3.8779748227     1.3568586698    -1.8787708782
   15      O      -5.4141099388     2.1290555099     0.4774820266
   16      O       6.0753123418     1.6965563748    -1.0698310652
   17      O       1.6259872810    -1.0944552198    -1.6760448445
   18      C       6.0171664416     2.9303835052    -1.8872639177
   19      C       3.6292685345    -1.5972533041     1.2666478730
   20      C       4.9001711581    -2.4224914070     1.7215776891
   21      C       5.9867905634    -1.2877345209     1.8276078103
   22      C       5.1715186507    -0.0534715104     1.2771795745
   23      O       3.8336672658    -0.2592933222     1.8704195629
   24      H       3.9065011052    -2.1735642790    -0.9042460599
   25      H       5.8472417373    -0.8437835932    -0.6733253994
   26      H       2.6577275163    -2.0208305002     1.5875819074
   27      H       4.7199212201    -2.9054872775     2.6948016603
   28      H       5.1688722053    -3.1989818979     0.9872782552
   29      H       6.2826529451    -1.1119835597     2.8744209562
   30      H       6.8903338197    -1.4964100082     1.2329965881
   31      H       5.5731205233     0.9444532210     1.5391233589
   32      O      -2.8859853937     1.2418051246     1.0728790579
   33      C      -5.5626310261     3.0601054413     1.6163741350
   34      C      -5.2101321750    -1.7002476667     0.1041074334
   35      C      -5.5635557296    -2.4986673914    -1.2092611319
   36      C      -4.2007874486    -2.3967328866    -1.9926795230
   37      C      -3.2906419136    -1.6500750400    -0.9372098275
   38      O      -3.8097148040    -2.1060453612     0.3729487561
   39      H      -5.8677367907     0.1099286262    -1.0281472786
   40      H      -3.6674543797     0.3391435720    -1.9318607338
   41      H      -4.6608059685     3.0489833479     2.2624676534
   42      H      -5.8471372098    -1.9054482251     0.9863128154
   43      H      -5.8102429278    -3.5451513341    -0.9683517801
   44      H      -6.4081709529    -2.0525783767    -1.7583026576
   45      H      -3.7880603979    -3.3914824496    -2.2234854778
   46      H      -4.2936311555    -1.8263216629    -2.9307469315
   47      H      -2.2040346377    -1.8476875128    -1.0221108341
   48      H      -6.4457455197     2.8106094647     2.2398836880
   49      H      -5.6909954611     4.0669143707     1.1778528360
   50      H       6.9907372277     3.4349641222    -1.7470612031
   51      H       5.1996099369     3.6019492377    -1.5544289495
   52      H       5.8688135205     2.7022618150    -2.9626425759
   53      H       0.7996308119     0.9802014437    -1.6203178991
   54      H       1.4234262039     2.3522794361    -0.6088576277
   55      H      -0.2161940293     0.8292505629     1.1992413040
   56      H      -0.7147384760     2.3636592911     0.4048355556
 ----------------------------------------------------------------
 Molecular Point Group                 C1    NOp =  1
 Largest Abelian Subgroup              C1    NOp =  1
 Nuclear Repulsion Energy =  3030.4697424025 hartrees
 There are      113 alpha and      113 beta electrons
 Applying Cartesian multipole field
    Component          Value
    ---------          -----
     (2,0,0)        1.00000E-12
     (0,2,0)        2.00000E-11
     (0,0,2)       -3.00000E-11
 Nucleus-field energy     =     0.0000000182 hartrees
 Requested basis set is STO-3G
 There are 86 shells and 176 basis functions
 A cutoff of  1.0D-12 yielded   1991 shell pairs
 There are      9368 function pairs
 Smallest overlap matrix eigenvalue = 2.13E-01
 Guess MOs from SCF MO coefficient file
 Reading MOs from coefficient file
 Reading MOs from coefficient file
 A restricted hybrid HF-DFT SCF calculation will be
 performed using Pulay DIIS extrapolation
 Exchange:     0.2000 Hartree-Fock + 0.0800 Slater + 0.7200 B88
 Correlation:  0.1900 VWN1RPA + 0.8100 LYP
 Using SG-1 standard quadrature grid
 Dispersion:   Grimme D3
 SCF converges when DIIS error is below 1.0E-08
 Geometry optimization detected.  Setting ReadMinima to 0
 Setting SaveMinima to 0
 using 48 threads for integral computing
 -------------------------------------------------------
 OpenMP Integral computing Module                
 Release: version 1.0, May 2013, Q-Chem Inc. Pittsburgh 
 -------------------------------------------------------
 -------------------------------------------------------
 OpenMP BLAS3 based DFT computing Module                
 Release: version 1.0, May 2013, Q-Chem Inc. Pittsburgh 
 -------------------------------------------------------
 ---------------------------------------
  Cycle       Energy         DIIS Error
 ---------------------------------------
    1   -1510.1395503070      5.43E-03
    2   -1510.2759236280      6.20E-04
    3   -1510.2744961218      9.29E-04
    4   -1510.2779397560      2.85E-04
    5   -1510.2782840799      8.41E-05
    6   -1510.2783156301      2.58E-05
    7   -1510.2783185982      9.65E-06
    8   -1510.2783189362      4.82E-06
    9   -1510.2783190407      7.04E-07
   10   -1510.2783190432      3.54E-07
   11   -1510.2783190437      2.09E-07
   12   -1510.2783190439      5.16E-08
   13   -1510.2783190439      1.73E-08
   14   -1510.2783190440      2.45E-09 Convergence criterion met
 ---------------------------------------
 SCF time:  CPU 98.85 s  wall 2.07 s
 SCF   energy in the final basis set = -1510.27831904
 Total energy in the final basis set = -1510.27831904
 
 --------------------------------------------------------------
 
                    Orbital Energies (a.u.)
 --------------------------------------------------------------
 
 Alpha MOs
 -- Occupied --
-18.940 -18.936 -18.922 -18.912 -18.891 -18.883 -18.880 -18.880
-18.871 -18.854 -10.106 -10.101 -10.096 -10.084 -10.070 -10.070
-10.067 -10.063 -10.062 -10.054 -10.051 -10.049 -10.041 -10.038
-10.035 -10.027 -10.022 -10.021 -10.016 -10.014  -1.018  -1.015
 -1.003  -0.991  -0.972  -0.964  -0.942  -0.939  -0.929  -0.918
 -0.765  -0.757  -0.727  -0.720  -0.712  -0.704  -0.692  -0.667
 -0.649  -0.611  -0.596  -0.575  -0.547  -0.539  -0.539  -0.532
 -0.516  -0.508  -0.487  -0.474  -0.463  -0.451  -0.449  -0.439
 -0.435  -0.426  -0.422  -0.415  -0.412  -0.408  -0.401  -0.397
 -0.395  -0.380  -0.373  -0.364  -0.359  -0.352  -0.350  -0.344
 -0.340  -0.334  -0.332  -0.331  -0.327  -0.326  -0.319  -0.316
 -0.307  -0.306  -0.301  -0.299  -0.295  -0.285  -0.277  -0.270
 -0.267  -0.260  -0.252  -0.241  -0.239  -0.236  -0.228  -0.184
 -0.180  -0.168  -0.161  -0.158  -0.153  -0.149  -0.144  -0.139
 -0.135
 -- Virtual --
  0.094   0.099   0.101   0.121   0.228   0.241   0.246   0.250
  0.260   0.277   0.282   0.290   0.306   0.313   0.325   0.332
  0.336   0.341   0.343   0.351   0.357   0.360   0.361   0.372
  0.375   0.382   0.389   0.397   0.404   0.407   0.409   0.411
  0.416   0.417   0.425   0.425   0.427   0.429   0.435   0.436
  0.437   0.439   0.442   0.445   0.446   0.449   0.455   0.463
  0.471   0.474   0.487   0.488   0.493   0.498   0.515   0.535
  0.545   0.551   0.558   0.636   0.641   0.650   0.662
 --------------------------------------------------------------
 
          Ground-State Mulliken Net Atomic Charges

     Atom                 Charge (a.u.)
  ----------------------------------------
      1 O                    -0.219005
      2 C                     0.216173
      3 C                    -0.082050
      4 C                    -0.076829
      5 C                     0.215387
      6 O                    -0.170444
      7 C                    -0.048648
      8 C                    -0.048813
      9 O                    -0.171932
     10 C                     0.214652
     11 C                    -0.078844
     12 C                    -0.079638
     13 C                     0.211301
     14 O                    -0.213405
     15 O                    -0.177934
     16 O                    -0.171465
     17 O                    -0.212230
     18 C                    -0.128508
     19 C                     0.026225
     20 C                    -0.145311
     21 C                    -0.141920
     22 C                     0.026902
     23 O                    -0.184034
     24 H                     0.085499
     25 H                     0.085762
     26 H                     0.084405
     27 H                     0.079153
     28 H                     0.074074
     29 H                     0.078451
     30 H                     0.074021
     31 H                     0.086693
     32 O                    -0.207363
     33 C                    -0.128438
     34 C                     0.023759
     35 C                    -0.143245
     36 C                    -0.144400
     37 C                     0.024024
     38 O                    -0.191583
     39 H                     0.082411
     40 H                     0.086806
     41 H                     0.090837
     42 H                     0.089347
     43 H                     0.077094
     44 H                     0.072449
     45 H                     0.078032
     46 H                     0.073234
     47 H                     0.089033
     48 H                     0.085980
     49 H                     0.084455
     50 H                     0.091466
     51 H                     0.089337
     52 H                     0.089654
     53 H                     0.106572
     54 H                     0.088341
     55 H                     0.095747
     56 H                     0.088763
  ----------------------------------------
  Sum of atomic charges =    -0.000000

 -----------------------------------------------------------------
                    Cartesian Multipole Moments
 -----------------------------------------------------------------
    Charge (ESU x 10^10)
                -0.0000
    Dipole Moment (Debye)
         X       3.0886      Y       0.8578      Z      -2.0927
       Tot       3.8282
    Quadrupole Moments (Debye-Ang)
        XX    -138.5777     XY      -0.7343     YY    -149.0225
        XZ       9.0588     YZ      -1.0350     ZZ    -165.8107
    Octopole Moments (Debye-Ang^2)
       XXX      77.1823    XXY      12.9222    XYY      18.2789
       YYY      43.6893    XXZ     -62.2886    XYZ     -36.0177
       YYZ       5.0891    XZZ      12.3093    YZZ       9.7185
       ZZZ       3.2460
    Hexadecapole Moments (Debye-Ang^3)
      XXXX  -17552.0797   XXXY     -72.9054   XXYY   -3205.8286
      XYYY    -143.4296   YYYY   -2612.8185   XXXZ     161.3534
      XXYZ      -6.4615   XYYZ     -51.1822   YYYZ      14.7385
      XXZZ   -3350.0001   XYZZ     -48.3704   YYZZ    -710.3601
      XZZZ     134.5120   YZZZ     -18.1784   ZZZZ   -1701.4269
 -----------------------------------------------------------------
 Calculating analytic gradient of the SCF energy
 Gradient of SCF Energy
            1           2           3           4           5           6
    1  -0.0009510   0.0012021   0.0001779  -0.0006760   0.0002455  -0.0001131
    2  -0.0000309   0.0003418  -0.0017845   0.0020927  -0.0000581  -0.0007475
    3  -0.0000625  -0.0001975   0.0010168  -0.0014005  -0.0002091   0.0007151
            7           8           9          10          11          12
    1  -0.0004726   0.0040820  -0.0080919  -0.0001040   0.0049324  -0.0032104
    2  -0.0000950   0.0024321  -0.0020583  -0.0008370   0.0004906   0.0029950
    3   0.0005377  -0.0034564   0.0037199   0.0036918  -0.0096824   0.0053845
           13          14          15          16          17          18
    1   0.0020393   0.0030376   0.0000583   0.0002337  -0.0014589  -0.0000654
    2  -0.0021070   0.0017827   0.0001573  -0.0002642  -0.0027001   0.0000686
    3  -0.0032759   0.0000005   0.0000094  -0.0004966   0.0028653  -0.0000484
           19          20          21          22          23          24
    1   0.0005638   0.0000011   0.0002628  -0.0008801  -0.0000187   0.0002597
    2  -0.0005013  -0.0002177  -0.0002672   0.0001442  -0.0000498   0.0001990
    3   0.0000830   0.0004206  -0.0002329   0.0001225  -0.0001554  -0.0000013
           25          26          27          28          29          30
    1   0.0003276   0.0000193   0.0000943  -0.0001464  -0.0000115  -0.0001456
    2  -0.0000906  -0.0000438   0.0000167  -0.0001785   0.0000645   0.0003619
    3   0.0000559   0.0000883   0.0000057   0.0000884   0.0000076  -0.0000876
           31          32          33          34          35          36
    1  -0.0000243  -0.0001746   0.0000460   0.0000356  -0.0000807   0.0001170
    2   0.0000153   0.0000041  -0.0000517   0.0001098  -0.0000226   0.0000663
    3  -0.0000191   0.0001538  -0.0000372   0.0000480   0.0000238  -0.0001132
           37          38          39          40          41          42
    1   0.0001935   0.0000101  -0.0001690  -0.0000450   0.0000091  -0.0000121
    2   0.0000054   0.0001091  -0.0000477   0.0000647   0.0000163   0.0000499
    3  -0.0001759  -0.0000693   0.0000197   0.0000581  -0.0000051  -0.0000262
           43          44          45          46          47          48
    1  -0.0000039  -0.0000005  -0.0000136  -0.0000554   0.0000483  -0.0000296
    2  -0.0000280   0.0000297  -0.0000244  -0.0000005  -0.0001395  -0.0000171
    3  -0.0000025  -0.0000075  -0.0000132   0.0001330   0.0000523   0.0000297
           49          50          51          52          53          54
    1  -0.0000155  -0.0000170  -0.0000086   0.0000430  -0.0005584  -0.0003513
    2   0.0000158   0.0000019  -0.0001015   0.0000683   0.0009792  -0.0001693
    3   0.0000093   0.0000199   0.0000718  -0.0000261   0.0004638  -0.0001078
           55          56
    1  -0.0001076  -0.0000272
    2  -0.0000798   0.0000304
    3  -0.0002040   0.0002173
 Max gradient component =       9.682E-03
 RMS gradient           =       1.481E-03
 Gradient time:  CPU 30.01 s  wall 0.63 s
 Geometry Optimization Parameters
   NAtoms,    NIC,     NZ,  NCons,   NDum,   NFix, NCnnct, MaxDiis
       56     458       0       0       0       0       0       0

 Cartesian Hessian Update
 Hessian Updated using BFGS Update


** GEOMETRY OPTIMIZATION IN DELOCALIZED INTERNAL COORDINATES **
   Searching for a Minimum

   Optimization Cycle:   2

                       Coordinates (Angstroms)
     ATOM                X               Y               Z
      1  O        -5.5211779767    0.4408756265    2.1510092006
      2  C        -5.3137364626    0.7810028883    0.9671893943
      3  C        -5.1063863266   -0.1637940713   -0.2753092331
      4  C        -3.6646429227   -0.1053837073   -0.9204450301
      5  C        -2.6449677352    0.6662378386   -0.0133046637
      6  O        -1.3516131412    0.5880575003   -0.6070422802
      7  C        -0.3596107290    1.3277679552    0.2150378316
      8  C         0.9962674576    1.3284048659   -0.5843914842
      9  O         1.9931089446    0.4586616249    0.0815870412
     10  C         2.3529717005   -0.6501000753   -0.7607065436
     11  C         3.7198894971   -1.2743043159   -0.2916134196
     12  C         4.9640714546   -0.3009583970   -0.2864519527
     13  C         4.8380022965    0.9820548810   -1.1721860537
     14  O         3.8779748227    1.3568586698   -1.8787708782
     15  O        -5.4141099388    2.1290555099    0.4774820266
     16  O         6.0753123418    1.6965563748   -1.0698310652
     17  O         1.6259872810   -1.0944552198   -1.6760448445
     18  C         6.0171664416    2.9303835052   -1.8872639177
     19  C         3.6292685345   -1.5972533041    1.2666478730
     20  C         4.9001711581   -2.4224914070    1.7215776891
     21  C         5.9867905634   -1.2877345209    1.8276078103
     22  C         5.1715186507   -0.0534715104    1.2771795745
     23  O         3.8336672658   -0.2592933222    1.8704195629
     24  H         3.9065011052   -2.1735642790   -0.9042460599
     25  H         5.8472417373   -0.8437835932   -0.6733253994
     26  H         2.6577275163   -2.0208305002    1.5875819074
     27  H         4.7199212201   -2.9054872775    2.6948016603
     28  H         5.1688722053   -3.1989818979    0.9872782552
     29  H         6.2826529451   -1.1119835597    2.8744209562
     30  H         6.8903338197   -1.4964100082    1.2329965881
     31  H         5.5731205233    0.9444532210    1.5391233589
     32  O        -2.8859853937    1.2418051246    1.0728790579
     33  C        -5.5626310261    3.0601054413    1.6163741350
     34  C        -5.2101321750   -1.7002476667    0.1041074334
     35  C        -5.5635557296   -2.4986673914   -1.2092611319
     36  C        -4.2007874486   -2.3967328866   -1.9926795230
     37  C        -3.2906419136   -1.6500750400   -0.9372098275
     38  O        -3.8097148040   -2.1060453612    0.3729487561
     39  H        -5.8677367907    0.1099286262   -1.0281472786
     40  H        -3.6674543797    0.3391435720   -1.9318607338
     41  H        -4.6608059685    3.0489833479    2.2624676534
     42  H        -5.8471372098   -1.9054482251    0.9863128154
     43  H        -5.8102429278   -3.5451513341   -0.9683517801
     44  H        -6.4081709529   -2.0525783767   -1.7583026576
     45  H        -3.7880603979   -3.3914824496   -2.2234854778
     46  H        -4.2936311555   -1.8263216629   -2.9307469315
     47  H        -2.2040346377   -1.8476875128   -1.0221108341
     48  H        -6.4457455197    2.8106094647    2.2398836880
     49  H        -5.6909954611    4.0669143707    1.1778528360
     50  H         6.9907372277    3.4349641222   -1.7470612031
     51  H         5.1996099369    3.6019492377   -1.5544289495
     52  H         5.8688135205    2.7022618150   -2.9626425759
     53  H         0.7996308119    0.9802014437   -1.6203178991
     54  H         1.4234262039    2.3522794361   -0.6088576277
     55  H        -0.2161940293    0.8292505629    1.1992413040
     56  H        -0.7147384760    2.3636592911    0.4048355556
   Point Group: c1    Number of degrees of freedom:   162


   Energy is  -1510.278319044

 Hessian Updated using BFGS Update

149 Hessian modes will be used to form the next step
  Hessian Eigenvalues:
     0.001969    0.002109    0.002686    0.002722    0.004108    0.004308
     0.004458    0.004794    0.004904    0.004906    0.005094    0.005261
     0.006655    0.006798    0.010650    0.011353    0.012258    0.020479
     0.021693    0.023392    0.026239    0.030093    0.030805    0.033513
     0.035403    0.036073    0.040683    0.041459    0.041970    0.042533
     0.045995    0.046455    0.047516    0.048623    0.050696    0.051144
     0.051407    0.051970    0.053105    0.054539    0.054584    0.055461
     0.055776    0.055975    0.056907    0.057459    0.059522    0.059662
     0.060474    0.063196    0.063500    0.064297    0.064401    0.065247
     0.069678    0.070109    0.072973    0.073686    0.091561    0.092329
     0.092688    0.093835    0.096408    0.096610    0.097019    0.100885
     0.102608    0.102609    0.107679    0.110214    0.111330    0.115177
     0.120998    0.132926    0.134522    0.137132    0.157156    0.159996
     0.160000    0.162029    0.163127    0.176961    0.218514    0.219067
     0.219449    0.221080    0.229922    0.232382    0.238103    0.238568
     0.239065    0.239695    0.242368    0.247012    0.247926    0.249720
     0.249940    0.249991    0.249999    0.252637    0.253440    0.256018
     0.256595    0.257064    0.261906    0.264544    0.289256    0.291863
     0.293545    0.306717    0.310409    0.323335    0.324530    0.325779
     0.326414    0.326580    0.326598    0.326767    0.326921    0.328473
     0.328776    0.328847    0.329057    0.329802    0.330665    0.330832
     0.331204    0.331575    0.332452    0.334655    0.334700    0.334813
     0.334833    0.334911    0.335085    0.335253    0.335346    0.339347
     0.344328    0.345541    0.347412    0.398935    0.402055    0.406410
     0.416772    0.822609    0.830478    0.834839    0.835895

 Minimum Search - Taking Simple RFO Step
 Searching for Lamda that Minimizes Along All modes
 Value Taken    Lamda =  -0.01221280
 Calculated Step too Large.  Step scaled by  0.385608
 Step Taken.  Stepsize is  0.300000

                             Maximum     Tolerance    Cnvgd?
         Gradient           0.011439      0.000300      NO
         Displacement       0.120899      0.001200      NO
         Energy change     -0.004325      0.000001      NO


 New Cartesian Coordinates Obtained by Inverse Iteration

 Displacement from previous Coordinates is:  3.822466
 Adding empirical dispersion correction 
 ----------------------------------------------------------------
 Doing -D3(op) with
 s6 =   1.00000
 s8 =   0.78311
 a1 =   0.30000
 a2 =   4.25000
 n  =  10.00000
 -D3 energy without 3body term =     -0.0645277373 hartrees
 ----------------------------------------------------------------
             Standard Nuclear Orientation (Angstroms)
    I     Atom           X                Y                Z
 ----------------------------------------------------------------
    1      O      -5.3507068867     0.4876199541     2.2260437656
    2      C      -5.2242266645     0.7665355511     1.0151348541
    3      C      -5.0217567770    -0.2380264537    -0.1803550360
    4      C      -3.6118929213    -0.1514544136    -0.8896890744
    5      C      -2.5959998503     0.7240304468    -0.0775498971
    6      O      -1.3286511676     0.6785835486    -0.7282533253
    7      C      -0.3310689363     1.4804554509     0.0259661177
    8      C       0.9918844325     1.4930029403    -0.8252337206
    9      O       2.0283383076     0.6541224144    -0.1827607336
   10      C       2.3711043403    -0.4568328322    -1.0263142539
   11      C       3.6289933119    -1.2016775653    -0.4495553124
   12      C       4.9190131254    -0.3074194647    -0.3005755316
   13      C       4.8901869118     1.0309133851    -1.1076522003
   14      O       3.9826857140     1.4760667093    -1.8431124398
   15      O      -5.4181859156     2.0766618871     0.4558357087
   16      O       6.1344785921     1.7025292984    -0.8782383189
   17      O       1.7078835010    -0.8062843956    -2.0273284994
   18      C       6.1610249104     2.9867565616    -1.6157480867
   19      C       3.3802865833    -1.5832525694     1.0765674821
   20      C       4.5529036580    -2.5132908715     1.5895758363
   21      C       5.7000859984    -1.4627012221     1.8367527678
   22      C       5.0148737589    -0.1515903450     1.2865229871
   23      O       3.6219609398    -0.2919214227     1.7614224845
   24      H       3.8135603924    -2.0832559273    -1.0881052810
   25      H       5.8025162020    -0.8712309872    -0.6547377950
   26      H       2.3593533749    -1.9524386913     1.2948690668
   27      H       4.2615682875    -3.0255243098     2.5200044034
   28      H       4.8304443307    -3.2727818375     0.8409555597
   29      H       5.9198063067    -1.3550234480     2.9111590010
   30      H       6.6337680839    -1.7080686508     1.3059555715
   31      H       5.4539231764     0.8045898760     1.6310837923
   32      O      -2.8171082890     1.3452372764     0.9874638126
   33      C      -5.5603622125     3.0647524540     1.5464710050
   34      C      -5.0316336987    -1.7525719088     0.2919149759
   35      C      -5.3974256451    -2.6451307498    -0.9558765442
   36      C      -4.0744305630    -2.5260380076    -1.8023592671
   37      C      -3.1610531157    -1.6741475615    -0.8328957023
   38      O      -3.6028180236    -2.0742377287     0.5229643732
   39      H      -5.8268321651    -0.0473321534    -0.9129535381
   40      H      -3.6800431127     0.2305126359    -1.9241327639
   41      H      -4.6294934180     3.1357040674     2.1458785842
   42      H      -5.6209153998    -1.9346611977     1.2115815905
   43      H      -5.5811215285    -3.6856705584    -0.6435927942
   44      H      -6.2850183116    -2.2741377738    -1.4928439476
   45      H      -3.6217557751    -3.5120405006    -1.9921226920
   46      H      -4.2336158981    -2.0187530278    -2.7674594914
   47      H      -2.0702310908    -1.8237754237    -0.9537649814
   48      H      -6.3987524973     2.8094950650     2.2267661049
   49      H      -5.7613042879     4.0365105695     1.0588979920
   50      H       7.1353168431     3.4531692309    -1.3805005423
   51      H       5.3400457723     3.6595782450    -1.2939594607
   52      H       6.0788198851     2.8310524191    -2.7109469445
   53      H       0.7646768646     1.1121108451    -1.8437255309
   54      H       1.3961571433     2.5244852650    -0.8917261432
   55      H      -0.1324670965     1.0178868142     1.0182179818
   56      H      -0.7106739465     2.5106165319     0.1985107389
 ----------------------------------------------------------------
 Molecular Point Group                 C1    NOp =  1
 Largest Abelian Subgroup              C1    NOp =  1
 Nuclear Repulsion Energy =  3044.8418601953 hartrees
 There are      113 alpha and      113 beta electrons
 Applying Cartesian multipole field
    Component          Value
    ---------          -----
     (2,0,0)        1.00000E-12
     (0,2,0)        2.00000E-11
     (0,0,2)       -3.00000E-11
 Nucleus-field energy     =     0.0000000217 hartrees
 Requested basis set is STO-3G
 There are 86 shells and 176 basis functions
 A cutoff of  1.0D-12 yielded   2006 shell pairs
 There are      9416 function pairs
 Smallest overlap matrix eigenvalue = 2.13E-01
 Guess MOs from SCF MO coefficient file
 Reading MOs from coefficient file
 Reading MOs from coefficient file
 A restricted hybrid HF-DFT SCF calculation will be
 performed using Pulay DIIS extrapolation
 Exchange:     0.2000 Hartree-Fock + 0.0800 Slater + 0.7200 B88
 Correlation:  0.1900 VWN1RPA + 0.8100 LYP
 Using SG-1 standard quadrature grid
 Dispersion:   Grimme D3
 SCF converges when DIIS error is below 1.0E-08
 Geometry optimization detected.  Setting ReadMinima to 0
 Setting SaveMinima to 0
 using 48 threads for integral computing
 -------------------------------------------------------
 OpenMP Integral computing Module                
 Release: version 1.0, May 2013, Q-Chem Inc. Pittsburgh 
 -------------------------------------------------------
 -------------------------------------------------------
 OpenMP BLAS3 based DFT computing Module                
 Release: version 1.0, May 2013, Q-Chem Inc. Pittsburgh 
 -------------------------------------------------------
 ---------------------------------------
  Cycle       Energy         DIIS Error
 ---------------------------------------
    1   -1510.1656945078      5.06E-03
    2   -1510.2799160139      4.76E-04
    3   -1510.2797127623      6.37E-04
    4   -1510.2813042803      2.43E-04
    5   -1510.2815418108      7.87E-05
    6   -1510.2815685020      2.49E-05
    7   -1510.2815712413      8.75E-06
    8   -1510.2815715108      4.13E-06
    9   -1510.2815715930      6.41E-07
   10   -1510.2815715954      3.31E-07
   11   -1510.2815715959      1.85E-07
   12   -1510.2815715961      4.77E-08
   13   -1510.2815715961      1.47E-08
   14   -1510.2815715962      2.11E-09 Convergence criterion met
 ---------------------------------------
 SCF time:  CPU 94.85 s  wall 1.98 s
 SCF   energy in the final basis set = -1510.28157160
 Total energy in the final basis set = -1510.28157160
 
 --------------------------------------------------------------
 
                    Orbital Energies (a.u.)
 --------------------------------------------------------------
 
 Alpha MOs
 -- Occupied --
-18.940 -18.936 -18.923 -18.913 -18.891 -18.884 -18.881 -18.880
-18.868 -18.854 -10.106 -10.101 -10.095 -10.085 -10.070 -10.069
-10.064 -10.063 -10.062 -10.055 -10.051 -10.049 -10.041 -10.038
-10.035 -10.027 -10.022 -10.021 -10.016 -10.014  -1.018  -1.015
 -1.002  -0.992  -0.972  -0.965  -0.942  -0.939  -0.928  -0.918
 -0.765  -0.758  -0.727  -0.720  -0.711  -0.704  -0.692  -0.667
 -0.649  -0.611  -0.595  -0.575  -0.547  -0.540  -0.539  -0.532
 -0.515  -0.508  -0.487  -0.474  -0.463  -0.452  -0.449  -0.439
 -0.435  -0.426  -0.421  -0.415  -0.412  -0.408  -0.401  -0.397
 -0.395  -0.380  -0.372  -0.364  -0.360  -0.352  -0.350  -0.345
 -0.340  -0.334  -0.332  -0.329  -0.327  -0.327  -0.319  -0.316
 -0.307  -0.306  -0.301  -0.299  -0.295  -0.285  -0.277  -0.270
 -0.267  -0.260  -0.252  -0.240  -0.239  -0.235  -0.229  -0.184
 -0.180  -0.168  -0.159  -0.159  -0.153  -0.148  -0.145  -0.140
 -0.136
 -- Virtual --
  0.094   0.099   0.105   0.121   0.230   0.242   0.246   0.250
  0.261   0.276   0.283   0.289   0.308   0.313   0.325   0.333
  0.336   0.342   0.343   0.350   0.357   0.359   0.362   0.372
  0.375   0.383   0.389   0.398   0.404   0.406   0.410   0.411
  0.416   0.418   0.424   0.425   0.428   0.432   0.435   0.436
  0.437   0.438   0.441   0.445   0.446   0.451   0.455   0.463
  0.471   0.475   0.487   0.489   0.492   0.499   0.515   0.535
  0.545   0.551   0.557   0.637   0.641   0.651   0.662
 --------------------------------------------------------------
 
          Ground-State Mulliken Net Atomic Charges

     Atom                 Charge (a.u.)
  ----------------------------------------
      1 O                    -0.218737
      2 C                     0.216131
      3 C                    -0.082067
      4 C                    -0.076834
      5 C                     0.215144
      6 O                    -0.171138
      7 C                    -0.049088
      8 C                    -0.051350
      9 O                    -0.170263
     10 C                     0.215079
     11 C                    -0.079281
     12 C                    -0.079632
     13 C                     0.212462
     14 O                    -0.211108
     15 O                    -0.177764
     16 O                    -0.170781
     17 O                    -0.215854
     18 C                    -0.128497
     19 C                     0.026270
     20 C                    -0.145104
     21 C                    -0.142035
     22 C                     0.026983
     23 O                    -0.184550
     24 H                     0.085361
     25 H                     0.085825
     26 H                     0.084551
     27 H                     0.079210
     28 H                     0.074067
     29 H                     0.078660
     30 H                     0.074013
     31 H                     0.086844
     32 O                    -0.207381
     33 C                    -0.128459
     34 C                     0.023835
     35 C                    -0.143285
     36 C                    -0.144343
     37 C                     0.024127
     38 O                    -0.191678
     39 H                     0.082503
     40 H                     0.086943
     41 H                     0.090963
     42 H                     0.089301
     43 H                     0.077101
     44 H                     0.072578
     45 H                     0.077905
     46 H                     0.073459
     47 H                     0.087973
     48 H                     0.086002
     49 H                     0.084585
     50 H                     0.091512
     51 H                     0.089721
     52 H                     0.089636
     53 H                     0.108058
     54 H                     0.087769
     55 H                     0.095543
     56 H                     0.089115
  ----------------------------------------
  Sum of atomic charges =    -0.000000

 -----------------------------------------------------------------
                    Cartesian Multipole Moments
 -----------------------------------------------------------------
    Charge (ESU x 10^10)
                -0.0000
    Dipole Moment (Debye)
         X       2.8296      Y       0.5211      Z      -1.8872
       Tot       3.4409
    Quadrupole Moments (Debye-Ang)
        XX    -137.6316     XY       0.4008     YY    -147.9015
        XZ       9.1371     YZ      -0.7435     ZZ    -167.6657
    Octopole Moments (Debye-Ang^2)
       XXX      65.1268    XXY      11.7958    XYY      15.2922
       YYY      36.0757    XXZ     -52.1246    XYZ     -31.4565
       YYZ       6.2483    XZZ       9.1896    YZZ       6.1069
       ZZZ      14.6593
    Hexadecapole Moments (Debye-Ang^3)
      XXXX  -16836.5063   XXXY     -76.7506   XXYY   -3094.9816
      XYYY    -195.5309   YYYY   -2745.3940   XXXZ     236.3523
      XXYZ       4.0957   XYYZ      -5.9219   YYYZ      43.8192
      XXZZ   -3239.7392   XYZZ     -69.9573   YYZZ    -727.5537
      XZZZ     280.4677   YZZZ      12.5157   ZZZZ   -1634.6478
 -----------------------------------------------------------------
 Calculating analytic gradient of the SCF energy
 Gradient of SCF Energy
            1           2           3           4           5           6
    1  -0.0005262   0.0002956   0.0003192  -0.0004688   0.0000533   0.0000418
    2   0.0000042   0.0001968  -0.0012166   0.0006716   0.0002869  -0.0005516
    3   0.0000535  -0.0003759   0.0006957  -0.0006474  -0.0004847   0.0006779
            7           8           9          10          11          12
    1  -0.0015205   0.0032264  -0.0022819   0.0004019   0.0045847  -0.0031643
    2   0.0004668  -0.0008969   0.0007399  -0.0006824   0.0006983   0.0028470
    3  -0.0002315  -0.0026982   0.0010119   0.0023630  -0.0052523   0.0024595
           13          14          15          16          17          18
    1  -0.0001398   0.0002445   0.0000818   0.0009987  -0.0009972  -0.0000573
    2  -0.0026065   0.0009820   0.0003611   0.0000358  -0.0013052  -0.0001233
    3  -0.0031120   0.0018366  -0.0000438  -0.0001280   0.0018791   0.0000571
           19          20          21          22          23          24
    1   0.0002496  -0.0001446   0.0002317  -0.0006043   0.0001909   0.0000996
    2  -0.0011469   0.0003777  -0.0003288   0.0000209  -0.0004353   0.0003436
    3   0.0008343   0.0001662   0.0001742   0.0001248  -0.0000611  -0.0005219
           25          26          27          28          29          30
    1   0.0001652   0.0000213  -0.0000179   0.0000514  -0.0000070   0.0001946
    2  -0.0007485  -0.0000681  -0.0000735   0.0001423  -0.0000543   0.0000780
    3   0.0003300   0.0000085  -0.0000252  -0.0000086   0.0000160   0.0002301
           31          32          33          34          35          36
    1  -0.0003030  -0.0000275   0.0001534   0.0001097  -0.0000437   0.0001940
    2   0.0001777  -0.0000517  -0.0000677   0.0005487   0.0000206  -0.0000967
    3  -0.0000310   0.0001811  -0.0000693   0.0001118   0.0002155  -0.0001769
           37          38          39          40          41          42
    1   0.0002101   0.0001669  -0.0003057  -0.0000782  -0.0000388   0.0000155
    2   0.0000158   0.0000825  -0.0000924   0.0002237  -0.0000483   0.0001360
    3  -0.0004305  -0.0000258  -0.0000054   0.0001981  -0.0000159  -0.0000765
           43          44          45          46          47          48
    1   0.0000427  -0.0001203  -0.0000280  -0.0001344   0.0000699  -0.0000448
    2  -0.0000591  -0.0000336  -0.0000200  -0.0000244  -0.0001574   0.0000201
    3   0.0000044  -0.0000890   0.0000211   0.0000851   0.0000308   0.0000515
           49          50          51          52          53          54
    1  -0.0000061   0.0000099  -0.0000028  -0.0000027  -0.0014296  -0.0001719
    2   0.0000068  -0.0000005  -0.0000094   0.0000530   0.0014586   0.0002093
    3   0.0000286   0.0000681  -0.0000200   0.0000194   0.0006908  -0.0003340
           55          56
    1   0.0000736   0.0001693
    2  -0.0003900   0.0000831
    3  -0.0003953   0.0006354
 Max gradient component =       5.252E-03
 RMS gradient           =       9.498E-04
 Gradient time:  CPU 29.36 s  wall 0.62 s
 Geometry Optimization Parameters
   NAtoms,    NIC,     NZ,  NCons,   NDum,   NFix, NCnnct, MaxDiis
       56     458       0       0       0       0       0       0

 Cartesian Hessian Update
 Hessian Updated using BFGS Update


** GEOMETRY OPTIMIZATION IN DELOCALIZED INTERNAL COORDINATES **
   Searching for a Minimum

   Optimization Cycle:   3

                       Coordinates (Angstroms)
     ATOM                X               Y               Z
      1  O        -5.3507068867    0.4876199541    2.2260437656
      2  C        -5.2242266645    0.7665355511    1.0151348541
      3  C        -5.0217567770   -0.2380264537   -0.1803550360
      4  C        -3.6118929213   -0.1514544136   -0.8896890744
      5  C        -2.5959998503    0.7240304468   -0.0775498971
      6  O        -1.3286511676    0.6785835486   -0.7282533253
      7  C        -0.3310689363    1.4804554509    0.0259661177
      8  C         0.9918844325    1.4930029403   -0.8252337206
      9  O         2.0283383076    0.6541224144   -0.1827607336
     10  C         2.3711043403   -0.4568328322   -1.0263142539
     11  C         3.6289933119   -1.2016775653   -0.4495553124
     12  C         4.9190131254   -0.3074194647   -0.3005755316
     13  C         4.8901869118    1.0309133851   -1.1076522003
     14  O         3.9826857140    1.4760667093   -1.8431124398
     15  O        -5.4181859156    2.0766618871    0.4558357087
     16  O         6.1344785921    1.7025292984   -0.8782383189
     17  O         1.7078835010   -0.8062843956   -2.0273284994
     18  C         6.1610249104    2.9867565616   -1.6157480867
     19  C         3.3802865833   -1.5832525694    1.0765674821
     20  C         4.5529036580   -2.5132908715    1.5895758363
     21  C         5.7000859984   -1.4627012221    1.8367527678
     22  C         5.0148737589   -0.1515903450    1.2865229871
     23  O         3.6219609398   -0.2919214227    1.7614224845
     24  H         3.8135603924   -2.0832559273   -1.0881052810
     25  H         5.8025162020   -0.8712309872   -0.6547377950
     26  H         2.3593533749   -1.9524386913    1.2948690668
     27  H         4.2615682875   -3.0255243098    2.5200044034
     28  H         4.8304443307   -3.2727818375    0.8409555597
     29  H         5.9198063067   -1.3550234480    2.9111590010
     30  H         6.6337680839   -1.7080686508    1.3059555715
     31  H         5.4539231764    0.8045898760    1.6310837923
     32  O        -2.8171082890    1.3452372764    0.9874638126
     33  C        -5.5603622125    3.0647524540    1.5464710050
     34  C        -5.0316336987   -1.7525719088    0.2919149759
     35  C        -5.3974256451   -2.6451307498   -0.9558765442
     36  C        -4.0744305630   -2.5260380076   -1.8023592671
     37  C        -3.1610531157   -1.6741475615   -0.8328957023
     38  O        -3.6028180236   -2.0742377287    0.5229643732
     39  H        -5.8268321651   -0.0473321534   -0.9129535381
     40  H        -3.6800431127    0.2305126359   -1.9241327639
     41  H        -4.6294934180    3.1357040674    2.1458785842
     42  H        -5.6209153998   -1.9346611977    1.2115815905
     43  H        -5.5811215285   -3.6856705584   -0.6435927942
     44  H        -6.2850183116   -2.2741377738   -1.4928439476
     45  H        -3.6217557751   -3.5120405006   -1.9921226920
     46  H        -4.2336158981   -2.0187530278   -2.7674594914
     47  H        -2.0702310908   -1.8237754237   -0.9537649814
     48  H        -6.3987524973    2.8094950650    2.2267661049
     49  H        -5.7613042879    4.0365105695    1.0588979920
     50  H         7.1353168431    3.4531692309   -1.3805005423
     51  H         5.3400457723    3.6595782450   -1.2939594607
     52  H         6.0788198851    2.8310524191   -2.7109469445
     53  H         0.7646768646    1.1121108451   -1.8437255309
     54  H         1.3961571433    2.5244852650   -0.8917261432
     55  H        -0.1324670965    1.0178868142    1.0182179818
     56  H        -0.7106739465    2.5106165319    0.1985107389
   Point Group: c1    Number of degrees of freedom:   162


   Energy is  -1510.281571596

 Hessian Updated using BFGS Update

151 Hessian modes will be used to form the next step
  Hessian Eigenvalues:
     0.001926    0.002023    0.002081    0.002716    0.002909    0.004095
     0.004274    0.004461    0.004866    0.004903    0.004907    0.005260
     0.006610    0.006787    0.010644    0.011347    0.011920    0.013531
     0.021686    0.022027    0.025063    0.026290    0.030584    0.030985
     0.033053    0.035429    0.035629    0.040717    0.041117    0.041972
     0.042371    0.046130    0.046435    0.047507    0.049244    0.050631
     0.051151    0.051347    0.052011    0.053147    0.054531    0.054582
     0.055486    0.055774    0.055924    0.056914    0.058057    0.059531
     0.059661    0.060474    0.063197    0.063503    0.064307    0.064399
     0.065419    0.069684    0.070109    0.072974    0.073690    0.091561
     0.092407    0.092688    0.093968    0.096423    0.096610    0.097019
     0.101648    0.102608    0.102609    0.107680    0.110244    0.111672
     0.115479    0.121012    0.134370    0.136694    0.138917    0.157158
     0.159996    0.160000    0.160004    0.162378    0.163225    0.184761
     0.218837    0.219055    0.219617    0.221230    0.229925    0.234001
     0.238112    0.238692    0.239327    0.239696    0.244102    0.247022
     0.247924    0.249652    0.249939    0.249980    0.250000    0.251249
     0.252652    0.253440    0.255962    0.256596    0.257194    0.261906
     0.264075    0.291804    0.293186    0.296840    0.306717    0.319253
     0.323325    0.324529    0.325595    0.326578    0.326595    0.326760
     0.326897    0.327010    0.328471    0.328777    0.328859    0.329058
     0.329764    0.330667    0.330834    0.331217    0.331584    0.332501
     0.334668    0.334813    0.334834    0.334927    0.335151    0.335255
     0.335349    0.339359    0.344349    0.344663    0.347413    0.398937
     0.402102    0.407115    0.416762    0.822604    0.830503    0.834490
     0.835888

 Minimum Search - Taking Simple RFO Step
 Searching for Lamda that Minimizes Along All modes
 Value Taken    Lamda =  -0.00509581
 Calculated Step too Large.  Step scaled by  0.423262
 Step Taken.  Stepsize is  0.300000

                             Maximum     Tolerance    Cnvgd?
         Gradient           0.003913      0.000300      NO
         Displacement       0.098861      0.001200      NO
         Energy change     -0.003253      0.000001      NO


 New Cartesian Coordinates Obtained by Inverse Iteration

 Displacement from previous Coordinates is:  2.583577
 Adding empirical dispersion correction 
 ----------------------------------------------------------------
 Doing -D3(op) with
 s6 =   1.00000
 s8 =   0.78311
 a1 =   0.30000
 a2 =   4.25000
 n  =  10.00000
 -D3 energy without 3body term =     -0.0646343541 hartrees
 ----------------------------------------------------------------
             Standard Nuclear Orientation (Angstroms)
    I     Atom           X                Y                Z
 ----------------------------------------------------------------
    1      O      -5.2488115251     0.3828853131     2.2826368338
    2      C      -5.1667489084     0.6841531169     1.0733152714
    3      C      -4.9421420327    -0.2926213465    -0.1409573676
    4      C      -3.5510978868    -0.1339240922    -0.8749657430
    5      C      -2.5625213568     0.7877510177    -0.0803999597
    6      O      -1.3078852459     0.8016656930    -0.7570981329
    7      C      -0.3271256572     1.6364701395    -0.0165565503
    8      C       0.9946694217     1.6553021621    -0.8661628101
    9      O       2.0186711991     0.7984748712    -0.2317584121
   10      C       2.3242857099    -0.3137146826    -1.0850139792
   11      C       3.4944007606    -1.1481572695    -0.4550783752
   12      C       4.8507307238    -0.3553179350    -0.3150795934
   13      C       4.9080688459     0.9696315890    -1.1436210841
   14      O       4.0480306086     1.4271210897    -1.9278976916
   15      O      -5.4538023186     1.9861719744     0.5361682721
   16      O       6.1749225040     1.5886582883    -0.8947340083
   17      O       1.7062863069    -0.5857674595    -2.1379974293
   18      C       6.2870070948     2.8443007224    -1.6726070178
   19      C       3.1917613447    -1.4605010839     1.0749167527
   20      C       4.2727554761    -2.4752644258     1.6274432412
   21      C       5.5067896856    -1.5231941411     1.8573539224
   22      C       4.9444320199    -0.1713819019     1.2687714448
   23      O       3.5391635612    -0.1773687481     1.7291428243
   24      H       3.6154389004    -2.0593467861    -1.0666641389
   25      H       5.6946115477    -0.9862283213    -0.6506570889
   26      H       2.1397225616    -1.7324786365     1.2881519467
   27      H       3.9290720379    -2.9325153478     2.5685768729
   28      H       4.4884164025    -3.2777200970     0.9035781044
   29      H       5.7281984992    -1.4072575213     2.9305461059
   30      H       6.4180504414    -1.8643839521     1.3407289105
   31      H       5.4609376662     0.7515674501     1.5960588681
   32      O      -2.7917024882     1.3983887531     0.9889219434
   33      C      -5.6340216108     2.9507703977     1.6421629079
   34      C      -4.8744430686    -1.8127962066     0.3110383997
   35      C      -5.2150886469    -2.7066066800    -0.9431245983
   36      C      -3.9099501834    -2.5178364723    -1.8040508625
   37      C      -3.0259966315    -1.6330075482    -0.8372861176
   38      O      -3.4291492672    -2.0684814382     0.5196115979
   39      H      -5.7685003414    -0.1301189213    -0.8560874988
   40      H      -3.6573539556     0.2487493255    -1.9060493297
   41      H      -4.6963410551     3.0746656638     2.2220993896
   42      H      -5.4412125467    -2.0343363124     1.2363030351
   43      H      -5.3471955358    -3.7578657304    -0.6409978471
   44      H      -6.1254329882    -2.3704355070    -1.4644164873
   45      H      -3.4136844628    -3.4794569346    -2.0093121210
   46      H      -4.1040366358    -2.0091840640    -2.7621208185
   47      H      -1.9311170522    -1.7275617888    -0.9749767842
   48      H      -6.4389471784     2.6345993002     2.3370172427
   49      H      -5.9074754844     3.9129703150     1.1711882949
   50      H       7.2758996516     3.2706857332    -1.4228695865
   51      H       5.4912675770     3.5669756208    -1.3990436453
   52      H       6.2295342974     2.6548894713    -2.7640922123
   53      H       0.7750982960     1.2713160683    -1.8863065020
   54      H       1.4051804319     2.6845169403    -0.9281362988
   55      H      -0.1207052740     1.1917077812     0.9824704212
   56      H      -0.7247986814     2.6621499975     0.1403641966
 ----------------------------------------------------------------
 Molecular Point Group                 C1    NOp =  1
 Largest Abelian Subgroup              C1    NOp =  1
 Nuclear Repulsion Energy =  3057.0536969740 hartrees
 There are      113 alpha and      113 beta electrons
 Applying Cartesian multipole field
    Component          Value
    ---------          -----
     (2,0,0)        1.00000E-12
     (0,2,0)        2.00000E-11
     (0,0,2)       -3.00000E-11
 Nucleus-field energy     =     0.0000000185 hartrees
 Requested basis set is STO-3G
 There are 86 shells and 176 basis functions
 A cutoff of  1.0D-12 yielded   2023 shell pairs
 There are      9517 function pairs
 Smallest overlap matrix eigenvalue = 2.13E-01
 Guess MOs from SCF MO coefficient file
 Reading MOs from coefficient file
 Reading MOs from coefficient file
 A restricted hybrid HF-DFT SCF calculation will be
 performed using Pulay DIIS extrapolation
[...]
      6  O        -1.6035639351    1.9273770005   -1.9037894000
      7  C        -0.8012599168    3.1325876121   -1.5717917672
      8  C         0.7339250647    2.8659682277   -1.7960347079
      9  O         1.2477402490    1.9222032773   -0.7802652767
     10  C         1.2503230006    0.5857131946   -1.3058633094
     11  C         1.5759099516   -0.4362659554   -0.1597695855
     12  C         3.1118909824   -0.6040249148    0.1686179954
     13  C         4.0107136621    0.3145297305   -0.7220531251
     14  O         3.6432589882    0.9840171087   -1.7154863298
     15  O        -3.8587705126    0.7483995135    1.6222688939
     16  O         5.3529607635    0.2794834964   -0.2373381603
     17  O         0.8728494699    0.2963116407   -2.4679421210
     18  C         6.2134780063    1.1563487514   -1.0659147206
     19  C         1.0179463264    0.0436403799    1.2483408432
     20  C         0.9908439340   -1.2107599168    2.2038617509
     21  C         2.5193387352   -1.3710708930    2.5447109317
     22  C         3.1416867494   -0.1867090104    1.7042775989
     23  O         2.1186776288    0.8771697151    1.7879847354
     24  H         1.1104020430   -1.3944664613   -0.4518116350
     25  H         3.4462364857   -1.6494076069    0.0351846890
     26  H         0.0677921179    0.6164915636    1.1828316497
     27  H         0.3866413758   -0.9980665389    3.0995841652
     28  H         0.5664464775   -2.0916026487    1.6970812859
     29  H         2.7139745247   -1.2201928930    3.6185932552
     30  H         2.9256921437   -2.3508950811    2.2466109595
     31  H         4.1271521921    0.1815130624    2.0504789429
     32  O        -1.4795515940    1.4597823775    0.4174978359
     33  C        -3.6112667016    1.4514578449    2.9000852378
     34  C        -2.3612064821   -2.3548479373   -0.0517469488
     35  C        -2.9464537483   -3.1766851473   -1.2660099291
     36  C        -2.3505188045   -2.3802764319   -2.4875565924
     37  C        -1.5238760191   -1.2558153653   -1.7510177745
     38  O        -1.0253461016   -1.9359394605   -0.5344958588
     39  H        -4.2417701264   -1.1290565180   -0.0612162172
     40  H        -3.3284325641    0.0639242128   -1.9124636304
     41  H        -2.6121269087    1.9336497812    2.9034327986
     42  H        -2.2700130103   -2.9042910346    0.9051977821
     43  H        -2.5779769474   -4.2147051758   -1.2423373808
     44  H        -4.0480433040   -3.1928679373   -1.2646925152
     45  H        -1.6815859082   -3.0117324570   -3.0939129295
     46  H        -3.1295541131   -1.9605076104   -3.1435965938
     47  H        -0.6704267316   -0.8076190239   -2.3120022514
     48  H        -3.6735985229    0.7621825510    3.7668773747
     49  H        -4.3968254609    2.2249009119    2.9833905091
     50  H         7.2230710532    1.1028929965   -0.6187648614
     51  H         5.8552929990    2.2059572883   -1.0536961538
     52  H         6.2542096205    0.8098959941   -2.1188927782
     53  H         0.8953452144    2.4512929468   -2.8140784321
     54  H         1.2920360159    3.8166619650   -1.6727046347
     55  H        -0.9806695362    3.4243543473   -0.5151626765
     56  H        -1.1454563116    3.9350328303   -2.2558443677
   Point Group: c1    Number of degrees of freedom:   162


   Energy is  -1510.305272431

 Hessian Updated using BFGS Update

162 Hessian modes will be used to form the next step
  Hessian Eigenvalues:
     0.001823    0.003263    0.003414    0.004260    0.004645    0.005256
     0.006074    0.006656    0.009492    0.010839    0.011841    0.012378
     0.015078    0.016991    0.020486    0.021697    0.023341    0.025220
     0.027444    0.030990    0.032264    0.033696    0.035214    0.036999
     0.038543    0.041496    0.041977    0.042607    0.043645    0.043995
     0.046241    0.046959    0.049089    0.050373    0.051458    0.052128
     0.052369    0.052473    0.055088    0.055615    0.056104    0.056569
     0.056899    0.057199    0.058951    0.061099    0.061262    0.063222
     0.063738    0.064265    0.064753    0.065309    0.066354    0.066902
     0.069601    0.071533    0.073378    0.075164    0.085326    0.092636
     0.092810    0.095740    0.096630    0.097411    0.097965    0.100902
     0.102185    0.102684    0.104657    0.106839    0.111831    0.112979
     0.117879    0.124498    0.129896    0.139841    0.145614    0.151510
     0.159747    0.159999    0.160026    0.160122    0.160455    0.160814
     0.162965    0.165541    0.177280    0.184463    0.213315    0.219794
     0.225899    0.236065    0.237783    0.238042    0.239340    0.240519
     0.243021    0.245993    0.247891    0.249106    0.249977    0.250783
     0.251050    0.252579    0.253714    0.254875    0.256557    0.258186
     0.258519    0.264131    0.268446    0.269955    0.277150    0.291925
     0.295763    0.297107    0.302668    0.315443    0.323503    0.324404
     0.325766    0.326400    0.326499    0.326637    0.326845    0.327111
     0.327943    0.328824    0.329077    0.329580    0.330660    0.330825
     0.331237    0.331684    0.332191    0.332957    0.333949    0.334715
     0.334772    0.334892    0.335188    0.335323    0.335412    0.336353
     0.338092    0.344255    0.344815    0.351981    0.362864    0.394557
     0.403343    0.407297    0.426959    0.449618    0.484884    0.741158
     0.787660    0.830395    0.833882    0.834237    0.845278    2.846637

 Minimum Search - Taking Simple RFO Step
 Searching for Lamda that Minimizes Along All modes
 Value Taken    Lamda =   0.00000000
 Step Taken.  Stepsize is  0.002348

                             Maximum     Tolerance    Cnvgd?
         Gradient           0.000158      0.000300     YES
         Displacement       0.000989      0.001200     YES
         Energy change      0.000001      0.000001      NO

 Final energy is   -1510.30527243070     


 ******************************
 **  OPTIMIZATION CONVERGED  **
 ******************************

                       Coordinates (Angstroms)
     ATOM                X               Y               Z
      1  O        -2.1102272268   -0.6868098164    2.3533226180
      2  C        -2.9054610385   -0.3130383324    1.4652204772
      3  C        -3.1532600102   -0.9874246033    0.0636601488
      4  C        -2.5547659584   -0.1875559569   -1.1656230402
      5  C        -1.8277127267    1.1306018501   -0.7427900666
      6  O        -1.6035639351    1.9273770005   -1.9037894000
      7  C        -0.8012599168    3.1325876121   -1.5717917672
      8  C         0.7339250647    2.8659682277   -1.7960347079
      9  O         1.2477402490    1.9222032773   -0.7802652767
     10  C         1.2503230006    0.5857131946   -1.3058633094
     11  C         1.5759099516   -0.4362659554   -0.1597695855
     12  C         3.1118909824   -0.6040249148    0.1686179954
     13  C         4.0107136621    0.3145297305   -0.7220531251
     14  O         3.6432589882    0.9840171087   -1.7154863298
     15  O        -3.8587705126    0.7483995135    1.6222688939
     16  O         5.3529607635    0.2794834964   -0.2373381603
     17  O         0.8728494699    0.2963116407   -2.4679421210
     18  C         6.2134780063    1.1563487514   -1.0659147206
     19  C         1.0179463264    0.0436403799    1.2483408432
     20  C         0.9908439340   -1.2107599168    2.2038617509
     21  C         2.5193387352   -1.3710708930    2.5447109317
     22  C         3.1416867494   -0.1867090104    1.7042775989
     23  O         2.1186776288    0.8771697151    1.7879847354
     24  H         1.1104020430   -1.3944664613   -0.4518116350
     25  H         3.4462364857   -1.6494076069    0.0351846890
     26  H         0.0677921179    0.6164915636    1.1828316497
     27  H         0.3866413758   -0.9980665389    3.0995841652
     28  H         0.5664464775   -2.0916026487    1.6970812859
     29  H         2.7139745247   -1.2201928930    3.6185932552
     30  H         2.9256921437   -2.3508950811    2.2466109595
     31  H         4.1271521921    0.1815130624    2.0504789429
     32  O        -1.4795515940    1.4597823775    0.4174978359
     33  C        -3.6112667016    1.4514578449    2.9000852378
     34  C        -2.3612064821   -2.3548479373   -0.0517469488
     35  C        -2.9464537483   -3.1766851473   -1.2660099291
     36  C        -2.3505188045   -2.3802764319   -2.4875565924
     37  C        -1.5238760191   -1.2558153653   -1.7510177745
     38  O        -1.0253461016   -1.9359394605   -0.5344958588
     39  H        -4.2417701264   -1.1290565180   -0.0612162172
     40  H        -3.3284325641    0.0639242128   -1.9124636304
     41  H        -2.6121269087    1.9336497812    2.9034327986
     42  H        -2.2700130103   -2.9042910346    0.9051977821
     43  H        -2.5779769474   -4.2147051758   -1.2423373808
     44  H        -4.0480433040   -3.1928679373   -1.2646925152
     45  H        -1.6815859082   -3.0117324570   -3.0939129295
     46  H        -3.1295541131   -1.9605076104   -3.1435965938
     47  H        -0.6704267316   -0.8076190239   -2.3120022514
     48  H        -3.6735985229    0.7621825510    3.7668773747
     49  H        -4.3968254609    2.2249009119    2.9833905091
     50  H         7.2230710532    1.1028929965   -0.6187648614
     51  H         5.8552929990    2.2059572883   -1.0536961538
     52  H         6.2542096205    0.8098959941   -2.1188927782
     53  H         0.8953452144    2.4512929468   -2.8140784321
     54  H         1.2920360159    3.8166619650   -1.6727046347
     55  H        -0.9806695362    3.4243543473   -0.5151626765
     56  H        -1.1454563116    3.9350328303   -2.2558443677

Z-matrix Print:
$molecule
0 1
O 
C  1 1.436129
O  2 1.255654 1 123.549412
C  1 1.478677 2 110.070913 3 0.454975 0
H  4 1.109287 1 107.205398 2 -145.096931 0
H  4 1.111047 1 109.922218 2 -25.067890 0
C  2 1.569707 1 109.819022 3 -171.481960 0
H  7 1.104597 2 106.518536 1 153.458242 0
C  4 1.574218 1 110.432986 2 95.979743 0
H  9 1.109197 4 109.712217 1 172.930008 0
H  9 1.110757 4 109.725175 1 51.632376 0
O  9 1.485411 4 110.945169 1 -69.852962 0
C  12 1.425838 9 110.874322 4 93.105680 0
O  13 1.255326 12 124.227195 9 5.031200 0
C  13 1.563629 12 108.904542 9 -174.661990 0
H  15 1.104343 13 108.460786 12 -41.665304 0
C  7 1.579626 2 115.000036 1 -81.991295 0
H  17 1.105629 7 111.676947 2 -121.025242 0
C  17 1.563624 7 112.218763 2 0.713083 0
O  19 1.253055 17 126.648072 7 -9.564938 0
O  19 1.427517 17 109.430264 7 170.758328 0
C  21 1.481864 19 109.976016 17 -179.484601 0
H  22 1.105477 21 105.994942 19 178.420662 0
H  22 1.109109 21 111.487032 19 59.162269 0
H  22 1.109257 21 111.548247 19 -62.354585 0
C  15 1.584021 13 113.048710 12 -166.542268 0
H  26 1.104766 15 110.443806 13 122.244956 0
C  26 1.574983 15 114.515359 13 -0.045127 0
O  28 1.249331 26 127.202407 15 -106.956383 0
O  28 1.435310 26 108.030451 15 78.938319 0
C  30 1.479312 28 109.563614 26 -177.109054 0
H  31 1.105557 30 106.182336 28 -177.727897 0
H  31 1.109195 30 111.732911 28 -58.240843 0
H  31 1.109415 30 111.091076 28 63.161838 0
C  26 1.584460 15 100.975719 13 -119.167447 0
H  35 1.107225 26 113.984027 15 154.981942 0
O  35 1.480896 26 103.329277 15 35.204486 0
C  37 1.480212 35 95.398132 26 -57.062709 0
H  38 1.115329 37 109.895148 35 178.631087 0
C  38 1.578050 37 103.450966 35 -55.829051 0
H  40 1.101585 38 112.141176 37 154.790351 0
H  40 1.101760 38 110.317237 37 -83.940106 0
C  40 1.575304 38 101.331390 37 34.288431 0
H  43 1.101709 40 112.743770 38 120.410165 0
H  43 1.101736 40 111.497493 38 -116.996505 0
C  7 1.588839 2 112.184309 1 32.573808 0
H  46 1.111415 7 113.807736 2 33.265985 0
O  46 1.482429 7 103.397021 2 -87.852052 0
C  48 1.478307 46 95.081663 7 -56.762692 0
H  49 1.107513 48 111.025530 46 179.146967 0
C  46 1.577110 7 107.622459 2 162.642184 0
H  51 1.101189 46 110.403183 7 -165.901017 0
H  51 1.101283 46 111.345388 7 -45.310774 0
C  51 1.574222 46 101.273580 7 75.182955 0
H  54 1.101758 51 111.630734 46 116.482116 0
H  54 1.101836 51 112.958456 46 -120.682470 0
$end

 
 --------------------------------------------------------------
 
                    Orbital Energies (a.u.)
 --------------------------------------------------------------
 
 Alpha MOs
 -- Occupied --
-18.944 -18.940 -18.922 -18.919 -18.887 -18.883 -18.881 -18.870
-18.860 -18.859 -10.108 -10.101 -10.091 -10.090 -10.073 -10.066
-10.065 -10.055 -10.053 -10.047 -10.046 -10.037 -10.031 -10.031
-10.030 -10.017 -10.016 -10.015 -10.005  -9.996  -1.022  -1.015
 -0.999  -0.997  -0.967  -0.953  -0.944  -0.939  -0.925  -0.924
 -0.760  -0.750  -0.723  -0.712  -0.705  -0.697  -0.687  -0.660
 -0.653  -0.613  -0.590  -0.573  -0.541  -0.535  -0.531  -0.518
 -0.507  -0.504  -0.485  -0.471  -0.457  -0.455  -0.448  -0.435
 -0.429  -0.424  -0.417  -0.414  -0.410  -0.404  -0.402  -0.397
 -0.392  -0.379  -0.370  -0.364  -0.359  -0.353  -0.349  -0.343
 -0.341  -0.337  -0.331  -0.327  -0.322  -0.319  -0.315  -0.304
 -0.299  -0.298  -0.298  -0.289  -0.280  -0.278  -0.274  -0.267
 -0.262  -0.255  -0.252  -0.243  -0.235  -0.230  -0.217  -0.190
 -0.181  -0.165  -0.164  -0.156  -0.154  -0.143  -0.142  -0.141
 -0.128
 -- Virtual --
  0.088   0.098   0.110   0.115   0.230   0.244   0.247   0.261
  0.266   0.274   0.290   0.301   0.308   0.321   0.331   0.340
  0.345   0.352   0.353   0.359   0.363   0.368   0.371   0.379
  0.387   0.388   0.390   0.406   0.413   0.415   0.416   0.420
  0.421   0.424   0.427   0.428   0.430   0.432   0.434   0.438
  0.440   0.441   0.447   0.448   0.452   0.459   0.462   0.470
  0.479   0.481   0.491   0.495   0.510   0.511   0.526   0.547
  0.555   0.560   0.575   0.639   0.641   0.651   0.658
 --------------------------------------------------------------
 
          Ground-State Mulliken Net Atomic Charges

     Atom                 Charge (a.u.)
  ----------------------------------------
      1 O                    -0.218511
      2 C                     0.214672
      3 C                    -0.081720
      4 C                    -0.079370
      5 C                     0.217070
      6 O                    -0.166233
      7 C                    -0.053130
      8 C                    -0.052168
      9 O                    -0.167875
     10 C                     0.217539
     11 C                    -0.086372
     12 C                    -0.079160
     13 C                     0.214823
     14 O                    -0.208822
     15 O                    -0.176263
     16 O                    -0.167772
     17 O                    -0.229577
     18 C                    -0.127786
     19 C                     0.018778
     20 C                    -0.143741
     21 C                    -0.144712
     22 C                     0.024648
     23 O                    -0.192542
     24 H                     0.097907
     25 H                     0.085647
     26 H                     0.102049
     27 H                     0.083246
     28 H                     0.078067
     29 H                     0.074551
     30 H                     0.069739
     31 H                     0.082835
     32 O                    -0.211872
     33 C                    -0.128728
     34 C                     0.024925
     35 C                    -0.144459
     36 C                    -0.144023
     37 C                     0.012195
     38 O                    -0.197636
     39 H                     0.083656
     40 H                     0.087656
     41 H                     0.092357
     42 H                     0.086430
     43 H                     0.076501
     44 H                     0.072428
     45 H                     0.078037
     46 H                     0.073099
     47 H                     0.106304
     48 H                     0.086644
     49 H                     0.086103
     50 H                     0.091722
     51 H                     0.091473
     52 H                     0.089762
     53 H                     0.102574
     54 H                     0.089043
     55 H                     0.100263
     56 H                     0.089730
  ----------------------------------------
  Sum of atomic charges =    -0.000000

 -----------------------------------------------------------------
                    Cartesian Multipole Moments
 -----------------------------------------------------------------
    Charge (ESU x 10^10)
                 0.0000
    Dipole Moment (Debye)
         X      -0.4122      Y       0.1510      Z      -0.9554
       Tot       1.0514
    Quadrupole Moments (Debye-Ang)
        XX    -141.2023     XY       1.4075     YY    -149.3683
        XZ      -0.7978     YZ      -1.9789     ZZ    -163.2238
    Octopole Moments (Debye-Ang^2)
       XXX      19.0878    XXY       1.1610    XYY     -25.6455
       YYY       8.0341    XXZ       0.6127    XYZ     -16.0990
       YYZ      -2.0899    XZZ     -33.1743    YZZ      -0.0459
       ZZZ      65.4541
    Hexadecapole Moments (Debye-Ang^3)
      XXXX   -6969.9952   XXXY    -246.4262   XXYY   -1640.4782
      XYYY    -436.6698   YYYY   -2414.0371   XXXZ     -19.3519
      XXYZ      56.8780   XYYZ      19.2895   YYYZ      66.9358
      XXZZ   -1657.1882   XYZZ    -180.6671   YYZZ    -846.3142
      XZZZ     106.5779   YZZZ     146.3017   ZZZZ   -2711.4637
 -----------------------------------------------------------------
Archival summary:
1\1\vega02.cac.cornell.edu\OPT\ProcedureUnspecified\STO-3G\102026\jj585\MonJan1512:05:562018MonJan1512:05:562018\0\\#,OPT,ProcedureUnspecified,STO-3G,\\0,1\O\C,1,1.43613\O,2,1.25565,1,123.549\C,1,1.47868,2,110.071,3,0.454975,0\H,4,1.10929,1,107.205,2,-145.097,0\H,4,1.11105,1,109.922,2,-25.0679,0\C,2,1.56971,1,109.819,3,-171.482,0\H,7,1.1046,2,106.519,1,153.458,0\C,4,1.57422,1,110.433,2,95.9797,0\H,9,1.1092,4,109.712,1,172.93,0\H,9,1.11076,4,109.725,1,51.6324,0\O,9,1.48541,4,110.945,1,-69.853,0\C,12,1.42584,9,110.874,4,93.1057,0\O,13,1.25533,12,124.227,9,5.0312,0\C,13,1.56363,12,108.905,9,-174.662,0\H,15,1.10434,13,108.461,12,-41.6653,0\C,7,1.57963,2,115,1,-81.9913,0\H,17,1.10563,7,111.677,2,-121.025,0\C,17,1.56362,7,112.219,2,0.713083,0\O,19,1.25305,17,126.648,7,-9.56494,0\O,19,1.42752,17,109.43,7,170.758,0\C,21,1.48186,19,109.976,17,-179.485,0\H,22,1.10548,21,105.995,19,178.421,0\H,22,1.10911,21,111.487,19,59.1623,0\H,22,1.10926,21,111.548,19,-62.3546,0\C,15,1.58402,13,113.049,12,-166.542,0\H,26,1.10477,15,110.444,13,122.245,0\C,26,1.57498,15,114.515,13,-0.0451269,0\O,28,1.24933,26,127.202,15,-106.956,0\O,28,1.43531,26,108.03,15,78.9383,0\C,30,1.47931,28,109.564,26,-177.109,0\H,31,1.10556,30,106.182,28,-177.728,0\H,31,1.1092,30,111.733,28,-58.2408,0\H,31,1.10941,30,111.091,28,63.1618,0\C,26,1.58446,15,100.976,13,-119.167,0\H,35,1.10722,26,113.984,15,154.982,0\O,35,1.4809,26,103.329,15,35.2045,0\C,37,1.48021,35,95.3981,26,-57.0627,0\H,38,1.11533,37,109.895,35,178.631,0\C,38,1.57805,37,103.451,35,-55.8291,0\H,40,1.10159,38,112.141,37,154.79,0\H,40,1.10176,38,110.317,37,-83.9401,0\C,40,1.5753,38,101.331,37,34.2884,0\H,43,1.10171,40,112.744,38,120.41,0\H,43,1.10174,40,111.497,38,-116.997,0\C,7,1.58884,2,112.184,1,32.5738,0\H,46,1.11141,7,113.808,2,33.266,0\O,46,1.48243,7,103.397,2,-87.8521,0\C,48,1.47831,46,95.0817,7,-56.7627,0\H,49,1.10751,48,111.026,46,179.147,0\C,46,1.57711,7,107.622,2,162.642,0\H,51,1.10119,46,110.403,7,-165.901,0\H,51,1.10128,46,111.345,7,-45.3108,0\C,51,1.57422,46,101.274,7,75.183,0\H,54,1.10176,51,111.631,46,116.482,0\H,54,1.10184,51,112.958,46,-120.682,0\\\@

 Total job time:  123.33s(wall), 5864.89s(cpu) 
 Mon Jan 15 12:05:56 2018

        *************************************************************
        *                                                           *
        *  Thank you very much for using Q-Chem.  Have a nice day.  *
        *                                                           *
        *************************************************************


0 sent ACK to 0 
now end server 0 ... 
