mFile = /opt/software/qchem/qchem-5.0.1//bin/mpi/machines
Process 0 of 1 is on vega02.cac.cornell.edu - thread support 0
initial socket setup ...start
initial socket setup ...done 
now start server 0 ... 
vega02.cac.cornell.edu 10.84.3
Q-Chem Developer Version! Running on 10.84.3.*
                  Welcome to Q-Chem
     A Quantum Leap Into The Future Of Chemistry


 Q-Chem 5.0, Q-Chem, Inc., Pleasanton, CA (2017)

 Yihan Shao,  Zhengting Gan,  E. Epifanovsky,  A. T. B. Gilbert,  M. Wormit,  
 J. Kussmann,  A. W. Lange,  A. Behn,  Jia Deng,  Xintian Feng,  D. Ghosh,  
 M. Goldey,  P. R. Horn,  L. D. Jacobson,  I. Kaliman,  T. Kus,  A. Landau,  
 Jie Liu,  E. I. Proynov,  R. M. Richard,  R. P. Steele,  E. J. Sundstrom,  
 H. L. Woodcock III,  P. M. Zimmerman,  D. Zuev,  B. Albrecht,  E. Alguire,  
 S. A. Baeppler,  Z. Benda,  Y. A. Bernard,  E. J. Berquist,  K. B. Bravaya,  
 D. Casanova,  Chun-Min Chang,  Yunqing Chen,  A. Chien,  K. D. Closser,  
 M. P. Coons,  S. Dasgupta,  M. Diedenhofen,  Hainam Do,  R. G. Edgar,  
 Po-Tung Fang,  S. Fatehi,  Qingguo Feng,  Qinghui Ge,  A. Ghysels,  
 J. Gomes,  J. Gonthier,  A. Gunina,  M. W. D. Hanson-Heine,  
 P. H. P. Harbach,  A. W. Hauser,  J. E. Herr,  E. G. Hohenstein,  
 Z. C. Holden,  Kerwin Hui,  T.-C. Jagau,  Hyunjun Ji,  B. Kaduk,  
 K. Khistyaev,  Jaehoon Kim,  P. Klunzinger,  K. Koh,  D. Kosenkov,  
 T. Kowalczyk,  C. M. Krauter,  A. Kunitsa,  Ka Un Lao,  A. Laurent,  
 K. V. Lawler,  Joonho Lee,  D. Lefrancois,  S. Lehtola,  D. S. Levine,  
 Yi-Pei Li,  You-Sheng Lin,  Fenglai Liu,  E. Livshits,  A. Luenser,  
 P. Manohar,  E. Mansoor,  S. F. Manzer,  Shan-Ping Mao,  Yuezhi Mao,  
 N. Mardirossian,  A. V. Marenich,  L. A. Martinez-Martinez,  S. A. Maurer,  
 N. J. Mayhall,  S. C. McKenzie,  J.-M. Mewes,  A. F. Morrison,  K. Nanda,  
 T. S. Nguyen-Beck,  R. Olivares-Amaya,  J. A. Parkhill,  T. M. Perrine,  
 F. Plasser,  S. Prager,  A. Prociuk,  D. R. Rehn,  F. Rob,  M. Schneider,  
 N. Sergueev,  S. M. Sharada,  S. Sharma,  D. W. Small,  T. Stauch,  
 T. Stein,  Yu-Chuan Su,  A. J. W. Thom,  T. Tsuchimochi,  L. Vogt,  
 O. Vydrov,  M. A. Watson,  J. Wenzel,  M. de Wergifosse,  T. A. Wesolowski,  
 A. White,  J. Witte,  A. Yamada,  Jun Yang,  K. Yao,  S. Yeganeh,  
 S. R. Yost,  Zhi-Qiang You,  A. Zech,  Igor Ying Zhang,  Xing Zhang,  
 Yan Zhao,  Ying Zhu,  B. R. Brooks,  G. K. L. Chan,  C. J. Cramer,  
 M. S. Gordon,  W. J. Hehre,  A. Klamt,  M. W. Schmidt,  C. D. Sherrill,  
 D. G. Truhlar,  A. Aspuru-Guzik,  R. Baer,  A. T. Bell,  N. A. Besley,  
 Jeng-Da Chai,  A. Dreuw,  B. D. Dunietz,  T. R. Furlani,  Chao-Ping Hsu,  
 Yousung Jung,  Jing Kong,  D. S. Lambrecht,  WanZhen Liang,  C. Ochsenfeld,  
 V. A. Rassolov,  L. V. Slipchenko,  J. E. Subotnik,  T. Van Voorhis,  
 J. M. Herbert,  A. I. Krylov,  P. M. W. Gill,  M. Head-Gordon

 Contributors to earlier versions of Q-Chem not listed above: 
 R. D. Adamson,  B. Austin,  J. Baker,  G. J. O. Beran,  K. Brandhorst,  
 S. T. Brown,  E. F. C. Byrd,  A. K. Chakraborty,  C.-L. Cheng,  
 Siu Hung Chien,  D. M. Chipman,  D. L. Crittenden,  H. Dachsel,  
 R. A. DiStasio Jr.,  R. J. Doerksen,  A. D. Dutoi,  L. Fusti-Molnar,  
 W. A. Goddard III,  A. Golubeva-Zadorozhnaya,  S. R. Gwaltney,  G. Hawkins,  
 A. Heyden,  S. Hirata,  G. Kedziora,  F. J. Keil,  C. Kelley,  Jihan Kim,  
 R. A. King,  R. Z. Khaliullin,  P. P. Korambath,  W. Kurlancheek,  
 A. M. Lee,  M. S. Lee,  S. V. Levchenko,  Ching Yeh Lin,  D. Liotard,  
 R. C. Lochan,  I. Lotan,  P. E. Maslen,  N. Nair,  D. P. O'Neill,  
 D. Neuhauser,  E. Neuscamman,  C. M. Oana,  R. Olson,  B. Peters,  
 R. Peverati,  P. A. Pieniazek,  Y. M. Rhee,  J. Ritchie,  M. A. Rohrdanz,  
 E. Rosta,  N. J. Russ,  H. F. Schaefer III,  N. E. Schultz,  N. Shenvi,  
 A. C. Simmonett,  A. Sodt,  D. Stuck,  K. S. Thanthiriwatte,  V. Vanovschi,  
 Tao Wang,  A. Warshel,  C. F. Williams,  Q. Wu,  X. Xu,  W. Zhang

 Please cite Q-Chem as follows:
 Y. Shao et al., Mol. Phys. 113, 184-215 (2015)
 DOI: 10.1080/00268976.2014.952696

 Q-Chem 5.0.1 for Intel X86 EM64T Linux

 Parts of Q-Chem use Armadillo 5.200.1 (Boston Tea Smuggler).
 http://arma.sourceforge.net/

 Q-Chem begins on Mon Jan 15 12:37:58 2018  

Host: vega02.cac.cornell.edu
0

     Scratch files written to /scratch/jj585/SOT1001/0794c.save//
 Parallel job on  1  processors

Checking the input file for inconsistencies... 	...done.

--------------------------------------------------------------
User input:
--------------------------------------------------------------
$molecule
0  1
O -3.94934 -3.66094 2.70899
C -3.26408 -4.56952 2.26188
C -3.36658 -6.02376 2.66595
C -2.12236 -6.6659 3.30111
C -0.97396 -5.73591 3.62421
O -0.12007 -6.34062 4.50205
C 1.02365 -5.53958 4.81749
C 2.10243 -6.39758 5.47032
O 2.07149 -6.22207 6.89549
C 1.24099 -7.05708 7.56794
C 1.7846 -7.46801 8.91563
C 2.99076 -8.41717 8.86507
C 3.68784 -8.52899 7.52407
O 3.27345 -8.07022 6.46938
O -2.42413 -4.30118 1.22566
O 4.83903 -9.25176 7.50986
O 0.14684 -7.40776 7.1488
C 5.60191 -9.47543 6.38291
C 2.34343 -6.31053 9.7596
C 2.32597 -6.69673 11.23745
C 3.42694 -7.73825 11.27067
C 3.93027 -7.6566 9.82447
O 3.71925 -6.31019 9.46794
H 0.94197 -7.95387 9.45904
H 2.75678 -9.44907 9.20791
H 1.80389 -5.35169 9.59855
H 2.66341 -5.80432 11.81191
H 1.34232 -7.03401 11.62933
H 4.21295 -7.39327 11.97872
H 3.10111 -8.76779 11.53419
H 4.98193 -8.01357 9.76612
O -0.85796 -4.56695 3.27942
C -2.24199 -3.04934 0.67577
C -4.41187 -6.2428 3.77813
C -4.88649 -7.69493 3.77534
C -3.66981 -8.38559 4.34539
C -2.76694 -7.17852 4.61652
O -3.66611 -6.15609 4.96338
H -3.68997 -6.56961 1.7514
H -1.70516 -7.51123 2.71041
H -1.85596 -2.34632 1.44461
H -5.29057 -5.56575 3.70086
H -5.71897 -7.78117 4.51001
H -5.22702 -8.06896 2.78583
H -3.95859 -8.86375 5.30827
H -3.19007 -9.13588 3.68041
H -2.03156 -7.45455 5.40118
H -3.20139 -2.66791 0.26549
H -1.50301 -3.11834 -0.14858
H 6.48281 -10.09165 6.65627
H 5.95661 -8.50956 5.96368
H 5.0066 -10.0204 5.61937
H 1.90914 -7.40079 5.00939
H 3.08562 -5.98923 5.14129
H 0.78784 -4.61173 5.38495
H 1.47714 -5.23472 3.84305
$end

$opt
CONSTRAINT
tors           1           2           3           4    -118.702
tors           3           4           5           6    +162.961
tors           4           5           6           7    +177.735
tors           5           6           7           8    -164.295
tors           6           7           8           9     -99.942
tors           7           8           9          10     +88.579
tors           8           9          10          11    +144.505
tors           9          10          11          12     -70.340
tors          11          12          13          14      -9.792
ENDCONSTRAINT
$end

$rem
JOBTYPE                   OPT
METHOD                    B3LYP
DFT_D                     d3_op
BASIS                     STO-3G
GEOM_OPT_MAX_CYCLES       100
GEOM_OPT_TOL_GRADIENT     300
GEOM_OPT_TOL_DISPLACEMENT 1200
GEOM_OPT_TOL_ENERGY       100
SYMMETRY                  False
THRESH                    12
SCF_CONVERGENCE           8
MAX_SUB_FILE_NUM          128
MEM_STATIC                400
MEM_TOTAL                 4000
$end
--------------------------------------------------------------
 Adding empirical dispersion correction 
 ----------------------------------------------------------------
 Doing -D3(op) with
 s6 =   1.00000
 s8 =   0.78311
 a1 =   0.30000
 a2 =   4.25000
 n  =  10.00000
 -D3 energy without 3body term =     -0.0664367912 hartrees
 ----------------------------------------------------------------
             Standard Nuclear Orientation (Angstroms)
    I     Atom           X                Y                Z
 ----------------------------------------------------------------
    1      O      -5.7561852399    -0.1151363190     1.6354053115
    2      C      -5.3269919774     0.4316235310     0.6294962472
    3      C      -4.7615498685    -0.2797139706    -0.5799941301
    4      C      -3.2956491543     0.0086341425    -0.9431000037
    5      C      -2.5065129745     0.8379283999     0.0456530973
    6      O      -1.1693757394     0.7003693892    -0.1963116001
    7      C      -0.3553930777     1.4985794444     0.6694573343
    8      C       1.0598751175     1.6039112075     0.1108533130
    9      O       1.9243448833     0.6800681042     0.7906154165
   10      C       1.9878021075    -0.5631009984     0.2524103295
   11      C       3.3614113634    -1.1813853440     0.3599543349
   12      C       4.4309714961    -0.5424891858    -0.5378963132
   13      C       4.0791867317     0.8096590168    -1.1249635636
   14      O       2.9767626652     1.3362590755    -1.0812195703
   15      O      -5.4756972127     1.7786006612     0.5077850710
   16      O       5.0751305827     1.4435218038    -1.7988705498
   17      O       1.0254081623    -1.1427361131    -0.2309529422
   18      C       4.9388831684     2.6711595941    -2.4123626555
   19      C       4.0129430247    -1.0543265128     1.7469290384
   20      C       5.0659956514    -2.1469499935     1.9222858428
   21      C       6.1392347633    -1.6611697193     0.9682534777
   22      C       5.5310107397    -0.3259034314     0.5225745249
   23      O       4.8012820815     0.1060920648     1.6474473826
   24      H       3.2420296849    -2.2583012318     0.1003780068
   25      H       4.7541338617    -1.1978074009    -1.3764830043
   26      H       3.2769529282    -1.0818415082     2.5799813551
   27      H       5.4520086650    -2.0639648961     2.9636182010
   28      H       4.7089650525    -3.1843703238     1.7456980032
   29      H       7.0726753762    -1.4914146308     1.5496565695
   30      H       6.3445730100    -2.3277142717     0.1027390902
   31      H       6.3331339209     0.3606509579     0.1732000386
   32      O      -2.9501808668     1.4466113815     1.0107787134
   33      C      -6.0277026601     2.5911516385     1.4761384530
   34      C      -4.7220037174    -1.8088430101    -0.3856888533
   35      C      -4.6878904413    -2.5107552374    -1.7421950180
   36      C      -3.2716653540    -2.2108703547    -2.1742297617
   37      C      -2.7625364146    -1.4488777622    -0.9470954127
   38      O      -3.4387900486    -2.0502764275     0.1276986705
   39      H      -5.4490709590    -0.0384949416    -1.4214590119
   40      H      -3.1673620000     0.4786034057    -1.9432182150
   41      H      -5.4313037938     2.5308295850     2.4115746448
   42      H      -5.5720687774    -2.2021546238     0.2136244318
   43      H      -4.7778590511    -3.6056979593    -1.5599688346
   44      H      -5.4808281973    -2.1879565145    -2.4507427309
   45      H      -2.7246730121    -3.1754166718    -2.2723039601
   46      H      -3.1718880288    -1.6233763801    -3.1124084586
   47      H      -1.6552323571    -1.5239641620    -0.9169727009
   48      H      -7.0768147306     2.2870030178     1.6789298814
   49      H      -6.0229475624     3.6403998508     1.1163316425
   50      H       5.9030465148     2.9512500791    -2.8839302006
   51      H       4.6686851428     3.4452006416    -1.6624798490
   52      H       4.1563438143     2.6212414984    -3.1994585655
   53      H       0.8791748815     1.5185111058    -0.9920075306
   54      H       1.4393749311     2.6173762455     0.3764499014
   55      H      -0.3910240924     1.1925274112     1.7388428653
   56      H      -0.7481305066     2.5423240273     0.6025195204
 ----------------------------------------------------------------
 Molecular Point Group                 C1    NOp =  1
 Largest Abelian Subgroup              C1    NOp =  1
 Nuclear Repulsion Energy =  3154.6301682730 hartrees
 There are      113 alpha and      113 beta electrons
 Requested basis set is STO-3G
 There are 86 shells and 176 basis functions

 Total QAlloc Memory Limit   4000 MB
 Mega-Array Size       392 MB
 MEM_STATIC part       400 MB
 A cutoff of  1.0D-12 yielded   2091 shell pairs
 There are      9882 function pairs
 
 -------------------------------------------------------
 OpenMP Integral Computing Module                       
 Release: version 1.0, May 2013, Q-Chem Inc. Pittsburgh 
 -------------------------------------------------------
 Integral Job Info:
 Integral job number is                      11
 Integral operator is                         1
 short-range coefficients                     0
 long-range coefficients              100000000
 Omega coefficients                           0
 if combine SR and LR in K                    0
 Integral screening is                        0
 Integral computing path is                   2
 max size of driver memory is            800000
 size of driver memory is                 45569
 size of scratch memory is              1046100
 max col of scratch BK array                289
 max len of scratch array in speh3           22
 max len of scratch index in speh4            8
 max int batch size is                      520
 min int batch size is                       52
 fixed nKL is                                52
 max L of basis functions is                  1
 order of int derivative is                   0
 number of shells is                         86
 number of basis is                         176
 number of cartesian basis is               176
 number of contracted shell pairs          2091
 number of primitive shell pairs          10825
 maxK2 (contraction) of shell pair            9
 max number of K2 of shell pair               1
 max number of CS2 of shell pair            293
 max number of PS2 of shell pair           1206
 mem total for path MDJ                   53354
 -------------------------------------------------------
 Smallest overlap matrix eigenvalue = 1.94E-01

 Scale SEOQF with 1.000000e-02/1.000000e-01/1.000000e-01

 Standard Electronic Orientation quadrupole field applied
 Nucleus-field energy     =     0.0000000149 hartrees
 Guess from superposition of atomic densities
 Warning:  Energy on first SCF cycle will be non-variational
 A restricted hybrid HF-DFT SCF calculation will be
 performed using Pulay DIIS extrapolation
 Exchange:     0.2000 Hartree-Fock + 0.0800 Slater + 0.7200 B88
 Correlation:  0.1900 VWN1RPA + 0.8100 LYP
 Using SG-1 standard quadrature grid
 Dispersion:   Grimme D3
 SCF converges when DIIS error is below 1.0E-08
 using 48 threads for integral computing
 -------------------------------------------------------
 OpenMP Integral computing Module                
 Release: version 1.0, May 2013, Q-Chem Inc. Pittsburgh 
 -------------------------------------------------------
 -------------------------------------------------------
 OpenMP BLAS3 based DFT computing Module                
 Release: version 1.0, May 2013, Q-Chem Inc. Pittsburgh 
 -------------------------------------------------------
 ---------------------------------------
  Cycle       Energy         DIIS Error
 ---------------------------------------
    1   -1509.4818523034      8.30E-02
    2   -1509.5968344391      1.03E-02
    3   -1507.9421805640      2.31E-02
    4   -1510.0784050709      3.26E-03
    5   -1510.1211627069      1.08E-03
    6   -1510.1260999775      3.44E-04
    7   -1510.1265628135      1.21E-04
    8   -1510.1266245402      2.23E-05
    9   -1510.1266265643      8.12E-06
   10   -1510.1266268009      3.68E-06
   11   -1510.1266268598      6.21E-07
   12   -1510.1266268614      1.93E-07
   13   -1510.1266268615      1.19E-07
   14   -1510.1266268614      2.83E-08
   15   -1510.1266268614      6.18E-09 Convergence criterion met
 ---------------------------------------
 SCF time:  CPU 109.16 s  wall 2.33 s
 SCF   energy in the final basis set = -1510.12662686
 Total energy in the final basis set = -1510.12662686
 
 --------------------------------------------------------------
 
                    Orbital Energies (a.u.)
 --------------------------------------------------------------
 
 Alpha MOs
 -- Occupied --
-18.940 -18.934 -18.921 -18.910 -18.901 -18.889 -18.863 -18.861
-18.860 -18.837 -10.119 -10.106 -10.101 -10.095 -10.089 -10.073
-10.070 -10.070 -10.066 -10.063 -10.057 -10.054 -10.047 -10.035
-10.030 -10.029 -10.018 -10.017 -10.007 -10.006  -1.054  -1.038
 -1.031  -1.025  -1.023  -1.015  -0.958  -0.944  -0.939  -0.928
 -0.785  -0.773  -0.746  -0.738  -0.731  -0.721  -0.705  -0.687
 -0.666  -0.622  -0.607  -0.581  -0.554  -0.543  -0.539  -0.529
 -0.526  -0.516  -0.505  -0.491  -0.480  -0.471  -0.464  -0.458
 -0.449  -0.437  -0.435  -0.426  -0.424  -0.414  -0.411  -0.408
 -0.406  -0.397  -0.393  -0.380  -0.375  -0.360  -0.354  -0.353
 -0.350  -0.346  -0.342  -0.336  -0.330  -0.318  -0.318  -0.313
 -0.309  -0.305  -0.302  -0.298  -0.290  -0.288  -0.283  -0.277
 -0.264  -0.241  -0.240  -0.236  -0.228  -0.226  -0.208  -0.186
 -0.173  -0.172  -0.157  -0.156  -0.146  -0.142  -0.136  -0.133
 -0.124
 -- Virtual --
  0.105   0.114   0.120   0.136   0.254   0.259   0.259   0.271
  0.296   0.311   0.329   0.337   0.340   0.348   0.355   0.365
  0.374   0.382   0.384   0.387   0.390   0.394   0.396   0.400
  0.406   0.408   0.414   0.415   0.418   0.419   0.420   0.427
  0.428   0.432   0.442   0.443   0.446   0.452   0.455   0.459
  0.467   0.472   0.474   0.483   0.487   0.488   0.496   0.497
  0.498   0.505   0.513   0.527   0.533   0.534   0.558   0.561
  0.573   0.577   0.589   0.686   0.698   0.700   0.708
 --------------------------------------------------------------
 
          Ground-State Mulliken Net Atomic Charges

     Atom                 Charge (a.u.)
  ----------------------------------------
      1 O                    -0.240314
      2 C                     0.243867
      3 C                    -0.082811
      4 C                    -0.082045
      5 C                     0.234594
      6 O                    -0.188843
      7 C                    -0.038984
      8 C                    -0.011894
      9 O                    -0.194549
     10 C                     0.242312
     11 C                    -0.085699
     12 C                    -0.080971
     13 C                     0.241158
     14 O                    -0.236806
     15 O                    -0.212560
     16 O                    -0.212995
     17 O                    -0.224721
     18 C                    -0.097634
     19 C                     0.040502
     20 C                    -0.141818
     21 C                    -0.143666
     22 C                     0.039300
     23 O                    -0.209933
     24 H                     0.086177
     25 H                     0.089962
     26 H                     0.087292
     27 H                     0.075513
     28 H                     0.073718
     29 H                     0.075875
     30 H                     0.071919
     31 H                     0.086850
     32 O                    -0.227325
     33 C                    -0.096058
     34 C                     0.040971
     35 C                    -0.143285
     36 C                    -0.143706
     37 C                     0.036214
     38 O                    -0.211394
     39 H                     0.084338
     40 H                     0.084595
     41 H                     0.089778
     42 H                     0.090379
     43 H                     0.073868
     44 H                     0.069830
     45 H                     0.074368
     46 H                     0.069535
     47 H                     0.099749
     48 H                     0.080801
     49 H                     0.089160
     50 H                     0.095911
     51 H                     0.088086
     52 H                     0.086700
     53 H                     0.104924
     54 H                     0.091042
     55 H                     0.090102
     56 H                     0.078622
  ----------------------------------------
  Sum of atomic charges =    -0.000000

 -----------------------------------------------------------------
                    Cartesian Multipole Moments
 -----------------------------------------------------------------
    Charge (ESU x 10^10)
                -0.0000
    Dipole Moment (Debye)
         X       3.5467      Y       1.1202      Z      -3.4118
       Tot       5.0472
    Quadrupole Moments (Debye-Ang)
        XX    -147.8948     XY      -5.1771     YY    -151.9661
        XZ       5.3913     YZ      -1.6508     ZZ    -158.1215
    Octopole Moments (Debye-Ang^2)
       XXX      50.8329    XXY      24.6902    XYY      11.6545
       YYY      47.4494    XXZ     -75.1387    XYZ     -42.1009
       YYZ      -4.0414    XZZ      14.2912    YZZ      15.2172
       ZZZ      -3.5593
    Hexadecapole Moments (Debye-Ang^3)
      XXXX  -16139.4538   XXXY    -132.0740   XXYY   -2962.9635
      XYYY      39.0735   YYYY   -2374.6181   XXXZ       6.2210
      XXYZ      -8.6184   XYYZ    -108.0525   YYYZ      -6.3637
      XXZZ   -3059.6112   XYZZ       2.6878   YYZZ    -659.0999
      XZZZ    -100.7180   YZZZ     -45.5831   ZZZZ   -1595.3387
 -----------------------------------------------------------------
 Calculating analytic gradient of the SCF energy
 Gradient of SCF Energy
            1           2           3           4           5           6
    1   0.0181157   0.0082133   0.0246682  -0.0061579   0.0160273  -0.0378267
    2   0.0431884  -0.0016388  -0.0255374  -0.0059208   0.0086426   0.0311369
    3  -0.0542191  -0.0288652   0.0387916   0.0424734  -0.0090382   0.0379702
            7           8           9          10          11          12
    1   0.0235323   0.0288039  -0.0270628  -0.0019781   0.0075269  -0.0287538
    2  -0.0467688  -0.0120125  -0.0410722   0.0174425   0.0417444   0.0183385
    3  -0.0272863  -0.0007542  -0.0421641   0.0076959   0.0140522   0.0271470
           13          14          15          16          17          18
    1   0.0252983   0.0340595  -0.0397204  -0.1002441   0.0488790   0.0287770
    2  -0.0146143  -0.0248184  -0.0325625   0.0735834   0.0286496  -0.0489163
    3   0.0095078   0.0200038   0.1119047  -0.0095723   0.0305603   0.0159063
           19          20          21          22          23          24
    1   0.0468967  -0.0015183  -0.0404043  -0.0600242  -0.0031450   0.0000764
    2   0.0335493   0.0414412   0.0213719  -0.0116720  -0.0748140  -0.0081373
    3  -0.0337308  -0.0329125   0.0120407   0.0398532  -0.0439017   0.0000196
           25          26          27          28          29          30
    1   0.0010032  -0.0029286   0.0054733  -0.0011460   0.0028747  -0.0001738
    2  -0.0000847  -0.0128201   0.0073515  -0.0082357   0.0008784  -0.0025887
    3  -0.0067590   0.0021074   0.0068084  -0.0010278   0.0126596  -0.0085462
           31          32          33          34          35          36
    1   0.0086843   0.0207781   0.0228538   0.0730184   0.0374556  -0.0231726
    2  -0.0076257  -0.0313666  -0.0100497   0.0088776   0.0286295   0.0123171
    3  -0.0060050  -0.0433193  -0.0510548  -0.0099732   0.0241840   0.0433234
           37          38          39          40          41          42
    1  -0.0677151  -0.0291115  -0.0072983   0.0049762   0.0045466  -0.0099995
    2  -0.0094318   0.0363272  -0.0016234   0.0033840  -0.0031378  -0.0044321
    3   0.0323015  -0.0713961  -0.0007899  -0.0037586  -0.0065369  -0.0104710
           43          44          45          46          47          48
    1   0.0065270  -0.0053852  -0.0017710   0.0013685   0.0012763   0.0032273
    2  -0.0092440   0.0022492  -0.0122622   0.0061502  -0.0036927  -0.0035050
    3   0.0040572  -0.0057332   0.0040268  -0.0058271  -0.0142180  -0.0080140
           49          50          51          52          53          54
    1  -0.0015164  -0.0006708   0.0031575   0.0027454  -0.0159854  -0.0014279
    2   0.0017290   0.0032213  -0.0072604  -0.0082460   0.0044088   0.0042068
    3   0.0027085  -0.0014729   0.0043537   0.0022863  -0.0075077   0.0063611
           55          56
    1  -0.0000440   0.0043413
    2   0.0035485   0.0017237
    3   0.0018730  -0.0101224
 Max gradient component =       1.119E-01
 RMS gradient           =       2.726E-02
 Gradient time:  CPU 33.13 s  wall 0.72 s
 Geometry Optimization Parameters
   NAtoms,    NIC,     NZ,  NCons,   NDum,   NFix, NCnnct, MaxDiis
       56     458       0       9       0       0       0       0


** CONSTRAINED OPTIMIZATION IN DELOCALIZED INTERNAL COORDINATES **
   Searching for a Minimum

   Optimization Cycle:   1

                       Coordinates (Angstroms)
     ATOM                X               Y               Z
      1  O        -5.7561852399   -0.1151363190    1.6354053115
      2  C        -5.3269919774    0.4316235310    0.6294962472
      3  C        -4.7615498685   -0.2797139706   -0.5799941301
      4  C        -3.2956491543    0.0086341425   -0.9431000037
      5  C        -2.5065129745    0.8379283999    0.0456530973
      6  O        -1.1693757394    0.7003693892   -0.1963116001
      7  C        -0.3553930777    1.4985794444    0.6694573343
      8  C         1.0598751175    1.6039112075    0.1108533130
      9  O         1.9243448833    0.6800681042    0.7906154165
     10  C         1.9878021075   -0.5631009984    0.2524103295
     11  C         3.3614113634   -1.1813853440    0.3599543349
     12  C         4.4309714961   -0.5424891858   -0.5378963132
     13  C         4.0791867317    0.8096590168   -1.1249635636
     14  O         2.9767626652    1.3362590755   -1.0812195703
     15  O        -5.4756972127    1.7786006612    0.5077850710
     16  O         5.0751305827    1.4435218038   -1.7988705498
     17  O         1.0254081623   -1.1427361131   -0.2309529422
     18  C         4.9388831684    2.6711595941   -2.4123626555
     19  C         4.0129430247   -1.0543265128    1.7469290384
     20  C         5.0659956514   -2.1469499935    1.9222858428
     21  C         6.1392347633   -1.6611697193    0.9682534777
     22  C         5.5310107397   -0.3259034314    0.5225745249
     23  O         4.8012820815    0.1060920648    1.6474473826
     24  H         3.2420296849   -2.2583012318    0.1003780068
     25  H         4.7541338617   -1.1978074009   -1.3764830043
     26  H         3.2769529282   -1.0818415082    2.5799813551
     27  H         5.4520086650   -2.0639648961    2.9636182010
     28  H         4.7089650525   -3.1843703238    1.7456980032
     29  H         7.0726753762   -1.4914146308    1.5496565695
     30  H         6.3445730100   -2.3277142717    0.1027390902
     31  H         6.3331339209    0.3606509579    0.1732000386
     32  O        -2.9501808668    1.4466113815    1.0107787134
     33  C        -6.0277026601    2.5911516385    1.4761384530
     34  C        -4.7220037174   -1.8088430101   -0.3856888533
     35  C        -4.6878904413   -2.5107552374   -1.7421950180
     36  C        -3.2716653540   -2.2108703547   -2.1742297617
     37  C        -2.7625364146   -1.4488777622   -0.9470954127
     38  O        -3.4387900486   -2.0502764275    0.1276986705
     39  H        -5.4490709590   -0.0384949416   -1.4214590119
     40  H        -3.1673620000    0.4786034057   -1.9432182150
     41  H        -5.4313037938    2.5308295850    2.4115746448
     42  H        -5.5720687774   -2.2021546238    0.2136244318
     43  H        -4.7778590511   -3.6056979593   -1.5599688346
     44  H        -5.4808281973   -2.1879565145   -2.4507427309
     45  H        -2.7246730121   -3.1754166718   -2.2723039601
     46  H        -3.1718880288   -1.6233763801   -3.1124084586
     47  H        -1.6552323571   -1.5239641620   -0.9169727009
     48  H        -7.0768147306    2.2870030178    1.6789298814
     49  H        -6.0229475624    3.6403998508    1.1163316425
     50  H         5.9030465148    2.9512500791   -2.8839302006
     51  H         4.6686851428    3.4452006416   -1.6624798490
     52  H         4.1563438143    2.6212414984   -3.1994585655
     53  H         0.8791748815    1.5185111058   -0.9920075306
     54  H         1.4393749311    2.6173762455    0.3764499014
     55  H        -0.3910240924    1.1925274112    1.7388428653
     56  H        -0.7481305066    2.5423240273    0.6025195204
   Point Group: c1    Number of degrees of freedom:   162


   Energy is  -1510.126626861

              Constraints and their Current Values
                                        Value     Constraint
   Dihedral:        1   2   3   4     -118.702     -118.702
   Dihedral:        3   4   5   6      162.961      162.961
   Dihedral:        4   5   6   7      177.735      177.735
   Dihedral:        5   6   7   8     -164.295     -164.295
   Dihedral:        6   7   8   9      -99.942      -99.942
   Dihedral:        7   8   9  10       88.579       88.579
   Dihedral:        8   9  10  11      144.505      144.505
   Dihedral:        9  10  11  12      -70.340      -70.340
   Dihedral:       11  12  13  14       -9.792       -9.792

 Attempting to Generate Delocalized Internal Coordinates

   Using Lagrange Multiplier Algorithm


167 Hessian modes will be used to form the next step
  Hessian Eigenvalues:
    -0.977753   -0.977753   -0.977753   -0.977753   -0.977753   -0.977753
    -0.977753    0.045000    0.045000    0.045000    0.045000    0.045022
     0.045035    0.045185    0.045199    0.045555    0.045577    0.048866
     0.048892    0.054620    0.059953    0.060075    0.062479    0.062693
     0.067057    0.067069    0.067110    0.067783    0.069849    0.071036
     0.071725    0.073483    0.073976    0.075839    0.076154    0.076847
     0.077053    0.082416    0.082472    0.083429    0.084269    0.084444
     0.084473    0.085569    0.086224    0.086848    0.087057    0.087120
     0.088611    0.088695    0.089164    0.089269    0.089610    0.089842
     0.090020    0.093779    0.094051    0.096638    0.096702    0.111548
     0.111571    0.114643    0.114665    0.115887    0.115897    0.116288
     0.117053    0.117320    0.118077    0.118200    0.118423    0.123006
     0.130479    0.130684    0.131264    0.140449    0.140712    0.160000
     0.160000    0.160000    0.160000    0.160000    0.160000    0.171291
     0.172266    0.172586    0.172914    0.220768    0.221159    0.237948
     0.240892    0.248185    0.249215    0.249806    0.249854    0.250000
     0.250000    0.250000    0.250000    0.250000    0.250000    0.250000
     0.250000    0.258273    0.258704    0.267300    0.267513    0.278162
     0.279974    0.281375    0.284949    0.295230    0.296731    0.298748
     0.308053    0.310698    0.310860    0.313324    0.314803    0.318499
     0.321486    0.321622    0.322143    0.322174    0.322657    0.322767
     0.322960    0.323132    0.323410    0.323628    0.323761    0.323922
     0.323953    0.324357    0.324487    0.324627    0.324672    0.324873
     0.324916    0.324920    0.324969    0.325730    0.326795    0.326810
     0.367941    0.371524    0.383014    0.387610    0.401015    0.407710
     0.492179    0.492596    0.517926    0.528233    0.530788    0.537320
     0.935220    0.940503    0.941950    0.942745    1.022753    1.022753
     1.022753    1.022753    1.022753    1.022753    1.022753

 Minimum Search - Taking P-RFO Step
 Searching for Lamda that Maximizes Along the Constraint modes Only
 Value Taken    Lamda =   0.00764102
 Searching for Lamda that Minimizes Along All other modes
 Value Taken    Lamda =  -0.24326375
 Calculated Step too Large.  Step scaled by  0.437198
 Step Taken.  Stepsize is  0.300000

                             Maximum     Tolerance    Cnvgd?
         Gradient            0.135467       0.000300      NO
         Displacement        0.124858       0.001200      NO
         Energy change     *********       0.000001      NO


 New Cartesian Coordinates Obtained by Inverse Iteration

 Displacement from previous Coordinates is:  2.956826
 Adding empirical dispersion correction 
 ----------------------------------------------------------------
 Doing -D3(op) with
 s6 =   1.00000
 s8 =   0.78311
 a1 =   0.30000
 a2 =   4.25000
 n  =  10.00000
 -D3 energy without 3body term =     -0.0654987268 hartrees
 ----------------------------------------------------------------
             Standard Nuclear Orientation (Angstroms)
    I     Atom           X                Y                Z
 ----------------------------------------------------------------
    1      O      -5.8735807976    -0.2251166151     1.6903599252
    2      C      -5.4538219312     0.3581458524     0.6842031322
    3      C      -4.8611061366    -0.3197435329    -0.5500455625
    4      C      -3.3903440757     0.0209815236    -0.9070235057
    5      C      -2.6222017677     0.8578997468     0.1168649647
    6      O      -1.2670853809     0.7554293850    -0.1352110978
    7      C      -0.4598765417     1.5576824973     0.7532887878
    8      C       0.9633123787     1.7012884346     0.1726735293
    9      O       1.8685406816     0.7760696286     0.8222165429
   10      C       1.9554794706    -0.4763568240     0.2508437620
   11      C       3.3582073337    -1.1073028412     0.2989836030
   12      C       4.5061410450    -0.5121048472    -0.5937344414
   13      C       4.3004747290     0.8570791414    -1.2486774286
   14      O       3.2649744894     1.5188649318    -1.3104060458
   15      O      -5.6298600761     1.7156725526     0.5477617324
   16      O       5.4293401105     1.3259832202    -1.8757461021
   17      O       0.9790279439    -1.0650154865    -0.2252351842
   18      C       5.4374453169     2.5552242491    -2.5463385718
   19      C       4.0002808840    -0.9809165189     1.7112638772
   20      C       5.0196874701    -2.1175873088     1.9308507822
   21      C       6.1408623366    -1.6878201259     0.9900889882
   22      C       5.5961746912    -0.3246921164     0.5021640642
   23      O       4.8438188397     0.1707228395     1.6141298660
   24      H       3.2100179368    -2.1767944746     0.0373584749
   25      H       4.8153425700    -1.1989370162    -1.4091032543
   26      H       3.2477254677    -0.9739869620     2.5276878224
   27      H       5.3814937067    -2.0351935031     2.9770601187
   28      H       4.6275761424    -3.1399402372     1.7620245046
   29      H       7.0659569052    -1.5444331706     1.5846361291
   30      H       6.3386397546    -2.3771151502     0.1451510640
   31      H       6.4358550078     0.3171024488     0.1604904468
   32      O      -3.0860594230     1.4383246069     1.1039841379
   33      C      -6.2182715647     2.4827900610     1.5599123036
   34      C      -4.7779166139    -1.8641467472    -0.3825814476
   35      C      -4.7208820811    -2.5360928421    -1.7714789786
   36      C      -3.2956602133    -2.1801444556    -2.1996759057
   37      C      -2.8021630967    -1.4290041559    -0.9399619634
   38      O      -3.4697324080    -2.0831601334     0.1362068792
   39      H      -5.5513868128    -0.0803824405    -1.3872014200
   40      H      -3.2759353904     0.5139781182    -1.8952253190
   41      H      -5.6231221516     2.4223552722     2.4975356959
   42      H      -5.6130325226    -2.2909195288     0.2121396007
   43      H      -4.7835972990    -3.6337669649    -1.6198536975
   44      H      -5.5201301475    -2.2175573587    -2.4695864509
   45      H      -2.7186470470    -3.1192927490    -2.3249265091
   46      H      -3.2148621871    -1.5674752523    -3.1193994029
   47      H      -1.6936509128    -1.4660670887    -0.9016189341
   48      H      -7.2572243846     2.1411770246     1.7632962498
   49      H      -6.2508184326     3.5402628863     1.2276301689
   50      H       6.4494712506     2.7205681542    -2.9683924941
   51      H       5.2022980369     3.3882098778    -1.8478166492
   52      H       4.6995585993     2.5569631784    -3.3786749154
   53      H       0.7853552462     1.6327564354    -0.9277580127
   54      H       1.3315116960     2.7133245967     0.4509829718
   55      H      -0.4786968147     1.2256217393     1.8149646349
   56      H      -0.8808913228     2.5916654298     0.7198858083
 ----------------------------------------------------------------
 Molecular Point Group                 C1    NOp =  1
 Largest Abelian Subgroup              C1    NOp =  1
 Nuclear Repulsion Energy =  3100.8429700512 hartrees
 There are      113 alpha and      113 beta electrons
 Applying Cartesian multipole field
    Component          Value
    ---------          -----
     (2,0,0)        1.00000E-12
     (0,2,0)        2.00000E-11
     (0,0,2)       -3.00000E-11
 Nucleus-field energy     =     0.0000000127 hartrees
 Requested basis set is STO-3G
 There are 86 shells and 176 basis functions
 A cutoff of  1.0D-12 yielded   2052 shell pairs
 There are      9714 function pairs
 Smallest overlap matrix eigenvalue = 2.00E-01
 Guess MOs from SCF MO coefficient file
 Reading MOs from coefficient file
 Reading MOs from coefficient file
 A restricted hybrid HF-DFT SCF calculation will be
 performed using Pulay DIIS extrapolation
 Exchange:     0.2000 Hartree-Fock + 0.0800 Slater + 0.7200 B88
 Correlation:  0.1900 VWN1RPA + 0.8100 LYP
 Using SG-1 standard quadrature grid
 Dispersion:   Grimme D3
 SCF converges when DIIS error is below 1.0E-08
 Geometry optimization detected.  Setting ReadMinima to 0
 Setting SaveMinima to 0
 using 48 threads for integral computing
 -------------------------------------------------------
 OpenMP Integral computing Module                
 Release: version 1.0, May 2013, Q-Chem Inc. Pittsburgh 
 -------------------------------------------------------
 -------------------------------------------------------
 OpenMP BLAS3 based DFT computing Module                
 Release: version 1.0, May 2013, Q-Chem Inc. Pittsburgh 
 -------------------------------------------------------
 ---------------------------------------
  Cycle       Energy         DIIS Error
 ---------------------------------------
    1   -1510.0143376984      5.13E-03
    2   -1510.1899174223      9.99E-04
    3   -1510.1811408296      1.74E-03
    4   -1510.1942570032      2.67E-04
    5   -1510.1945897243      6.05E-05
    6   -1510.1946049233      2.27E-05
    7   -1510.1946063585      1.51E-05
    8   -1510.1946073582      2.40E-06
    9   -1510.1946073879      5.86E-07
   10   -1510.1946073885      5.42E-07
   11   -1510.1946073899      9.76E-08
   12   -1510.1946073899      3.02E-08
   13   -1510.1946073900      9.94E-09 Convergence criterion met
 ---------------------------------------
 SCF time:  CPU 93.16 s  wall 1.95 s
 SCF   energy in the final basis set = -1510.19460739
 Total energy in the final basis set = -1510.19460739
 
 --------------------------------------------------------------
 
                    Orbital Energies (a.u.)
 --------------------------------------------------------------
 
 Alpha MOs
 -- Occupied --
-18.936 -18.934 -18.927 -18.914 -18.900 -18.888 -18.867 -18.864
-18.863 -18.841 -10.113 -10.106 -10.100 -10.093 -10.083 -10.078
-10.068 -10.067 -10.066 -10.064 -10.055 -10.053 -10.046 -10.038
-10.032 -10.030 -10.018 -10.017 -10.008 -10.007  -1.042  -1.030
 -1.022  -1.016  -1.009  -1.000  -0.948  -0.942  -0.938  -0.925
 -0.776  -0.768  -0.740  -0.734  -0.726  -0.716  -0.701  -0.680
 -0.663  -0.620  -0.605  -0.580  -0.550  -0.541  -0.536  -0.528
 -0.526  -0.514  -0.499  -0.486  -0.477  -0.466  -0.457  -0.454
 -0.444  -0.433  -0.428  -0.422  -0.420  -0.409  -0.408  -0.406
 -0.397  -0.392  -0.389  -0.376  -0.370  -0.358  -0.352  -0.349
 -0.348  -0.345  -0.340  -0.338  -0.330  -0.326  -0.320  -0.315
 -0.308  -0.305  -0.303  -0.298  -0.289  -0.289  -0.280  -0.275
 -0.264  -0.243  -0.241  -0.237  -0.231  -0.228  -0.215  -0.179
 -0.174  -0.170  -0.158  -0.155  -0.147  -0.145  -0.143  -0.138
 -0.128
 -- Virtual --
  0.100   0.109   0.114   0.129   0.248   0.253   0.254   0.262
  0.277   0.302   0.312   0.326   0.336   0.341   0.347   0.359
  0.368   0.370   0.373   0.377   0.382   0.388   0.391   0.392
  0.396   0.399   0.403   0.409   0.410   0.412   0.418   0.421
  0.422   0.426   0.430   0.434   0.437   0.441   0.443   0.450
  0.462   0.465   0.466   0.470   0.479   0.483   0.484   0.485
  0.488   0.499   0.500   0.507   0.513   0.519   0.541   0.553
  0.563   0.564   0.575   0.667   0.677   0.680   0.687
 --------------------------------------------------------------
 
          Ground-State Mulliken Net Atomic Charges

     Atom                 Charge (a.u.)
  ----------------------------------------
      1 O                    -0.233439
      2 C                     0.234072
      3 C                    -0.081677
      4 C                    -0.080404
      5 C                     0.227059
      6 O                    -0.184758
      7 C                    -0.039437
      8 C                    -0.025995
      9 O                    -0.189248
     10 C                     0.231405
     11 C                    -0.081789
     12 C                    -0.078915
     13 C                     0.232830
     14 O                    -0.233227
     15 O                    -0.202638
     16 O                    -0.206875
     17 O                    -0.216511
     18 C                    -0.103662
     19 C                     0.035595
     20 C                    -0.142892
     21 C                    -0.144496
     22 C                     0.034469
     23 O                    -0.201431
     24 H                     0.086902
     25 H                     0.089252
     26 H                     0.086265
     27 H                     0.075870
     28 H                     0.073940
     29 H                     0.076042
     30 H                     0.072561
     31 H                     0.088105
     32 O                    -0.221860
     33 C                    -0.102148
     34 C                     0.036826
     35 C                    -0.143916
     36 C                    -0.144380
     37 C                     0.032671
     38 O                    -0.204776
     39 H                     0.084042
     40 H                     0.084854
     41 H                     0.090116
     42 H                     0.090049
     43 H                     0.074221
     44 H                     0.070417
     45 H                     0.074833
     46 H                     0.070224
     47 H                     0.099457
     48 H                     0.081508
     49 H                     0.089302
     50 H                     0.094421
     51 H                     0.088005
     52 H                     0.086735
     53 H                     0.104226
     54 H                     0.095056
     55 H                     0.092359
     56 H                     0.080785
  ----------------------------------------
  Sum of atomic charges =    -0.000000

 -----------------------------------------------------------------
                    Cartesian Multipole Moments
 -----------------------------------------------------------------
    Charge (ESU x 10^10)
                 0.0000
    Dipole Moment (Debye)
         X       3.2007      Y       0.9600      Z      -3.1706
       Tot       4.6064
    Quadrupole Moments (Debye-Ang)
        XX    -146.8057     XY      -6.2152     YY    -152.6577
        XZ       4.9985     YZ      -0.7355     ZZ    -158.0111
    Octopole Moments (Debye-Ang^2)
       XXX      55.6455    XXY      28.9986    XYY      10.8348
       YYY      41.9355    XXZ     -79.4517    XYZ     -45.1920
       YYZ      -2.7248    XZZ      16.5035    YZZ      14.5356
       ZZZ      -3.5829
    Hexadecapole Moments (Debye-Ang^3)
      XXXX  -16797.9385   XXXY    -188.3595   XXYY   -3086.3307
      XYYY     -42.1488   YYYY   -2347.2389   XXXZ      79.0016
      XXYZ     -13.0747   XYYZ     -62.8648   YYYZ      -5.1718
      XXZZ   -3183.4075   XYZZ     -21.2668   YYZZ    -669.0536
      XZZZ      21.8430   YZZZ     -50.4038   ZZZZ   -1681.0686
 -----------------------------------------------------------------
 Calculating analytic gradient of the SCF energy
 Gradient of SCF Energy
            1           2           3           4           5           6
    1   0.0078873   0.0108511   0.0177911  -0.0058703   0.0145209  -0.0283396
    2   0.0249569   0.0061422  -0.0188049  -0.0025783   0.0050051   0.0231822
    3  -0.0296005  -0.0330203   0.0283107   0.0293717  -0.0150232   0.0293971
            7           8           9          10          11          12
    1   0.0189340   0.0196156  -0.0363130   0.0007485   0.0017467  -0.0118255
    2  -0.0403532  -0.0023769  -0.0313526   0.0122521   0.0173612   0.0143096
    3  -0.0162478  -0.0043114  -0.0173463   0.0209063   0.0084587   0.0120511
           13          14          15          16          17          18
    1   0.0304806   0.0441593  -0.0296459  -0.0751201   0.0294739   0.0200681
    2  -0.0160935  -0.0187089  -0.0269857   0.0641548   0.0170749  -0.0400258
    3   0.0077361  -0.0021849   0.0866854  -0.0124035   0.0187919   0.0147834
           19          20          21          22          23          24
    1   0.0316543   0.0020302  -0.0281082  -0.0446585  -0.0021431  -0.0007024
    2   0.0267133   0.0280419   0.0150568  -0.0018542  -0.0492110  -0.0052480
    3  -0.0223941  -0.0252030   0.0079888   0.0268482  -0.0285596  -0.0000868
           25          26          27          28          29          30
    1   0.0004689  -0.0027772   0.0045927  -0.0003956   0.0008237   0.0002003
    2   0.0025062  -0.0132021   0.0062114  -0.0058294   0.0006050  -0.0016573
    3  -0.0063734   0.0011154   0.0044043   0.0000743   0.0102050  -0.0059698
           31          32          33          34          35          36
    1   0.0081133   0.0120589   0.0187636   0.0527477   0.0221340  -0.0138807
    2  -0.0088873  -0.0184261  -0.0052513   0.0071026   0.0200499   0.0082144
    3  -0.0052077  -0.0252255  -0.0424415  -0.0032467   0.0162131   0.0274713
           37          38          39          40          41          42
    1  -0.0473050  -0.0209060  -0.0062293   0.0044512   0.0036200  -0.0088283
    2  -0.0084203   0.0260774  -0.0018640   0.0023581  -0.0015370  -0.0034219
    3   0.0269166  -0.0492774   0.0000865  -0.0025131  -0.0035981  -0.0101203
           43          44          45          46          47          48
    1   0.0055841  -0.0039758  -0.0017466   0.0014976   0.0012060   0.0011646
    2  -0.0062368   0.0006764  -0.0090392   0.0041383  -0.0025434  -0.0020643
    3   0.0032705  -0.0039280   0.0032929  -0.0038538  -0.0131493  -0.0052953
           49          50          51          52          53          54
    1  -0.0016042  -0.0000308   0.0016836   0.0008438  -0.0186455  -0.0023033
    2   0.0019750   0.0033726  -0.0040433  -0.0055273   0.0053038   0.0026451
    3   0.0026923  -0.0017945   0.0037366   0.0007664  -0.0016367   0.0050755
           55          56
    1  -0.0013583   0.0027976
    2   0.0044615   0.0015952
    3   0.0021020  -0.0087393
 Max gradient component =       8.669E-02
 RMS gradient           =       2.020E-02
 Gradient time:  CPU 29.27 s  wall 0.62 s
 Geometry Optimization Parameters
   NAtoms,    NIC,     NZ,  NCons,   NDum,   NFix, NCnnct, MaxDiis
       56     458       0       9       0       0       0       0

 Cartesian Hessian Update
 Hessian Updated using BFGS Update


** CONSTRAINED OPTIMIZATION IN DELOCALIZED INTERNAL COORDINATES **
   Searching for a Minimum

   Optimization Cycle:   2

                       Coordinates (Angstroms)
     ATOM                X               Y               Z
      1  O        -5.8735807976   -0.2251166151    1.6903599252
      2  C        -5.4538219312    0.3581458524    0.6842031322
      3  C        -4.8611061366   -0.3197435329   -0.5500455625
      4  C        -3.3903440757    0.0209815236   -0.9070235057
      5  C        -2.6222017677    0.8578997468    0.1168649647
      6  O        -1.2670853809    0.7554293850   -0.1352110978
      7  C        -0.4598765417    1.5576824973    0.7532887878
      8  C         0.9633123787    1.7012884346    0.1726735293
      9  O         1.8685406816    0.7760696286    0.8222165429
     10  C         1.9554794706   -0.4763568240    0.2508437620
     11  C         3.3582073337   -1.1073028412    0.2989836030
     12  C         4.5061410450   -0.5121048472   -0.5937344414
     13  C         4.3004747290    0.8570791414   -1.2486774286
     14  O         3.2649744894    1.5188649318   -1.3104060458
     15  O        -5.6298600761    1.7156725526    0.5477617324
     16  O         5.4293401105    1.3259832202   -1.8757461021
     17  O         0.9790279439   -1.0650154865   -0.2252351842
     18  C         5.4374453169    2.5552242491   -2.5463385718
     19  C         4.0002808840   -0.9809165189    1.7112638772
     20  C         5.0196874701   -2.1175873088    1.9308507822
     21  C         6.1408623366   -1.6878201259    0.9900889882
     22  C         5.5961746912   -0.3246921164    0.5021640642
     23  O         4.8438188397    0.1707228395    1.6141298660
     24  H         3.2100179368   -2.1767944746    0.0373584749
     25  H         4.8153425700   -1.1989370162   -1.4091032543
     26  H         3.2477254677   -0.9739869620    2.5276878224
     27  H         5.3814937067   -2.0351935031    2.9770601187
     28  H         4.6275761424   -3.1399402372    1.7620245046
     29  H         7.0659569052   -1.5444331706    1.5846361291
     30  H         6.3386397546   -2.3771151502    0.1451510640
     31  H         6.4358550078    0.3171024488    0.1604904468
     32  O        -3.0860594230    1.4383246069    1.1039841379
     33  C        -6.2182715647    2.4827900610    1.5599123036
     34  C        -4.7779166139   -1.8641467472   -0.3825814476
     35  C        -4.7208820811   -2.5360928421   -1.7714789786
     36  C        -3.2956602133   -2.1801444556   -2.1996759057
     37  C        -2.8021630967   -1.4290041559   -0.9399619634
     38  O        -3.4697324080   -2.0831601334    0.1362068792
     39  H        -5.5513868128   -0.0803824405   -1.3872014200
     40  H        -3.2759353904    0.5139781182   -1.8952253190
     41  H        -5.6231221516    2.4223552722    2.4975356959
     42  H        -5.6130325226   -2.2909195288    0.2121396007
     43  H        -4.7835972990   -3.6337669649   -1.6198536975
     44  H        -5.5201301475   -2.2175573587   -2.4695864509
     45  H        -2.7186470470   -3.1192927490   -2.3249265091
     46  H        -3.2148621871   -1.5674752523   -3.1193994029
     47  H        -1.6936509128   -1.4660670887   -0.9016189341
     48  H        -7.2572243846    2.1411770246    1.7632962498
     49  H        -6.2508184326    3.5402628863    1.2276301689
     50  H         6.4494712506    2.7205681542   -2.9683924941
     51  H         5.2022980369    3.3882098778   -1.8478166492
     52  H         4.6995585993    2.5569631784   -3.3786749154
     53  H         0.7853552462    1.6327564354   -0.9277580127
     54  H         1.3315116960    2.7133245967    0.4509829718
     55  H        -0.4786968147    1.2256217393    1.8149646349
     56  H        -0.8808913228    2.5916654298    0.7198858083
   Point Group: c1    Number of degrees of freedom:   162


   Energy is  -1510.194607390

              Constraints and their Current Values
                                        Value     Constraint
   Dihedral:        1   2   3   4     -118.702     -118.702
   Dihedral:        3   4   5   6      162.915      162.961
   Dihedral:        4   5   6   7      177.721      177.735
   Dihedral:        5   6   7   8     -164.264     -164.295
   Dihedral:        6   7   8   9     -100.019      -99.942
   Dihedral:        7   8   9  10       88.539       88.579
   Dihedral:        8   9  10  11      144.280      144.505
   Dihedral:        9  10  11  12      -70.197      -70.340
   Dihedral:       11  12  13  14       -9.792       -9.792
 Hessian Updated using BFGS Update

   Using Lagrange Multiplier Algorithm


155 Hessian modes will be used to form the next step
  Hessian Eigenvalues:
    -0.977753   -0.977753   -0.977753   -0.977753   -0.977753   -0.977753
    -0.944096    0.044998    0.045000    0.045023    0.045044    0.045181
     0.045196    0.045553    0.045630    0.048884    0.048907    0.054568
     0.059970    0.060150    0.062681    0.063469    0.067057    0.067109
     0.067119    0.067786    0.069737    0.071036    0.071702    0.073467
     0.074037    0.075909    0.076146    0.076762    0.078090    0.082425
     0.082472    0.083422    0.084258    0.084444    0.084793    0.086217
     0.086406    0.086843    0.087034    0.087692    0.088179    0.089093
     0.089169    0.089559    0.089779    0.090018    0.091392    0.093914
     0.094226    0.096690    0.096798    0.111517    0.111591    0.114543
     0.114656    0.115180    0.115887    0.115898    0.116560    0.117268
     0.117412    0.118196    0.120286    0.122803    0.130241    0.130516
     0.131286    0.140423    0.150398    0.159664    0.160289    0.169126
     0.172151    0.172506    0.178451    0.219127    0.220961    0.225303
     0.237948    0.240980    0.248187    0.249231    0.249808    0.249902
     0.255598    0.258191    0.266953    0.267493    0.270614    0.276650
     0.280437    0.283508    0.288477    0.295961    0.297552    0.302681
     0.308748    0.310391    0.310801    0.314781    0.318498    0.321379
     0.321539    0.321928    0.322158    0.322551    0.322751    0.322959
     0.323046    0.323381    0.323598    0.323746    0.323898    0.323942
     0.324233    0.324434    0.324576    0.324655    0.324863    0.324904
     0.324918    0.324963    0.325728    0.326790    0.326807    0.344319
     0.368026    0.371536    0.384052    0.400210    0.406822    0.470778
     0.492368    0.511463    0.523437    0.529474    0.531583    0.740417
     0.899853    0.936850    0.941155    0.951579    1.022753    1.022753
     1.022753    1.022753    1.022753    1.022753    1.294482

 Minimum Search - Taking P-RFO Step
 Searching for Lamda that Maximizes Along the Constraint modes Only
 Value Taken    Lamda =   0.00479647
 Searching for Lamda that Minimizes Along All other modes
 Value Taken    Lamda =  -0.13903547
 Calculated Step too Large.  Step scaled by  0.449376
 Step Taken.  Stepsize is  0.300000

                             Maximum     Tolerance    Cnvgd?
         Gradient            0.081729       0.000300      NO
         Displacement        0.098839       0.001200      NO
         Energy change     -0.067981       0.000001      NO


 New Cartesian Coordinates Obtained by Inverse Iteration

 Displacement from previous Coordinates is:  1.322671
 Adding empirical dispersion correction 
 ----------------------------------------------------------------
 Doing -D3(op) with
 s6 =   1.00000
 s8 =   0.78311
 a1 =   0.30000
 a2 =   4.25000
 n  =  10.00000
 -D3 energy without 3body term =     -0.0654912309 hartrees
 ----------------------------------------------------------------
             Standard Nuclear Orientation (Angstroms)
    I     Atom           X                Y                Z
 ----------------------------------------------------------------
    1      O      -5.9455823558    -0.1485712590     1.6719636594
    2      C      -5.4952924688     0.4123856180     0.6474048529
    3      C      -4.8772742654    -0.3030430963    -0.5776600713
    4      C      -3.3818877094     0.0258031448    -0.9131596447
    5      C      -2.6271377741     0.8826262516     0.1356876251
    6      O      -1.2491261032     0.7583406153    -0.0995707328
    7      C      -0.4410890758     1.5716547471     0.8045757202
    8      C       1.0067535588     1.6828932513     0.2212756663
    9      O       1.9221867438     0.7550390156     0.8758443010
   10      C       1.9762657331    -0.5162127846     0.2794286132
   11      C       3.3942087058    -1.1537716001     0.3192852567
   12      C       4.5205084588    -0.5302780353    -0.5940160845
   13      C       4.2334343142     0.8546358038    -1.2263351452
   14      O       3.1572979483     1.4848210737    -1.2490728312
   15      O      -5.6417538073     1.7830322405     0.4243800401
   16      O       5.3729118392     1.3362049851    -1.8733590361
   17      O       0.9786567505    -1.0978136318    -0.2011739059
   18      C       5.2650862029     2.6036923217    -2.5254513604
   19      C       4.0657288764    -1.0333202726     1.7409269518
   20      C       5.1131496183    -2.1794566738     1.9175650571
   21      C       6.2244048464    -1.7154405247     0.9416950149
   22      C       5.6507712982    -0.3307749966     0.4865782317
   23      O       4.9084110718     0.1510834403     1.6429340722
   24      H       3.2527518146    -2.2182349507     0.0502318120
   25      H       4.8250241698    -1.2021201998    -1.4201862759
   26      H       3.3302878960    -1.0321324687     2.5701736249
   27      H       5.4958952701    -2.1190047429     2.9528446928
   28      H       4.7237304439    -3.1966389551     1.7389396746
   29      H       7.1638027283    -1.5744117568     1.5047268666
   30      H       6.4036662468    -2.3869133446     0.0839525880
   31      H       6.4631283132     0.3370024866     0.1351731605
   32      O      -3.1092004989     1.4875119006     1.1160661221
   33      C      -6.2612212628     2.5472359242     1.4600618519
   34      C      -4.8078807851    -1.8611073774    -0.3756541686
   35      C      -4.7251922714    -2.5549891022    -1.7748744144
   36      C      -3.2678189065    -2.2066347995    -2.1862877217
   37      C      -2.7841837787    -1.4380599830    -0.9092716264
   38      O      -3.4869934267    -2.0851068230     0.1843073196
   39      H      -5.5449518573    -0.0723980677    -1.4319915163
   40      H      -3.2472514732     0.5005914296    -1.9045346616
   41      H      -5.6824534188     2.4935628744     2.4092067896
   42      H      -5.6508875768    -2.2678801764     0.2183632239
   43      H      -4.8033421476    -3.6460968734    -1.6181021556
   44      H      -5.5059390856    -2.2364608851    -2.4871257145
   45      H      -2.6908017936    -3.1419362641    -2.2966178758
   46      H      -3.1703631405    -1.6045161382    -3.1062611464
   47      H      -1.6779719426    -1.4710939195    -0.8354504869
   48      H      -7.3013966356     2.2035899661     1.6597362690
   49      H      -6.2950175365     3.6029342611     1.1250888071
   50      H       6.2488779262     2.8323608859    -2.9810904529
   51      H       5.0082521673     3.4143201206    -1.8072575639
   52      H       4.4952338393     2.5874706264    -3.3293713350
   53      H       0.8678173913     1.5960305241    -0.8801332866
   54      H       1.3956449132     2.6891186648     0.4831402358
   55      H      -0.4709868532     1.2485760575     1.8682142449
   56      H      -0.8568786283     2.6069788566     0.7652041428
 ----------------------------------------------------------------
 Molecular Point Group                 C1    NOp =  1
 Largest Abelian Subgroup              C1    NOp =  1
 Nuclear Repulsion Energy =  3081.1652691653 hartrees
 There are      113 alpha and      113 beta electrons
 Applying Cartesian multipole field
    Component          Value
    ---------          -----
     (2,0,0)        1.00000E-12
     (0,2,0)        2.00000E-11
     (0,0,2)       -3.00000E-11
 Nucleus-field energy     =     0.0000000144 hartrees
 Requested basis set is STO-3G
 There are 86 shells and 176 basis functions
 A cutoff of  1.0D-12 yielded   2042 shell pairs
 There are      9698 function pairs
 Smallest overlap matrix eigenvalue = 2.07E-01
 Guess MOs from SCF MO coefficient file
 Reading MOs from coefficient file
 Reading MOs from coefficient file
 A restricted hybrid HF-DFT SCF calculation will be
 performed using Pulay DIIS extrapolation
 Exchange:     0.2000 Hartree-Fock + 0.0800 Slater + 0.7200 B88
 Correlation:  0.1900 VWN1RPA + 0.8100 LYP
 Using SG-1 standard quadrature grid
 Dispersion:   Grimme D3
 SCF converges when DIIS error is below 1.0E-08
 Geometry optimization detected.  Setting ReadMinima to 0
 Setting SaveMinima to 0
 using 48 threads for integral computing
 -------------------------------------------------------
 OpenMP Integral computing Module                
 Release: version 1.0, May 2013, Q-Chem Inc. Pittsburgh 
 -------------------------------------------------------
 -------------------------------------------------------
 OpenMP BLAS3 based DFT computing Module                
 Release: version 1.0, May 2013, Q-Chem Inc. Pittsburgh 
 -------------------------------------------------------
 ---------------------------------------
  Cycle       Energy         DIIS Error
 ---------------------------------------
    1   -1510.0647916660      3.37E-03
    2   -1510.2359921908      9.24E-04
    3   -1510.2306532533      1.46E-03
    4   -1510.2395952783      2.92E-04
    5   -1510.2399926168      6.36E-05
    6   -1510.2400107544      1.86E-05
    7   -1510.2400115681      1.36E-05
    8   -1510.2400123544      2.64E-06
    9   -1510.2400123889      6.11E-07
   10   -1510.2400123896      4.75E-07
   11   -1510.2400123906      9.96E-08
   12   -1510.2400123906      1.87E-08
   13   -1510.2400123906      9.13E-09 Convergence criterion met
 ---------------------------------------
 SCF time:  CPU 90.72 s  wall 1.90 s
 SCF   energy in the final basis set = -1510.24001239
 Total energy in the final basis set = -1510.24001239
 
 --------------------------------------------------------------
 
                    Orbital Energies (a.u.)
 --------------------------------------------------------------
 
 Alpha MOs
 -- Occupied --
-18.941 -18.930 -18.923 -18.919 -18.898 -18.885 -18.870 -18.868
-18.864 -18.845 -10.109 -10.100 -10.095 -10.088 -10.079 -10.073
-10.065 -10.065 -10.064 -10.059 -10.052 -10.050 -10.045 -10.037
-10.031 -10.029 -10.019 -10.017 -10.008 -10.007  -1.031  -1.017
 -1.009  -1.005  -0.991  -0.981  -0.945  -0.935  -0.930  -0.920
 -0.770  -0.760  -0.732  -0.725  -0.718  -0.709  -0.694  -0.675
 -0.658  -0.615  -0.601  -0.577  -0.548  -0.538  -0.536  -0.527
 -0.521  -0.510  -0.493  -0.480  -0.470  -0.458  -0.451  -0.449
 -0.440  -0.428  -0.423  -0.417  -0.415  -0.405  -0.403  -0.401
 -0.395  -0.386  -0.383  -0.371  -0.365  -0.353  -0.349  -0.344
 -0.343  -0.341  -0.337  -0.334  -0.327  -0.323  -0.320  -0.313
 -0.307  -0.303  -0.301  -0.296  -0.288  -0.284  -0.278  -0.272
 -0.261  -0.248  -0.243  -0.239  -0.232  -0.228  -0.223  -0.183
 -0.172  -0.170  -0.160  -0.153  -0.148  -0.144  -0.142  -0.138
 -0.130
 -- Virtual --
  0.096   0.100   0.109   0.123   0.245   0.248   0.250   0.256
  0.271   0.293   0.300   0.312   0.325   0.332   0.340   0.353
  0.354   0.357   0.360   0.363   0.373   0.375   0.379   0.382
  0.385   0.394   0.396   0.403   0.408   0.409   0.413   0.414
  0.419   0.421   0.423   0.424   0.430   0.434   0.435   0.448
  0.452   0.452   0.455   0.455   0.463   0.465   0.476   0.479
  0.482   0.485   0.491   0.495   0.500   0.512   0.530   0.542
  0.553   0.554   0.566   0.647   0.653   0.660   0.665
 --------------------------------------------------------------
 
          Ground-State Mulliken Net Atomic Charges

     Atom                 Charge (a.u.)
  ----------------------------------------
      1 O                    -0.225065
      2 C                     0.222573
      3 C                    -0.080865
      4 C                    -0.078589
      5 C                     0.217388
      6 O                    -0.179021
      7 C                    -0.043822
      8 C                    -0.029494
      9 O                    -0.183181
     10 C                     0.220726
     11 C                    -0.081816
     12 C                    -0.078101
     13 C                     0.221643
     14 O                    -0.223853
     15 O                    -0.188569
     16 O                    -0.191296
     17 O                    -0.209941
     18 C                    -0.112903
     19 C                     0.031254
     20 C                    -0.143753
     21 C                    -0.145204
     22 C                     0.029921
     23 O                    -0.193080
     24 H                     0.085879
     25 H                     0.088699
     26 H                     0.086181
     27 H                     0.076499
     28 H                     0.074706
     29 H                     0.076692
     30 H                     0.073311
     31 H                     0.087800
     32 O                    -0.216237
     33 C                    -0.110926
     34 C                     0.031280
     35 C                    -0.144824
     36 C                    -0.145262
     37 C                     0.027884
     38 O                    -0.196418
     39 H                     0.083226
     40 H                     0.084716
     41 H                     0.090747
     42 H                     0.089167
     43 H                     0.074541
     44 H                     0.070935
     45 H                     0.075287
     46 H                     0.070852
     47 H                     0.099727
     48 H                     0.082265
     49 H                     0.088429
     50 H                     0.093621
     51 H                     0.088536
     52 H                     0.087251
     53 H                     0.104866
     54 H                     0.092932
     55 H                     0.091744
     56 H                     0.080943
  ----------------------------------------
  Sum of atomic charges =    -0.000000

 -----------------------------------------------------------------
                    Cartesian Multipole Moments
 -----------------------------------------------------------------
    Charge (ESU x 10^10)
                -0.0000
    Dipole Moment (Debye)
         X       3.2474      Y       0.9499      Z      -3.2248
       Tot       4.6741
    Quadrupole Moments (Debye-Ang)
        XX    -147.1400     XY      -6.0439     YY    -152.0893
        XZ       4.6742     YZ      -0.9914     ZZ    -157.8616
    Octopole Moments (Debye-Ang^2)
       XXX      50.5391    XXY      25.3416    XYY      12.8009
       YYY      43.1021    XXZ     -78.0196    XYZ     -45.8059
       YYZ      -3.6233    XZZ      15.1513    YZZ      13.9446
       ZZZ      -5.4782
    Hexadecapole Moments (Debye-Ang^3)
      XXXX  -16919.8824   XXXY    -158.8407   XXYY   -3097.8412
      XYYY      21.6239   YYYY   -2408.1576   XXXZ      50.7355
      XXYZ     -11.4581   XYYZ     -79.7990   YYYZ      -6.1210
      XXZZ   -3208.5876   XYZZ       2.3511   YYZZ    -671.8221
      XZZZ     -20.9823   YZZZ     -49.3933   ZZZZ   -1655.2107
 -----------------------------------------------------------------
 Calculating analytic gradient of the SCF energy
 Gradient of SCF Energy
            1           2           3           4           5           6
    1  -0.0015006   0.0119144   0.0091081  -0.0057903   0.0115128  -0.0155952
    2   0.0044402   0.0118597  -0.0099680   0.0023294   0.0007966   0.0151126
    3  -0.0045876  -0.0316635   0.0160219   0.0134397  -0.0195688   0.0165681
            7           8           9          10          11          12
    1   0.0118745   0.0226970  -0.0247323   0.0111625   0.0013039  -0.0075759
    2  -0.0320582   0.0002417  -0.0126732   0.0109884   0.0089762   0.0036666
    3  -0.0040929  -0.0111197  -0.0073424   0.0181504   0.0012533   0.0013052
           13          14          15          16          17          18
    1   0.0316443   0.0051893  -0.0174870  -0.0449288   0.0057594   0.0153413
    2  -0.0136293  -0.0026411  -0.0147449   0.0357281   0.0008875  -0.0268455
    3   0.0060354   0.0026342   0.0525455  -0.0063266   0.0063041   0.0091128
           19          20          21          22          23          24
    1   0.0150429  -0.0012311  -0.0095896  -0.0246261  -0.0005637  -0.0002057
    2   0.0196440   0.0101510   0.0054273   0.0035717  -0.0232044  -0.0020304
    3  -0.0083501  -0.0121278   0.0019211   0.0167672  -0.0139059  -0.0000941
           25          26          27          28          29          30
    1   0.0000587  -0.0018169   0.0023797   0.0006901  -0.0009591   0.0005425
    2   0.0025389  -0.0114044   0.0046611  -0.0028930   0.0000671   0.0003743
    3  -0.0041176  -0.0001376   0.0014602   0.0017370   0.0063112  -0.0029853
           31          32          33          34          35          36
    1   0.0058620   0.0020771   0.0130638   0.0289115   0.0061028  -0.0034578
    2  -0.0078808  -0.0057239  -0.0038981   0.0021723   0.0100843   0.0054312
    3  -0.0048423  -0.0044837  -0.0289880   0.0045981   0.0057556   0.0088934
           37          38          39          40          41          42
    1  -0.0243153  -0.0093831  -0.0048107   0.0036362   0.0020927  -0.0070708
    2  -0.0038362   0.0126411  -0.0017205   0.0008286  -0.0001198  -0.0020523
    3   0.0199214  -0.0242496   0.0011650  -0.0009997  -0.0002521  -0.0094016
           43          44          45          46          47          48
    1   0.0041099  -0.0019929  -0.0022670   0.0017810   0.0010143  -0.0009440
    2  -0.0024267  -0.0012919  -0.0046952   0.0013579  -0.0018657  -0.0006992
    3   0.0026062  -0.0016741   0.0027535  -0.0015590  -0.0112841  -0.0019253
           49          50          51          52          53          54
    1  -0.0013634  -0.0000687   0.0009076  -0.0000524  -0.0123493  -0.0009474
    2   0.0017944   0.0028001  -0.0003564  -0.0020431   0.0045039   0.0005923
    3   0.0021598  -0.0014555   0.0020843  -0.0009920  -0.0020333   0.0036984
           55          56
    1  -0.0014202   0.0012649
    2   0.0057729   0.0012613
    3   0.0020687  -0.0067116
 Max gradient component =       5.255E-02
 RMS gradient           =       1.182E-02
 Gradient time:  CPU 33.02 s  wall 0.70 s
 Geometry Optimization Parameters
   NAtoms,    NIC,     NZ,  NCons,   NDum,   NFix, NCnnct, MaxDiis
       56     458       0       9       0       0       0       0

 Cartesian Hessian Update
 Hessian Updated using BFGS Update


** CONSTRAINED OPTIMIZATION IN DELOCALIZED INTERNAL COORDINATES **
   Searching for a Minimum

   Optimization Cycle:   3

                       Coordinates (Angstroms)
     ATOM                X               Y               Z
      1  O        -5.9455823558   -0.1485712590    1.6719636594
      2  C        -5.4952924688    0.4123856180    0.6474048529
      3  C        -4.8772742654   -0.3030430963   -0.5776600713
      4  C        -3.3818877094    0.0258031448   -0.9131596447
      5  C        -2.6271377741    0.8826262516    0.1356876251
      6  O        -1.2491261032    0.7583406153   -0.0995707328
      7  C        -0.4410890758    1.5716547471    0.8045757202
      8  C         1.0067535588    1.6828932513    0.2212756663
      9  O         1.9221867438    0.7550390156    0.8758443010
     10  C         1.9762657331   -0.5162127846    0.2794286132
     11  C         3.3942087058   -1.1537716001    0.3192852567
     12  C         4.5205084588   -0.5302780353   -0.5940160845
     13  C         4.2334343142    0.8546358038   -1.2263351452
     14  O         3.1572979483    1.4848210737   -1.2490728312
     15  O        -5.6417538073    1.7830322405    0.4243800401
     16  O         5.3729118392    1.3362049851   -1.8733590361
     17  O         0.9786567505   -1.0978136318   -0.2011739059
     18  C         5.2650862029    2.6036923217   -2.5254513604
     19  C         4.0657288764   -1.0333202726    1.7409269518
     20  C         5.1131496183   -2.1794566738    1.9175650571
     21  C         6.2244048464   -1.7154405247    0.9416950149
     22  C         5.6507712982   -0.3307749966    0.4865782317
     23  O         4.9084110718    0.1510834403    1.6429340722
     24  H         3.2527518146   -2.2182349507    0.0502318120
     25  H         4.8250241698   -1.2021201998   -1.4201862759
     26  H         3.3302878960   -1.0321324687    2.5701736249
     27  H         5.4958952701   -2.1190047429    2.9528446928
     28  H         4.7237304439   -3.1966389551    1.7389396746
     29  H         7.1638027283   -1.5744117568    1.5047268666
     30  H         6.4036662468   -2.3869133446    0.0839525880
     31  H         6.4631283132    0.3370024866    0.1351731605
     32  O        -3.1092004989    1.4875119006    1.1160661221
     33  C        -6.2612212628    2.5472359242    1.4600618519
     34  C        -4.8078807851   -1.8611073774   -0.3756541686
     35  C        -4.7251922714   -2.5549891022   -1.7748744144
     36  C        -3.2678189065   -2.2066347995   -2.1862877217
     37  C        -2.7841837787   -1.4380599830   -0.9092716264
     38  O        -3.4869934267   -2.0851068230    0.1843073196
     39  H        -5.5449518573   -0.0723980677   -1.4319915163
     40  H        -3.2472514732    0.5005914296   -1.9045346616
     41  H        -5.6824534188    2.4935628744    2.4092067896
     42  H        -5.6508875768   -2.2678801764    0.2183632239
     43  H        -4.8033421476   -3.6460968734   -1.6181021556
     44  H        -5.5059390856   -2.2364608851   -2.4871257145
     45  H        -2.6908017936   -3.1419362641   -2.2966178758
     46  H        -3.1703631405   -1.6045161382   -3.1062611464
     47  H        -1.6779719426   -1.4710939195   -0.8354504869
     48  H        -7.3013966356    2.2035899661    1.6597362690
     49  H        -6.2950175365    3.6029342611    1.1250888071
     50  H         6.2488779262    2.8323608859   -2.9810904529
     51  H         5.0082521673    3.4143201206   -1.8072575639
     52  H         4.4952338393    2.5874706264   -3.3293713350
     53  H         0.8678173913    1.5960305241   -0.8801332866
     54  H         1.3956449132    2.6891186648    0.4831402358
     55  H        -0.4709868532    1.2485760575    1.8682142449
     56  H        -0.8568786283    2.6069788566    0.7652041428
   Point Group: c1    Number of degrees of freedom:   162


   Energy is  -1510.240012391

              Constraints and their Current Values
                                        Value     Constraint
   Dihedral:        1   2   3   4     -118.702     -118.702
   Dihedral:        3   4   5   6      162.938      162.961
   Dihedral:        4   5   6   7      177.728      177.735
   Dihedral:        5   6   7   8     -164.279     -164.295
   Dihedral:        6   7   8   9      -99.990      -99.942
   Dihedral:        7   8   9  10       88.571       88.579
   Dihedral:        8   9  10  11      144.554      144.505
   Dihedral:        9  10  11  12      -70.390      -70.340
   Dihedral:       11  12  13  14       -9.792       -9.792
 Hessian Updated using BFGS Update

   Using Lagrange Multiplier Algorithm


158 Hessian modes will be used to form the next step
  Hessian Eigenvalues:
    -0.977753   -0.977753   -0.977753   -0.977753   -0.977753   -0.977195
    -0.949187    0.044992    0.045000    0.045000    0.045014    0.045037
     0.045185    0.045201    0.045552    0.045614    0.048884    0.048900
     0.054535    0.059920    0.060095    0.062704    0.063564    0.067057
     0.067103    0.067111    0.067790    0.069792    0.071036    0.071648
     0.073483    0.073994    0.075914    0.076151    0.076756    0.078544
     0.082430    0.082472    0.083468    0.084196    0.084439    0.084797
     0.086209    0.086392    0.086845    0.087074    0.087678    0.088495
     0.089148    0.089310    0.089635    0.089781    0.090026    0.093260
     0.094060    0.094287    0.096702    0.096728    0.111568    0.111597
     0.114649    0.114676    0.115887    0.115897    0.116201    0.117185
     0.117296    0.118183    0.118521    0.120988    0.123159    0.130473
     0.130640    0.131288    0.140439    0.157640    0.159622    0.160000
     0.161510    0.172096    0.172331    0.172501    0.212012    0.219741
     0.221864    0.231173    0.237967    0.240976    0.248191    0.249338
     0.249813    0.249937    0.253762    0.256692    0.259719    0.267167
     0.267533    0.276624    0.280271    0.283121    0.287573    0.295821
     0.297377    0.302423    0.308604    0.309842    0.310684    0.314717
     0.317971    0.318657    0.321507    0.321725    0.322157    0.322404
     0.322748    0.322881    0.322960    0.323334    0.323494    0.323654
     0.323782    0.323928    0.323972    0.324382    0.324494    0.324613
     0.324659    0.324887    0.324918    0.324954    0.325727    0.326749
     0.326803    0.330763    0.367900    0.371536    0.379376    0.395380
     0.402413    0.407680    0.466157    0.492368    0.516276    0.522898
     0.529344    0.532147    0.738559    0.936078    0.940793    0.948330
     0.986788    1.022753    1.022753    1.022753    1.022753    1.022753
     1.027918    1.269996

 Minimum Search - Taking P-RFO Step
 Searching for Lamda that Maximizes Along the Constraint modes Only
 Value Taken    Lamda =   0.00105150
 Searching for Lamda that Minimizes Along All other modes
 Value Taken    Lamda =  -0.04067676
 Calculated Step too Large.  Step scaled by  0.705416
 Step Taken.  Stepsize is  0.300000

                             Maximum     Tolerance    Cnvgd?
         Gradient            0.041058       0.000300      NO
         Displacement        0.070940       0.001200      NO
         Energy change     -0.045405       0.000001      NO


 New Cartesian Coordinates Obtained by Inverse Iteration

 Displacement from previous Coordinates is:  0.730033
 Adding empirical dispersion correction 
 ----------------------------------------------------------------
 Doing -D3(op) with
 s6 =   1.00000
 s8 =   0.78311
 a1 =   0.30000
 a2 =   4.25000
 n  =  10.00000
 -D3 energy without 3body term =     -0.0656319692 hartrees
 ----------------------------------------------------------------
             Standard Nuclear Orientation (Angstroms)
    I     Atom           X                Y                Z
 ----------------------------------------------------------------
    1      O      -5.9415456857    -0.0657062911     1.6702903708
    2      C      -5.4833578511     0.4499739793     0.6252472185
    3      C      -4.8659419476    -0.3054312576    -0.5935987335
    4      C      -3.3630312092     0.0181021880    -0.9234186442
    5      C      -2.6266513835     0.8866851962     0.1467582537
    6      O      -1.2356155018     0.7544029787    -0.0812091448
    7      C      -0.4530471339     1.5830333626     0.8488685829
    8      C       1.0055220002     1.6892965740     0.2706415142
    9      O       1.9347857071     0.7648088248     0.9298877314
   10      C       1.9593321684    -0.5067867210     0.2926528392
   11      C       3.3850047341    -1.1516157784     0.3055209474
   12      C       4.5180415962    -0.5208614182    -0.5984012391
   13      C       4.2148626699     0.8691140189    -1.2427530908
   14      O       3.1390664031     1.5018232785    -1.2896400127
   15      O      -5.6146820463     1.8235457717     0.3169725795
   16      O       5.3936491994     1.3323834961    -1.8723626205
   17      O       0.9474729348    -1.0556034201    -0.2018874876
   18      C       5.1961698086     2.6233378564    -2.5145530090
   19      C       4.0575352512    -1.0501280900     1.7389089147
   20      C       5.0999568230    -2.2157770896     1.8927319547
   21      C       6.2201862121    -1.7400365562     0.9133308396
   22      C       5.6600152105    -0.3314372101     0.4839567815
   23      O       4.9145166718     0.1449193601     1.6591481198
   24      H       3.2400494640    -2.2109556847     0.0244252698
   25      H       4.8264861757    -1.1910404553    -1.4226282842
   26      H       3.3229707465    -1.0302346430     2.5674727446
   27      H       5.4853540753    -2.1917671113     2.9264104893
   28      H       4.6928576124    -3.2194456717     1.6888108589
   29      H       7.1692737680    -1.6207513544     1.4613790107
   30      H       6.3817274889    -2.3992406627     0.0447587310
   31      H       6.4608441884     0.3550651175     0.1454392980
   32      O      -3.1175794075     1.5033617088     1.1181312399
   33      C      -6.2385655528     2.5622046300     1.4028508189
   34      C      -4.7998882001    -1.8668373353    -0.3577447989
   35      C      -4.7071882540    -2.5794254511    -1.7574326046
[...]
     15  O        -5.5053149843    1.9677115777    0.1119906658
     16  O         5.0733861587    1.3739930948   -1.8613705001
     17  O         0.9861070706   -1.1555523107   -0.2507819467
     18  C         4.5918812928    2.4778889464   -2.7247019786
     19  C         4.0708728917   -1.3079645067    1.7903164470
     20  C         5.3645886940   -2.2168102138    1.8168727751
     21  C         6.4052692505   -1.2961582971    1.0772669841
     22  C         5.4935058258   -0.0644443329    0.6980531742
     23  O         4.6071904114    0.0714502249    1.8728479839
     24  H         3.3334816208   -2.3795226986   -0.0512014755
     25  H         5.0659364176   -1.2186943301   -1.1493255768
     26  H         3.3522526944   -1.4920326832    2.6120338244
     27  H         5.6700102996   -2.4216917484    2.8550899224
     28  H         5.2059337714   -3.1772385754    1.3004592721
     29  H         7.2150302855   -0.9783104599    1.7535213248
     30  H         6.8512557280   -1.7766311632    0.1917663155
     31  H         6.0277452473    0.8828676519    0.4906050011
     32  O        -3.0913312004    1.3509274614    1.2158586522
     33  C        -6.0279396870    2.7970626414    1.2186126052
     34  C        -4.7511580955   -1.7895398114   -0.3957260152
     35  C        -4.7501773178   -2.4985140573   -1.8041385667
     36  C        -3.2986326174   -2.1498989324   -2.3070926561
     37  C        -2.6977675275   -1.4127149863   -1.0450416057
     38  O        -3.3810190623   -2.0514487372    0.1060054660
     39  H        -5.4027050649    0.0125788327   -1.5365464738
     40  H        -3.1226854124    0.6433121080   -1.8996376052
     41  H        -5.3023776836    2.8472010930    2.0564091612
     42  H        -5.5061413450   -2.1477052823    0.3311892828
     43  H        -4.8833937113   -3.5859087108   -1.6862219373
     44  H        -5.5386262082   -2.1142831119   -2.4707712051
     45  H        -2.7179315016   -3.0571101567   -2.5374653185
     46  H        -3.3037645351   -1.5006120800   -3.1975176629
     47  H        -1.5962318863   -1.4710689261   -0.9308093520
     48  H        -6.9899136966    2.4050144178    1.6079652349
     49  H        -6.1807879053    3.8093559819    0.8011643336
     50  H         5.4970143459    3.0081540467   -3.0733141533
     51  H         3.9425263954    3.1799411310   -2.1629965750
     52  H         4.0250434154    2.0950763978   -3.5978655770
     53  H         1.1035143527    1.4652216634   -0.5312714369
     54  H         1.5034240340    2.4782208132    0.9161481629
     55  H        -0.4107114682    0.7980849832    2.0550513506
     56  H        -0.8378662377    2.3734218699    1.2947112856
   Point Group: c1    Number of degrees of freedom:   162


   Energy is  -1510.276748082

              Constraints and their Current Values
                                        Value     Constraint
   Dihedral:        1   2   3   4     -118.702     -118.702
   Dihedral:        3   4   5   6      162.961      162.961
   Dihedral:        4   5   6   7      177.735      177.735
   Dihedral:        5   6   7   8     -164.295     -164.295
   Dihedral:        6   7   8   9      -99.942      -99.942
   Dihedral:        7   8   9  10       88.579       88.579
   Dihedral:        8   9  10  11      144.505      144.505
   Dihedral:        9  10  11  12      -70.340      -70.340
   Dihedral:       11  12  13  14       -9.792       -9.792
 Hessian Updated using BFGS Update

153 Hessian modes will be used to form the next step
  Hessian Eigenvalues:
     0.003853    0.010030    0.020398    0.024210    0.044719    0.045002
     0.045013    0.045053    0.045185    0.045572    0.046082    0.047049
     0.051329    0.053880    0.060089    0.061424    0.062966    0.065391
     0.066974    0.067075    0.067328    0.068098    0.071492    0.071998
     0.073104    0.074181    0.075609    0.076308    0.078329    0.078588
     0.082331    0.082584    0.083809    0.084031    0.084509    0.084713
     0.085876    0.086411    0.087111    0.087514    0.088001    0.089103
     0.089249    0.089471    0.089837    0.090201    0.090955    0.093307
     0.093834    0.094159    0.096683    0.096770    0.111561    0.111653
     0.114662    0.114875    0.115888    0.115900    0.116458    0.117502
     0.119011    0.120666    0.122154    0.122758    0.124122    0.130491
     0.133390    0.134326    0.157453    0.158779    0.160000    0.160006
     0.160049    0.160343    0.161681    0.162200    0.172332    0.173158
     0.199378    0.216335    0.222017    0.223546    0.237034    0.239663
     0.247245    0.248817    0.249632    0.250199    0.250282    0.251921
     0.252174    0.254544    0.256476    0.267094    0.267303    0.270482
     0.277346    0.277713    0.280161    0.285767    0.295516    0.296747
     0.301493    0.305671    0.308357    0.309175    0.311188    0.316866
     0.318630    0.319449    0.321619    0.321721    0.322174    0.322418
     0.322783    0.322903    0.323113    0.323362    0.323563    0.323781
     0.323916    0.324177    0.324338    0.324535    0.324555    0.324672
     0.324887    0.324962    0.325002    0.325699    0.326309    0.326814
     0.328161    0.336892    0.357044    0.365505    0.369246    0.374455
     0.391834    0.409427    0.416623    0.443815    0.478007    0.493425
     0.517130    0.527337    0.533481    0.549571    0.736605    0.936283
     0.941519    0.967346    1.002351

 Minimum Search - Taking Simple RFO Step
 Searching for Lamda that Minimizes Along All modes
 Value Taken    Lamda =   0.00000000
 Step Taken.  Stepsize is  0.003689

                             Maximum     Tolerance    Cnvgd?
         Gradient           0.000060      0.000300     YES
         Displacement       0.001033      0.001200     YES
         Energy change     -0.000001      0.000001     YES

 Final energy is   -1510.27674808195     


 ******************************
 **  OPTIMIZATION CONVERGED  **
 ******************************

                       Coordinates (Angstroms)
     ATOM                X               Y               Z
      1  O        -5.8489088429    0.1596926956    1.6181543331
      2  C        -5.3778489252    0.6037426341    0.5497471154
      3  C        -4.7861243099   -0.2240544914   -0.6502518399
      4  C        -3.2666480567    0.0688995413   -0.9667005238
      5  C        -2.5540448078    0.7967120689    0.2295082216
      6  O        -1.1502717967    0.6666679290    0.0440810360
      7  C        -0.3914009463    1.3735822258    1.1032360996
      8  C         1.0855784453    1.5074286894    0.5783772532
      9  O         1.9903800098    0.4876164093    1.1531107591
     10  C         1.9893129636   -0.7089940932    0.3465976118
     11  C         3.4277730824   -1.3497828354    0.3360254350
     12  C         4.5203569168   -0.5361250648   -0.4709054819
     13  C         3.9641805954    0.6249411230   -1.3595656688
     14  O         2.7721851239    0.8811217281   -1.6405886834
     15  O        -5.5053149843    1.9677115777    0.1119906658
     16  O         5.0733861587    1.3739930948   -1.8613705001
     17  O         0.9861070706   -1.1555523107   -0.2507819467
     18  C         4.5918812928    2.4778889464   -2.7247019786
     19  C         4.0708728917   -1.3079645067    1.7903164470
     20  C         5.3645886940   -2.2168102138    1.8168727751
     21  C         6.4052692505   -1.2961582971    1.0772669841
     22  C         5.4935058258   -0.0644443329    0.6980531742
     23  O         4.6071904114    0.0714502249    1.8728479839
     24  H         3.3334816208   -2.3795226986   -0.0512014755
     25  H         5.0659364176   -1.2186943301   -1.1493255768
     26  H         3.3522526944   -1.4920326832    2.6120338244
     27  H         5.6700102996   -2.4216917484    2.8550899224
     28  H         5.2059337714   -3.1772385754    1.3004592721
     29  H         7.2150302855   -0.9783104599    1.7535213248
     30  H         6.8512557280   -1.7766311632    0.1917663155
     31  H         6.0277452473    0.8828676519    0.4906050011
     32  O        -3.0913312004    1.3509274614    1.2158586522
     33  C        -6.0279396870    2.7970626414    1.2186126052
     34  C        -4.7511580955   -1.7895398114   -0.3957260152
     35  C        -4.7501773178   -2.4985140573   -1.8041385667
     36  C        -3.2986326174   -2.1498989324   -2.3070926561
     37  C        -2.6977675275   -1.4127149863   -1.0450416057
     38  O        -3.3810190623   -2.0514487372    0.1060054660
     39  H        -5.4027050649    0.0125788327   -1.5365464738
     40  H        -3.1226854124    0.6433121080   -1.8996376052
     41  H        -5.3023776836    2.8472010930    2.0564091612
     42  H        -5.5061413450   -2.1477052823    0.3311892828
     43  H        -4.8833937113   -3.5859087108   -1.6862219373
     44  H        -5.5386262082   -2.1142831119   -2.4707712051
     45  H        -2.7179315016   -3.0571101567   -2.5374653185
     46  H        -3.3037645351   -1.5006120800   -3.1975176629
     47  H        -1.5962318863   -1.4710689261   -0.9308093520
     48  H        -6.9899136966    2.4050144178    1.6079652349
     49  H        -6.1807879053    3.8093559819    0.8011643336
     50  H         5.4970143459    3.0081540467   -3.0733141533
     51  H         3.9425263954    3.1799411310   -2.1629965750
     52  H         4.0250434154    2.0950763978   -3.5978655770
     53  H         1.1035143527    1.4652216634   -0.5312714369
     54  H         1.5034240340    2.4782208132    0.9161481629
     55  H        -0.4107114682    0.7980849832    2.0550513506
     56  H        -0.8378662377    2.3734218699    1.2947112856

Z-matrix Print:
$molecule
0 1
O 
C  1 1.421926
O  2 1.252485 1 124.517990
C  1 1.482370 2 111.629693 3 -5.042145 0
H  4 1.111608 1 110.266912 2 -43.845728 0
H  4 1.112440 1 110.839036 2 75.839932 0
C  2 1.571124 1 107.825481 3 -177.222881 0
H  7 1.105010 2 110.054481 1 -70.660705 0
C  4 1.573169 1 106.428740 2 -164.295039 0
H  9 1.109559 4 109.052687 1 144.186737 0
H  9 1.110596 4 110.198645 1 24.149805 0
O  9 1.479527 4 112.700182 1 -99.941972 0
C  12 1.443032 9 110.733046 4 88.578998 0
O  13 1.250079 12 124.325916 9 -35.369800 0
C  13 1.574766 12 109.907365 9 144.504999 0
H  15 1.104174 13 107.687809 12 165.167475 0
C  7 1.579484 2 111.697765 1 162.960968 0
H  17 1.105299 7 109.650816 2 137.006314 0
C  17 1.573335 7 114.647205 2 16.897582 0
O  19 1.249228 17 127.380630 7 -118.701984 0
O  19 1.438155 17 107.468146 7 71.380629 0
C  21 1.478368 19 109.605266 17 -178.603253 0
H  22 1.105605 21 106.253403 19 -175.541463 0
H  22 1.109365 21 111.777805 19 -55.964253 0
H  22 1.109440 21 111.064703 19 65.427288 0
C  15 1.583324 13 115.127969 12 -70.339986 0
H  26 1.106260 15 109.620323 13 -131.321094 0
C  26 1.564329 15 115.188284 13 -11.193937 0
O  28 1.251182 26 128.190715 15 -9.792040 0
O  28 1.429414 26 108.208507 15 171.744587 0
C  30 1.481815 28 110.045189 26 179.315258 0
H  31 1.105431 30 105.963374 28 -179.983142 0
H  31 1.109077 30 111.514873 28 60.818773 0
H  31 1.109173 30 111.567541 28 -60.736492 0
C  17 1.586427 7 101.184366 2 -106.132265 0
H  35 1.107560 17 114.166482 7 149.079460 0
O  35 1.482434 17 104.419228 7 28.260307 0
C  37 1.483146 35 94.992584 17 -54.446615 0
H  38 1.108979 37 110.792336 35 -179.683243 0
C  35 1.576791 17 107.481769 7 -80.500524 0
H  40 1.101673 35 112.533840 17 -49.500993 0
H  40 1.101852 35 110.369144 17 -171.263885 0
C  40 1.575271 35 100.734253 17 70.990096 0
H  43 1.101507 40 111.733372 35 122.359941 0
H  43 1.102024 40 112.586192 35 -115.131226 0
C  15 1.590688 13 110.637920 12 42.078526 0
H  46 1.107030 15 114.318650 13 37.625203 0
O  46 1.482307 15 102.805706 13 -82.021391 0
C  48 1.477892 46 95.000072 15 -58.606252 0
H  49 1.107180 48 111.078205 46 178.089932 0
C  49 1.578681 48 103.130004 46 -57.341751 0
H  51 1.101757 49 112.394312 48 158.060330 0
H  51 1.101844 49 110.292168 48 -80.392806 0
C  51 1.574050 49 100.799200 48 37.513646 0
H  54 1.101433 51 111.615234 49 -120.441232 0
H  54 1.101942 51 112.629415 49 117.041374 0
$end

 
 --------------------------------------------------------------
 
                    Orbital Energies (a.u.)
 --------------------------------------------------------------
 
 Alpha MOs
 -- Occupied --
-18.947 -18.932 -18.914 -18.910 -18.890 -18.889 -18.874 -18.874
-18.874 -18.853 -10.112 -10.096 -10.095 -10.082 -10.074 -10.068
-10.064 -10.063 -10.061 -10.047 -10.047 -10.046 -10.044 -10.037
-10.030 -10.023 -10.022 -10.021 -10.011 -10.010  -1.024  -1.011
 -0.999  -0.989  -0.972  -0.958  -0.948  -0.935  -0.928  -0.916
 -0.766  -0.753  -0.726  -0.718  -0.711  -0.701  -0.687  -0.670
 -0.646  -0.610  -0.596  -0.574  -0.548  -0.539  -0.534  -0.527
 -0.516  -0.504  -0.487  -0.474  -0.465  -0.448  -0.445  -0.443
 -0.435  -0.422  -0.420  -0.415  -0.413  -0.405  -0.398  -0.395
 -0.394  -0.383  -0.378  -0.363  -0.357  -0.352  -0.348  -0.340
 -0.337  -0.335  -0.333  -0.327  -0.325  -0.322  -0.317  -0.313
 -0.308  -0.304  -0.301  -0.297  -0.291  -0.284  -0.280  -0.268
 -0.263  -0.261  -0.246  -0.240  -0.236  -0.236  -0.223  -0.189
 -0.174  -0.167  -0.164  -0.157  -0.150  -0.145  -0.143  -0.135
 -0.132
 -- Virtual --
  0.087   0.098   0.104   0.123   0.233   0.243   0.245   0.253
  0.258   0.279   0.283   0.294   0.305   0.317   0.324   0.332
  0.342   0.343   0.345   0.352   0.353   0.363   0.364   0.372
  0.378   0.390   0.393   0.401   0.406   0.409   0.412   0.414
  0.414   0.421   0.421   0.425   0.430   0.431   0.433   0.439
  0.440   0.441   0.446   0.447   0.449   0.451   0.458   0.465
  0.476   0.479   0.484   0.488   0.497   0.501   0.521   0.535
  0.548   0.551   0.564   0.636   0.645   0.646   0.664
 --------------------------------------------------------------
 
          Ground-State Mulliken Net Atomic Charges

     Atom                 Charge (a.u.)
  ----------------------------------------
      1 O                    -0.219942
      2 C                     0.215669
      3 C                    -0.082359
      4 C                    -0.076279
      5 C                     0.216219
      6 O                    -0.166294
      7 C                    -0.048393
      8 C                    -0.051243
      9 O                    -0.180324
     10 C                     0.213950
     11 C                    -0.080092
     12 C                    -0.079169
     13 C                     0.214268
     14 O                    -0.214744
     15 O                    -0.177169
     16 O                    -0.168713
     17 O                    -0.202678
     18 C                    -0.128089
     19 C                     0.026719
     20 C                    -0.144974
     21 C                    -0.142769
     22 C                     0.025592
     23 O                    -0.185017
     24 H                     0.083804
     25 H                     0.086794
     26 H                     0.085589
     27 H                     0.078655
     28 H                     0.073978
     29 H                     0.078380
     30 H                     0.073363
     31 H                     0.087755
     32 O                    -0.210847
     33 C                    -0.128352
     34 C                     0.022966
     35 C                    -0.142980
     36 C                    -0.145050
     37 C                     0.021110
     38 O                    -0.192843
     39 H                     0.081523
     40 H                     0.085323
     41 H                     0.090431
     42 H                     0.088226
     43 H                     0.076231
     44 H                     0.071388
     45 H                     0.077287
     46 H                     0.071635
     47 H                     0.100661
     48 H                     0.085940
     49 H                     0.084002
     50 H                     0.093006
     51 H                     0.090297
     52 H                     0.091019
     53 H                     0.109645
     54 H                     0.085843
     55 H                     0.092469
     56 H                     0.088581
  ----------------------------------------
  Sum of atomic charges =    -0.000000

 -----------------------------------------------------------------
                    Cartesian Multipole Moments
 -----------------------------------------------------------------
    Charge (ESU x 10^10)
                 0.0000
    Dipole Moment (Debye)
         X       3.8437      Y       1.0288      Z      -3.0255
       Tot       4.9986
    Quadrupole Moments (Debye-Ang)
        XX    -149.5281     XY      -5.0048     YY    -150.5839
        XZ       4.6339     YZ      -1.3431     ZZ    -158.6164
    Octopole Moments (Debye-Ang^2)
       XXX      76.4536    XXY       6.9986    XYY      13.7307
       YYY      51.9323    XXZ     -70.3270    XYZ     -39.6290
       YYZ      -1.1126    XZZ      13.9543    YZZ      13.2228
       ZZZ     -12.0895
    Hexadecapole Moments (Debye-Ang^3)
      XXXX  -16418.0030   XXXY      12.2482   XXYY   -2967.8840
      XYYY     175.0153   YYYY   -2310.5555   XXXZ     -48.1197
      XXYZ     -14.9135   XYYZ    -131.6184   YYYZ     -18.7753
      XXZZ   -3122.7927   XYZZ      73.8049   YYZZ    -670.9855
      XZZZ    -209.8180   YZZZ     -75.7768   ZZZZ   -1816.7736
 -----------------------------------------------------------------
Archival summary:
1\1\vega02.cac.cornell.edu\OPT\ProcedureUnspecified\STO-3G\102026\jj585\MonJan1512:38:512018MonJan1512:38:512018\0\\#,OPT,ProcedureUnspecified,STO-3G,\\0,1\O\C,1,1.42193\O,2,1.25248,1,124.518\C,1,1.48237,2,111.63,3,-5.04215,0\H,4,1.11161,1,110.267,2,-43.8457,0\H,4,1.11244,1,110.839,2,75.8399,0\C,2,1.57112,1,107.825,3,-177.223,0\H,7,1.10501,2,110.054,1,-70.6607,0\C,4,1.57317,1,106.429,2,-164.295,0\H,9,1.10956,4,109.053,1,144.187,0\H,9,1.1106,4,110.199,1,24.1498,0\O,9,1.47953,4,112.7,1,-99.942,0\C,12,1.44303,9,110.733,4,88.579,0\O,13,1.25008,12,124.326,9,-35.3698,0\C,13,1.57477,12,109.907,9,144.505,0\H,15,1.10417,13,107.688,12,165.167,0\C,7,1.57948,2,111.698,1,162.961,0\H,17,1.1053,7,109.651,2,137.006,0\C,17,1.57334,7,114.647,2,16.8976,0\O,19,1.24923,17,127.381,7,-118.702,0\O,19,1.43815,17,107.468,7,71.3806,0\C,21,1.47837,19,109.605,17,-178.603,0\H,22,1.10561,21,106.253,19,-175.541,0\H,22,1.10937,21,111.778,19,-55.9643,0\H,22,1.10944,21,111.065,19,65.4273,0\C,15,1.58332,13,115.128,12,-70.34,0\H,26,1.10626,15,109.62,13,-131.321,0\C,26,1.56433,15,115.188,13,-11.1939,0\O,28,1.25118,26,128.191,15,-9.79204,0\O,28,1.42941,26,108.209,15,171.745,0\C,30,1.48181,28,110.045,26,179.315,0\H,31,1.10543,30,105.963,28,-179.983,0\H,31,1.10908,30,111.515,28,60.8188,0\H,31,1.10917,30,111.568,28,-60.7365,0\C,17,1.58643,7,101.184,2,-106.132,0\H,35,1.10756,17,114.166,7,149.079,0\O,35,1.48243,17,104.419,7,28.2603,0\C,37,1.48315,35,94.9926,17,-54.4466,0\H,38,1.10898,37,110.792,35,-179.683,0\C,35,1.57679,17,107.482,7,-80.5005,0\H,40,1.10167,35,112.534,17,-49.501,0\H,40,1.10185,35,110.369,17,-171.264,0\C,40,1.57527,35,100.734,17,70.9901,0\H,43,1.10151,40,111.733,35,122.36,0\H,43,1.10202,40,112.586,35,-115.131,0\C,15,1.59069,13,110.638,12,42.0785,0\H,46,1.10703,15,114.319,13,37.6252,0\O,46,1.48231,15,102.806,13,-82.0214,0\C,48,1.47789,46,95.0001,15,-58.6063,0\H,49,1.10718,48,111.078,46,178.09,0\C,49,1.57868,48,103.13,46,-57.3418,0\H,51,1.10176,49,112.394,48,158.06,0\H,51,1.10184,49,110.292,48,-80.3928,0\C,51,1.57405,49,100.799,48,37.5136,0\H,54,1.10143,51,111.615,49,-120.441,0\H,54,1.10194,51,112.629,49,117.041,0\\\@

 Total job time:  52.93s(wall), 2516.15s(cpu) 
 Mon Jan 15 12:38:51 2018

        *************************************************************
        *                                                           *
        *  Thank you very much for using Q-Chem.  Have a nice day.  *
        *                                                           *
        *************************************************************


0 sent ACK to 0 
now end server 0 ... 
