mFile = /opt/software/qchem/qchem-5.0.1//bin/mpi/machines
Process 0 of 1 is on vega02.cac.cornell.edu - thread support 0
initial socket setup ...start
initial socket setup ...done 
now start server 0 ... 
vega02.cac.cornell.edu 10.84.3
Q-Chem Developer Version! Running on 10.84.3.*
                  Welcome to Q-Chem
     A Quantum Leap Into The Future Of Chemistry


 Q-Chem 5.0, Q-Chem, Inc., Pleasanton, CA (2017)

 Yihan Shao,  Zhengting Gan,  E. Epifanovsky,  A. T. B. Gilbert,  M. Wormit,  
 J. Kussmann,  A. W. Lange,  A. Behn,  Jia Deng,  Xintian Feng,  D. Ghosh,  
 M. Goldey,  P. R. Horn,  L. D. Jacobson,  I. Kaliman,  T. Kus,  A. Landau,  
 Jie Liu,  E. I. Proynov,  R. M. Richard,  R. P. Steele,  E. J. Sundstrom,  
 H. L. Woodcock III,  P. M. Zimmerman,  D. Zuev,  B. Albrecht,  E. Alguire,  
 S. A. Baeppler,  Z. Benda,  Y. A. Bernard,  E. J. Berquist,  K. B. Bravaya,  
 D. Casanova,  Chun-Min Chang,  Yunqing Chen,  A. Chien,  K. D. Closser,  
 M. P. Coons,  S. Dasgupta,  M. Diedenhofen,  Hainam Do,  R. G. Edgar,  
 Po-Tung Fang,  S. Fatehi,  Qingguo Feng,  Qinghui Ge,  A. Ghysels,  
 J. Gomes,  J. Gonthier,  A. Gunina,  M. W. D. Hanson-Heine,  
 P. H. P. Harbach,  A. W. Hauser,  J. E. Herr,  E. G. Hohenstein,  
 Z. C. Holden,  Kerwin Hui,  T.-C. Jagau,  Hyunjun Ji,  B. Kaduk,  
 K. Khistyaev,  Jaehoon Kim,  P. Klunzinger,  K. Koh,  D. Kosenkov,  
 T. Kowalczyk,  C. M. Krauter,  A. Kunitsa,  Ka Un Lao,  A. Laurent,  
 K. V. Lawler,  Joonho Lee,  D. Lefrancois,  S. Lehtola,  D. S. Levine,  
 Yi-Pei Li,  You-Sheng Lin,  Fenglai Liu,  E. Livshits,  A. Luenser,  
 P. Manohar,  E. Mansoor,  S. F. Manzer,  Shan-Ping Mao,  Yuezhi Mao,  
 N. Mardirossian,  A. V. Marenich,  L. A. Martinez-Martinez,  S. A. Maurer,  
 N. J. Mayhall,  S. C. McKenzie,  J.-M. Mewes,  A. F. Morrison,  K. Nanda,  
 T. S. Nguyen-Beck,  R. Olivares-Amaya,  J. A. Parkhill,  T. M. Perrine,  
 F. Plasser,  S. Prager,  A. Prociuk,  D. R. Rehn,  F. Rob,  M. Schneider,  
 N. Sergueev,  S. M. Sharada,  S. Sharma,  D. W. Small,  T. Stauch,  
 T. Stein,  Yu-Chuan Su,  A. J. W. Thom,  T. Tsuchimochi,  L. Vogt,  
 O. Vydrov,  M. A. Watson,  J. Wenzel,  M. de Wergifosse,  T. A. Wesolowski,  
 A. White,  J. Witte,  A. Yamada,  Jun Yang,  K. Yao,  S. Yeganeh,  
 S. R. Yost,  Zhi-Qiang You,  A. Zech,  Igor Ying Zhang,  Xing Zhang,  
 Yan Zhao,  Ying Zhu,  B. R. Brooks,  G. K. L. Chan,  C. J. Cramer,  
 M. S. Gordon,  W. J. Hehre,  A. Klamt,  M. W. Schmidt,  C. D. Sherrill,  
 D. G. Truhlar,  A. Aspuru-Guzik,  R. Baer,  A. T. Bell,  N. A. Besley,  
 Jeng-Da Chai,  A. Dreuw,  B. D. Dunietz,  T. R. Furlani,  Chao-Ping Hsu,  
 Yousung Jung,  Jing Kong,  D. S. Lambrecht,  WanZhen Liang,  C. Ochsenfeld,  
 V. A. Rassolov,  L. V. Slipchenko,  J. E. Subotnik,  T. Van Voorhis,  
 J. M. Herbert,  A. I. Krylov,  P. M. W. Gill,  M. Head-Gordon

 Contributors to earlier versions of Q-Chem not listed above: 
 R. D. Adamson,  B. Austin,  J. Baker,  G. J. O. Beran,  K. Brandhorst,  
 S. T. Brown,  E. F. C. Byrd,  A. K. Chakraborty,  C.-L. Cheng,  
 Siu Hung Chien,  D. M. Chipman,  D. L. Crittenden,  H. Dachsel,  
 R. A. DiStasio Jr.,  R. J. Doerksen,  A. D. Dutoi,  L. Fusti-Molnar,  
 W. A. Goddard III,  A. Golubeva-Zadorozhnaya,  S. R. Gwaltney,  G. Hawkins,  
 A. Heyden,  S. Hirata,  G. Kedziora,  F. J. Keil,  C. Kelley,  Jihan Kim,  
 R. A. King,  R. Z. Khaliullin,  P. P. Korambath,  W. Kurlancheek,  
 A. M. Lee,  M. S. Lee,  S. V. Levchenko,  Ching Yeh Lin,  D. Liotard,  
 R. C. Lochan,  I. Lotan,  P. E. Maslen,  N. Nair,  D. P. O'Neill,  
 D. Neuhauser,  E. Neuscamman,  C. M. Oana,  R. Olson,  B. Peters,  
 R. Peverati,  P. A. Pieniazek,  Y. M. Rhee,  J. Ritchie,  M. A. Rohrdanz,  
 E. Rosta,  N. J. Russ,  H. F. Schaefer III,  N. E. Schultz,  N. Shenvi,  
 A. C. Simmonett,  A. Sodt,  D. Stuck,  K. S. Thanthiriwatte,  V. Vanovschi,  
 Tao Wang,  A. Warshel,  C. F. Williams,  Q. Wu,  X. Xu,  W. Zhang

 Please cite Q-Chem as follows:
 Y. Shao et al., Mol. Phys. 113, 184-215 (2015)
 DOI: 10.1080/00268976.2014.952696

 Q-Chem 5.0.1 for Intel X86 EM64T Linux

 Parts of Q-Chem use Armadillo 5.200.1 (Boston Tea Smuggler).
 http://arma.sourceforge.net/

 Q-Chem begins on Mon Jan 15 13:18:02 2018  

Host: vega02.cac.cornell.edu
0

     Scratch files written to /scratch/jj585/SOT1001/0807c.save//
 Parallel job on  1  processors

Checking the input file for inconsistencies... 	...done.

--------------------------------------------------------------
User input:
--------------------------------------------------------------
$molecule
0  1
O -3.94934 -3.66094 2.70899
C -3.26408 -4.56952 2.26188
C -3.36658 -6.02376 2.66595
C -2.28993 -6.56531 3.62063
C -1.33401 -5.54912 4.20514
O -0.80702 -6.02522 5.37178
C 0.11923 -5.12023 5.98196
C 0.85832 -5.8137 7.12169
O 0.14151 -5.63069 8.35278
C -0.92473 -6.4489 8.53388
C -1.51841 -6.34397 9.91851
C -0.97233 -7.35686 10.93543
C 0.30646 -8.06707 10.53918
O 0.86244 -7.97326 9.45445
O -2.29708 -4.27486 1.35251
O 0.84158 -8.8957 11.47472
O -1.22484 -7.35938 7.77193
C 1.99483 -9.63016 11.2943
C -1.19754 -5.02446 10.66512
C -2.25496 -4.76682 11.73793
C -1.90669 -5.84577 12.74128
C -0.63392 -6.41216 12.10214
O -0.06001 -5.31338 11.43856
H -2.62382 -6.38398 9.79247
H -1.71579 -8.14189 11.19526
H -1.12391 -4.14167 9.99285
H -2.0207 -3.77524 12.18814
H -3.30962 -4.76657 11.388
H -1.6818 -5.35885 13.71612
H -2.67666 -6.63614 12.8764
H 0.00132 -6.8969 12.87579
O -1.13477 -4.4148 3.78868
C -2.04506 -3.00791 0.86912
C -4.647 -6.28037 3.49025
C -5.04053 -7.75288 3.40489
C -3.96369 -8.37398 4.26029
C -3.22766 -7.11525 4.73294
O -4.23429 -6.14223 4.82232
H -3.45108 -6.60596 1.72104
H -1.67685 -7.39027 3.19609
H -1.75949 -2.32993 1.70168
H -5.50864 -5.64978 3.1781
H -6.01811 -7.86651 3.92643
H -5.12415 -8.15972 2.37416
H -4.45245 -8.88204 5.12176
H -3.28676 -9.08329 3.73687
H -2.71428 -7.3563 5.68409
H -2.94424 -2.6099 0.35203
H -1.20711 -3.05541 0.14385
H 2.2008 -10.21565 12.21366
H 2.8537 -8.95214 11.10179
H 1.87211 -10.33267 10.44237
H 1.15859 -6.86414 6.90947
H 1.79967 -5.23982 7.26257
H -0.34571 -4.16047 6.30161
H 0.90665 -4.89695 5.22347
$end

$opt
CONSTRAINT
tors           1           2           3           4    -102.960
tors           3           4           5           6    +156.474
tors           4           5           6           7    +179.532
tors           5           6           7           8    -169.359
tors           6           7           8           9     -90.361
tors           7           8           9          10     +79.588
tors           8           9          10          11    +171.999
tors           9          10          11          12     -92.922
tors          11          12          13          14      -5.981
ENDCONSTRAINT
$end

$rem
JOBTYPE                   OPT
METHOD                    B3LYP
DFT_D                     d3_op
BASIS                     STO-3G
GEOM_OPT_MAX_CYCLES       100
GEOM_OPT_TOL_GRADIENT     300
GEOM_OPT_TOL_DISPLACEMENT 1200
GEOM_OPT_TOL_ENERGY       100
SYMMETRY                  False
THRESH                    12
SCF_CONVERGENCE           8
MAX_SUB_FILE_NUM          128
MEM_STATIC                400
MEM_TOTAL                 4000
$end
--------------------------------------------------------------
 Adding empirical dispersion correction 
 ----------------------------------------------------------------
 Doing -D3(op) with
 s6 =   1.00000
 s8 =   0.78311
 a1 =   0.30000
 a2 =   4.25000
 n  =  10.00000
 -D3 energy without 3body term =     -0.0665725986 hartrees
 ----------------------------------------------------------------
             Standard Nuclear Orientation (Angstroms)
    I     Atom           X                Y                Z
 ----------------------------------------------------------------
    1      O      -5.1681479942     0.8653149140     1.5619170683
    2      C      -5.1838474042     0.4775981428     0.4024191296
    3      C      -4.5564795036    -0.8037302941    -0.1007704437
    4      C      -3.2200050397    -0.6841576198    -0.8513728087
    5      C      -2.5714775389     0.6823738411    -0.8603700027
    6      O      -1.2278906577     0.5569572752    -1.0712812102
    7      C      -0.5432404758     1.8137247170    -1.1037669080
    8      C       0.8862163087     1.6208980205    -1.5993577758
    9      O       1.7607758950     1.3744172444    -0.4870248304
   10      C       1.7472424672     0.1071782626    -0.0042673747
   11      C       2.8189185077    -0.1396150166     1.0307543767
   12      C       4.1354512938    -0.7043044446     0.4774523994
   13      C       4.3183485203    -0.6040643568    -1.0236194510
   14      O       3.4733525285    -0.2135584502    -1.8161092996
   15      O      -5.7739588390     1.2580246686    -0.5418108450
   16      O       5.5197421939    -1.0190985868    -1.5059222726
   17      O       1.1240004251    -0.8133282398    -0.5179256082
   18      C       5.8670803354    -1.0093364235    -2.8405493164
   19      C       3.3541962613     1.1359806583     1.7291984258
   20      C       3.9581326689     0.7690607543     3.0842140426
   21      C       5.2115994038     0.0417582616     2.6460490664
   22      C       5.1392579215     0.2618823122     1.1309407676
   23      O       4.4926270219     1.5025482335     0.9907796306
   24      H       2.3552640094    -0.7712908455     1.8215946280
   25      H       4.2919225751    -1.7694282445     0.7559205851
   26      H       2.5814280330     1.9240363470     1.8651543405
   27      H       4.2554780644     1.7249685891     3.5727052046
   28      H       3.2954207782     0.2008474584     3.7717497750
   29      H       6.0912106424     0.5635712381     3.0841984824
   30      H       5.2450719652    -1.0410418764     2.8954872370
   31      H       6.1551865761     0.1916136192     0.6837402229
   32      O      -3.1163832055     1.7474487639    -0.5986247164
   33      C      -6.3900102922     2.4637894327    -0.2792194976
   34      C      -4.1532465043    -1.7212863987     1.0740863567
   35      C      -4.0691296420    -3.1710975603     0.6035442867
   36      C      -2.8089355156    -3.1173232907    -0.2247538765
   37      C      -2.3822935032    -1.6651403336     0.0174870129
   38      O      -2.8138253590    -1.3941044887     1.3245373141
   39      H      -5.3445756039    -1.3297798925    -0.6848323880
   40      H      -3.2543973066    -1.0409555084    -1.9040706468
   41      H      -5.6603068564     3.1803851347     0.1548159325
   42      H      -4.8429357488    -1.6555735104     1.9444399760
   43      H      -3.8773193355    -3.8014725999     1.5015501446
   44      H      -4.9709290114    -3.5485095938     0.0751188168
   45      H      -2.0677720223    -3.8173485521     0.2222172320
   46      H      -2.9371837141    -3.3413949373    -1.3058032251
   47      H      -1.2889312473    -1.5983907234    -0.1451595868
   48      H      -7.2358943810     2.3156672773     0.4256625038
   49      H      -6.7837039501     2.8850103851    -1.2268540465
   50      H       6.9000522921    -1.3983525226    -2.9504601985
   51      H       5.8310547130     0.0277983435    -3.2373899985
   52      H       5.1765152528    -1.6580777069    -3.4207388004
   53      H       0.9924758824     0.9030503114    -2.4431747966
   54      H       1.2060120653     2.6120820479    -1.9874430102
   55      H      -0.5849868473     2.3650909881    -0.1374661995
   56      H      -1.0371625102     2.4353921125    -1.8878344868
 ----------------------------------------------------------------
 Molecular Point Group                 C1    NOp =  1
 Largest Abelian Subgroup              C1    NOp =  1
 Nuclear Repulsion Energy =  3173.8220280795 hartrees
 There are      113 alpha and      113 beta electrons
 Requested basis set is STO-3G
 There are 86 shells and 176 basis functions

 Total QAlloc Memory Limit   4000 MB
 Mega-Array Size       392 MB
 MEM_STATIC part       400 MB
 A cutoff of  1.0D-12 yielded   2140 shell pairs
 There are     10183 function pairs
 
 -------------------------------------------------------
 OpenMP Integral Computing Module                       
 Release: version 1.0, May 2013, Q-Chem Inc. Pittsburgh 
 -------------------------------------------------------
 Integral Job Info:
 Integral job number is                      11
 Integral operator is                         1
 short-range coefficients                     0
 long-range coefficients              100000000
 Omega coefficients                           0
 if combine SR and LR in K                    0
 Integral screening is                        0
 Integral computing path is                   2
 max size of driver memory is            800000
 size of driver memory is                 45569
 size of scratch memory is              1046100
 max col of scratch BK array                289
 max len of scratch array in speh3           22
 max len of scratch index in speh4            8
 max int batch size is                      520
 min int batch size is                       52
 fixed nKL is                                52
 max L of basis functions is                  1
 order of int derivative is                   0
 number of shells is                         86
 number of basis is                         176
 number of cartesian basis is               176
 number of contracted shell pairs          2140
 number of primitive shell pairs          10896
 maxK2 (contraction) of shell pair            9
 max number of K2 of shell pair               1
 max number of CS2 of shell pair            297
 max number of PS2 of shell pair           1188
 mem total for path MDJ                   52138
 -------------------------------------------------------
 Smallest overlap matrix eigenvalue = 1.93E-01

 Scale SEOQF with 1.000000e-02/1.000000e-01/1.000000e-01

 Standard Electronic Orientation quadrupole field applied
 Guess from superposition of atomic densities
 Warning:  Energy on first SCF cycle will be non-variational
 A restricted hybrid HF-DFT SCF calculation will be
 performed using Pulay DIIS extrapolation
 Exchange:     0.2000 Hartree-Fock + 0.0800 Slater + 0.7200 B88
 Correlation:  0.1900 VWN1RPA + 0.8100 LYP
 Using SG-1 standard quadrature grid
 Dispersion:   Grimme D3
 SCF converges when DIIS error is below 1.0E-08
 using 48 threads for integral computing
 -------------------------------------------------------
 OpenMP Integral computing Module                
 Release: version 1.0, May 2013, Q-Chem Inc. Pittsburgh 
 -------------------------------------------------------
 -------------------------------------------------------
 OpenMP BLAS3 based DFT computing Module                
 Release: version 1.0, May 2013, Q-Chem Inc. Pittsburgh 
 -------------------------------------------------------
 ---------------------------------------
  Cycle       Energy         DIIS Error
 ---------------------------------------
    1   -1509.4723252247      8.30E-02
    2   -1509.6125456297      1.03E-02
    3   -1507.7756268249      2.42E-02
    4   -1510.1021712197      3.36E-03
    5   -1510.1471983268      1.16E-03
    6   -1510.1529856242      3.23E-04
    7   -1510.1533739336      1.32E-04
    8   -1510.1534463147      2.51E-05
    9   -1510.1534491311      4.63E-06
   10   -1510.1534492271      1.41E-06
   11   -1510.1534492345      6.65E-07
   12   -1510.1534492361      2.38E-07
   13   -1510.1534492364      4.98E-08
   14   -1510.1534492363      9.32E-09 Convergence criterion met
 ---------------------------------------
 SCF time:  CPU 106.18 s  wall 2.27 s
 SCF   energy in the final basis set = -1510.15344924
 Total energy in the final basis set = -1510.15344924
 
 --------------------------------------------------------------
 
                    Orbital Energies (a.u.)
 --------------------------------------------------------------
 
 Alpha MOs
 -- Occupied --
-18.942 -18.935 -18.934 -18.913 -18.897 -18.891 -18.866 -18.861
-18.848 -18.839 -10.114 -10.107 -10.101 -10.097 -10.085 -10.082
-10.081 -10.068 -10.068 -10.063 -10.058 -10.054 -10.044 -10.033
-10.033 -10.031 -10.015 -10.012 -10.008 -10.006  -1.048  -1.044
 -1.032  -1.026  -1.023  -1.017  -0.951  -0.949  -0.939  -0.931
 -0.781  -0.775  -0.745  -0.740  -0.732  -0.720  -0.707  -0.682
 -0.669  -0.629  -0.606  -0.585  -0.551  -0.544  -0.535  -0.529
 -0.526  -0.518  -0.501  -0.492  -0.481  -0.473  -0.460  -0.459
 -0.446  -0.439  -0.430  -0.429  -0.424  -0.415  -0.413  -0.410
 -0.408  -0.394  -0.392  -0.380  -0.375  -0.363  -0.356  -0.350
 -0.347  -0.346  -0.343  -0.340  -0.333  -0.327  -0.320  -0.313
 -0.308  -0.306  -0.299  -0.298  -0.292  -0.287  -0.279  -0.278
 -0.267  -0.246  -0.239  -0.233  -0.229  -0.227  -0.210  -0.181
 -0.178  -0.166  -0.157  -0.155  -0.149  -0.144  -0.143  -0.133
 -0.126
 -- Virtual --
  0.114   0.115   0.121   0.133   0.255   0.256   0.259   0.268
  0.287   0.307   0.333   0.340   0.344   0.345   0.356   0.362
  0.370   0.372   0.389   0.391   0.395   0.397   0.400   0.401
  0.404   0.407   0.414   0.415   0.416   0.419   0.424   0.427
  0.431   0.435   0.439   0.440   0.446   0.450   0.456   0.458
  0.470   0.472   0.477   0.478   0.480   0.489   0.490   0.496
  0.497   0.503   0.504   0.524   0.532   0.546   0.557   0.565
  0.572   0.580   0.588   0.687   0.695   0.701   0.705
 --------------------------------------------------------------
 
          Ground-State Mulliken Net Atomic Charges

     Atom                 Charge (a.u.)
  ----------------------------------------
      1 O                    -0.239268
      2 C                     0.241873
      3 C                    -0.083320
      4 C                    -0.081859
      5 C                     0.234613
      6 O                    -0.183787
      7 C                    -0.036088
      8 C                    -0.031187
      9 O                    -0.186765
     10 C                     0.238389
     11 C                    -0.083604
     12 C                    -0.079110
     13 C                     0.242196
     14 O                    -0.234145
     15 O                    -0.212203
     16 O                    -0.214236
     17 O                    -0.233832
     18 C                    -0.097423
     19 C                     0.040344
     20 C                    -0.142857
     21 C                    -0.143876
     22 C                     0.039335
     23 O                    -0.212369
     24 H                     0.087354
     25 H                     0.090680
     26 H                     0.085670
     27 H                     0.074103
     28 H                     0.072292
     29 H                     0.074964
     30 H                     0.071706
     31 H                     0.086865
     32 O                    -0.227662
     33 C                    -0.096428
     34 C                     0.042171
     35 C                    -0.143527
     36 C                    -0.143736
     37 C                     0.034633
     38 O                    -0.212785
     39 H                     0.084464
     40 H                     0.087308
     41 H                     0.090232
     42 H                     0.087631
     43 H                     0.073473
     44 H                     0.069976
     45 H                     0.074571
     46 H                     0.070255
     47 H                     0.101611
     48 H                     0.081282
     49 H                     0.089749
     50 H                     0.094699
     51 H                     0.087786
     52 H                     0.087601
     53 H                     0.107131
     54 H                     0.092772
     55 H                     0.096269
     56 H                     0.086071
  ----------------------------------------
  Sum of atomic charges =     0.000000

 -----------------------------------------------------------------
                    Cartesian Multipole Moments
 -----------------------------------------------------------------
    Charge (ESU x 10^10)
                 0.0000
    Dipole Moment (Debye)
         X       1.9044      Y      -1.1337      Z      -1.6714
       Tot       2.7759
    Quadrupole Moments (Debye-Ang)
        XX    -145.1722     XY      -1.1315     YY    -155.5696
        XZ       6.3544     YZ      -2.4020     ZZ    -155.4049
    Octopole Moments (Debye-Ang^2)
       XXX      19.2869    XXY     -37.7690    XYY     -28.4941
       YYY      21.7835    XXZ     -57.2844    XYZ      11.2841
       YYZ     -11.9008    XZZ      46.8180    YZZ       5.3562
       ZZZ     -36.8698
    Hexadecapole Moments (Debye-Ang^3)
      XXXX  -14367.0479   XXXY    -262.0846   XXYY   -2835.7633
      XYYY    -123.4355   YYYY   -2205.6617   XXXZ    -195.7537
      XXYZ       4.9837   XYYZ     -29.1948   YYYZ     -21.7009
      XXZZ   -2785.3643   XYZZ     -19.2516   YYZZ    -674.7599
      XZZZ    -110.1107   YZZZ       6.6006   ZZZZ   -1999.8361
 -----------------------------------------------------------------
 Calculating analytic gradient of the SCF energy
 Gradient of SCF Energy
            1           2           3           4           5           6
    1  -0.0036950  -0.0065124   0.0405570  -0.0034735   0.0169268  -0.0396876
    2  -0.0097785  -0.0260541   0.0167001   0.0288574   0.0019084   0.0428429
    3  -0.0708425  -0.0185065   0.0339054   0.0341505  -0.0149504   0.0075026
            7           8           9          10          11          12
    1   0.0236277  -0.0119841  -0.0279971  -0.0146178   0.0160742  -0.0179228
    2  -0.0302019  -0.0144721  -0.0593392   0.0283752   0.0022961   0.0477724
    3   0.0242734   0.0142473  -0.0106252   0.0109286  -0.0388265  -0.0122141
           13          14          15          16          17          18
    1   0.0206057   0.0524966  -0.0060715  -0.0664795   0.0454878   0.0089042
    2  -0.0032615  -0.0259425   0.0599421   0.0354148   0.0436514  -0.0100020
    3   0.0256594   0.0396670   0.1076986  -0.0994938   0.0175264   0.0573868
           19          20          21          22          23          24
    1   0.0638040   0.0154329  -0.0324747  -0.0639489  -0.0213586  -0.0070152
    2  -0.0187794  -0.0122929   0.0237459   0.0350999  -0.0729765   0.0052675
    3  -0.0279590  -0.0486913  -0.0275568   0.0053707   0.0423697   0.0096840
           25          26          27          28          29          30
    1  -0.0004746  -0.0064931   0.0067972  -0.0033589   0.0016752  -0.0003987
    2  -0.0056775  -0.0025378   0.0091292  -0.0041178   0.0115541  -0.0089101
    3  -0.0029966   0.0126048  -0.0014816   0.0065236   0.0062215  -0.0020062
           31          32          33          34          35          36
    1   0.0062817   0.0250848   0.0168428   0.0701543   0.0313313  -0.0202561
    2  -0.0086698  -0.0504041  -0.0430621   0.0058848   0.0421674   0.0358410
    3   0.0069020  -0.0075515  -0.0339734  -0.0307894  -0.0116426   0.0284615
           37          38          39          40          41          42
    1  -0.0621304  -0.0415057  -0.0085950   0.0053878   0.0038545  -0.0096377
    2   0.0099359  -0.0280838  -0.0040379  -0.0002392  -0.0063274  -0.0111292
    3   0.0452238  -0.0691885   0.0055041  -0.0050316  -0.0037151  -0.0016578
           43          44          45          46          47          48
    1   0.0086817  -0.0060271   0.0008252  -0.0005701  -0.0019593   0.0027802
    2  -0.0022954  -0.0038356  -0.0069302   0.0010452  -0.0140333  -0.0081247
    3   0.0078531  -0.0043843   0.0116936  -0.0086996  -0.0066739  -0.0036499
           49          50          51          52          53          54
    1  -0.0014468   0.0005575   0.0001573  -0.0005715   0.0045318  -0.0031304
    2   0.0030587   0.0001963   0.0002832  -0.0019846   0.0065232   0.0009313
    3   0.0010364  -0.0036217   0.0091198   0.0088001  -0.0063882  -0.0000830
           55          56
    1  -0.0022930   0.0032270
    2   0.0018476  -0.0067709
    3   0.0000377  -0.0071515
 Max gradient component =       1.077E-01
 RMS gradient           =       2.779E-02
 Gradient time:  CPU 32.79 s  wall 0.70 s
 Geometry Optimization Parameters
   NAtoms,    NIC,     NZ,  NCons,   NDum,   NFix, NCnnct, MaxDiis
       56     458       0       9       0       0       0       0


** CONSTRAINED OPTIMIZATION IN DELOCALIZED INTERNAL COORDINATES **
   Searching for a Minimum

   Optimization Cycle:   1

                       Coordinates (Angstroms)
     ATOM                X               Y               Z
      1  O        -5.1681479942    0.8653149140    1.5619170683
      2  C        -5.1838474042    0.4775981428    0.4024191296
      3  C        -4.5564795036   -0.8037302941   -0.1007704437
      4  C        -3.2200050397   -0.6841576198   -0.8513728087
      5  C        -2.5714775389    0.6823738411   -0.8603700027
      6  O        -1.2278906577    0.5569572752   -1.0712812102
      7  C        -0.5432404758    1.8137247170   -1.1037669080
      8  C         0.8862163087    1.6208980205   -1.5993577758
      9  O         1.7607758950    1.3744172444   -0.4870248304
     10  C         1.7472424672    0.1071782626   -0.0042673747
     11  C         2.8189185077   -0.1396150166    1.0307543767
     12  C         4.1354512938   -0.7043044446    0.4774523994
     13  C         4.3183485203   -0.6040643568   -1.0236194510
     14  O         3.4733525285   -0.2135584502   -1.8161092996
     15  O        -5.7739588390    1.2580246686   -0.5418108450
     16  O         5.5197421939   -1.0190985868   -1.5059222726
     17  O         1.1240004251   -0.8133282398   -0.5179256082
     18  C         5.8670803354   -1.0093364235   -2.8405493164
     19  C         3.3541962613    1.1359806583    1.7291984258
     20  C         3.9581326689    0.7690607543    3.0842140426
     21  C         5.2115994038    0.0417582616    2.6460490664
     22  C         5.1392579215    0.2618823122    1.1309407676
     23  O         4.4926270219    1.5025482335    0.9907796306
     24  H         2.3552640094   -0.7712908455    1.8215946280
     25  H         4.2919225751   -1.7694282445    0.7559205851
     26  H         2.5814280330    1.9240363470    1.8651543405
     27  H         4.2554780644    1.7249685891    3.5727052046
     28  H         3.2954207782    0.2008474584    3.7717497750
     29  H         6.0912106424    0.5635712381    3.0841984824
     30  H         5.2450719652   -1.0410418764    2.8954872370
     31  H         6.1551865761    0.1916136192    0.6837402229
     32  O        -3.1163832055    1.7474487639   -0.5986247164
     33  C        -6.3900102922    2.4637894327   -0.2792194976
     34  C        -4.1532465043   -1.7212863987    1.0740863567
     35  C        -4.0691296420   -3.1710975603    0.6035442867
     36  C        -2.8089355156   -3.1173232907   -0.2247538765
     37  C        -2.3822935032   -1.6651403336    0.0174870129
     38  O        -2.8138253590   -1.3941044887    1.3245373141
     39  H        -5.3445756039   -1.3297798925   -0.6848323880
     40  H        -3.2543973066   -1.0409555084   -1.9040706468
     41  H        -5.6603068564    3.1803851347    0.1548159325
     42  H        -4.8429357488   -1.6555735104    1.9444399760
     43  H        -3.8773193355   -3.8014725999    1.5015501446
     44  H        -4.9709290114   -3.5485095938    0.0751188168
     45  H        -2.0677720223   -3.8173485521    0.2222172320
     46  H        -2.9371837141   -3.3413949373   -1.3058032251
     47  H        -1.2889312473   -1.5983907234   -0.1451595868
     48  H        -7.2358943810    2.3156672773    0.4256625038
     49  H        -6.7837039501    2.8850103851   -1.2268540465
     50  H         6.9000522921   -1.3983525226   -2.9504601985
     51  H         5.8310547130    0.0277983435   -3.2373899985
     52  H         5.1765152528   -1.6580777069   -3.4207388004
     53  H         0.9924758824    0.9030503114   -2.4431747966
     54  H         1.2060120653    2.6120820479   -1.9874430102
     55  H        -0.5849868473    2.3650909881   -0.1374661995
     56  H        -1.0371625102    2.4353921125   -1.8878344868
   Point Group: c1    Number of degrees of freedom:   162


   Energy is  -1510.153449236

              Constraints and their Current Values
                                        Value     Constraint
   Dihedral:        1   2   3   4     -102.960     -102.960
   Dihedral:        3   4   5   6      156.474      156.474
   Dihedral:        4   5   6   7      179.532      179.532
   Dihedral:        5   6   7   8     -169.359     -169.359
   Dihedral:        6   7   8   9      -90.361      -90.361
   Dihedral:        7   8   9  10       79.589       79.588
   Dihedral:        8   9  10  11      171.998      171.999
   Dihedral:        9  10  11  12      -92.922      -92.922
   Dihedral:       11  12  13  14       -5.980       -5.981

 Attempting to Generate Delocalized Internal Coordinates

   Using Lagrange Multiplier Algorithm


171 Hessian modes will be used to form the next step
  Hessian Eigenvalues:
    -0.977753   -0.977753   -0.977753   -0.977753   -0.977753   -0.977753
    -0.977753   -0.977753   -0.977753    0.045000    0.045000    0.045000
     0.045000    0.045011    0.045015    0.045175    0.045570    0.045597
     0.045797    0.048885    0.048913    0.054062    0.059963    0.060119
     0.062644    0.062904    0.066590    0.067115    0.067123    0.067492
     0.068659    0.071128    0.071814    0.072985    0.073918    0.075616
     0.076137    0.076783    0.076784    0.082534    0.082579    0.083709
     0.084265    0.084439    0.084989    0.085673    0.085851    0.086701
     0.087004    0.087147    0.087231    0.088750    0.088771    0.089019
     0.089178    0.089596    0.089875    0.093952    0.094261    0.096657
     0.096730    0.111480    0.111552    0.114639    0.114655    0.115890
     0.115893    0.116772    0.116779    0.117516    0.118235    0.118823
     0.122314    0.125624    0.129789    0.130718    0.132051    0.139586
     0.139771    0.160000    0.160000    0.160000    0.160000    0.160000
     0.160000    0.171382    0.171936    0.172358    0.172675    0.220142
     0.221077    0.236195    0.238137    0.243707    0.248389    0.249935
     0.249951    0.250000    0.250000    0.250000    0.250000    0.250000
     0.250000    0.250000    0.250000    0.258177    0.258826    0.267024
     0.267268    0.277738    0.279370    0.282139    0.282434    0.295421
     0.297122    0.298741    0.308049    0.310698    0.310867    0.313316
     0.319852    0.321894    0.321997    0.322509    0.322540    0.322669
     0.322759    0.322913    0.323215    0.323439    0.323659    0.323825
     0.323837    0.323905    0.324245    0.324468    0.324469    0.324662
     0.324736    0.324893    0.324923    0.324924    0.324945    0.326791
     0.326797    0.328761    0.369765    0.373549    0.385248    0.390161
     0.401005    0.407709    0.492389    0.492637    0.517902    0.530020
     0.530505    0.537342    0.933436    0.933805    0.941950    0.942757
     1.022753    1.022753    1.022753    1.022753    1.022753    1.022753
     1.022753    1.022753    1.022753

 Minimum Search - Taking P-RFO Step
 Searching for Lamda that Maximizes Along the Constraint modes Only
 Value Taken    Lamda =   0.00110009
 Searching for Lamda that Minimizes Along All other modes
 Value Taken    Lamda =  -0.16683882
 Calculated Step too Large.  Step scaled by  0.525093
 Step Taken.  Stepsize is  0.300000

                             Maximum     Tolerance    Cnvgd?
         Gradient            0.108276       0.000300      NO
         Displacement        0.097308       0.001200      NO
         Energy change     *********       0.000001      NO


 New Cartesian Coordinates Obtained by Inverse Iteration

 Displacement from previous Coordinates is:  0.908461
 Adding empirical dispersion correction 
 ----------------------------------------------------------------
 Doing -D3(op) with
 s6 =   1.00000
 s8 =   0.78311
 a1 =   0.30000
 a2 =   4.25000
 n  =  10.00000
 -D3 energy without 3body term =     -0.0662866057 hartrees
 ----------------------------------------------------------------
             Standard Nuclear Orientation (Angstroms)
    I     Atom           X                Y                Z
 ----------------------------------------------------------------
    1      O      -5.2557748020     0.8858672058     1.5567477425
    2      C      -5.2553079048     0.4800617399     0.3846810691
    3      C      -4.6012794026    -0.8158479425    -0.1094937355
    4      C      -3.2439571200    -0.6781402651    -0.8568569205
    5      C      -2.6174893446     0.7237633268    -0.8573544382
    6      O      -1.2494590983     0.6070564475    -1.0560997198
    7      C      -0.5595214230     1.8803766661    -1.0845896863
    8      C       0.8891709656     1.6678660255    -1.5725173672
    9      O       1.7849498511     1.4157785142    -0.4596284440
   10      C       1.7474146353     0.1189318275     0.0163456641
   11      C       2.8479486148    -0.1416654784     1.0539481669
   12      C       4.1720554472    -0.7226589937     0.4787407448
   13      C       4.3327271369    -0.6238851474    -1.0459928341
   14      O       3.4755226495    -0.2278894326    -1.8499136664
   15      O      -5.8467154742     1.2125494060    -0.6241712960
   16      O       5.5614632560    -1.0651111995    -1.4890602813
   17      O       1.0800154670    -0.7934728184    -0.4946411286
   18      C       5.8711550922    -1.0485666374    -2.8618964634
   19      C       3.4040728090     1.1494704212     1.7530084623
   20      C       4.0270568441     0.7636075532     3.1197698463
   21      C       5.2906398022     0.0156061538     2.6599753745
   22      C       5.2084373588     0.2484982806     1.1253783280
   23      O       4.5584922684     1.5191549995     0.9878874034
   24      H       2.3934836071    -0.7722924819     1.8455234902
   25      H       4.3266617370    -1.7851305938     0.7579439481
   26      H       2.6405110439     1.9433012860     1.8876787102
   27      H       4.3319983894     1.7083824833     3.6135617538
   28      H       3.3658198904     0.1993643160     3.8045656097
   29      H       6.1799425636     0.5175586946     3.0884481713
   30      H       5.3143193610    -1.0638081707     2.9044953277
   31      H       6.2133975623     0.1750498057     0.6592458291
   32      O      -3.1868093808     1.7942744217    -0.6025576899
   33      C      -6.4828776224     2.4337290978    -0.3363578061
   34      C      -4.1890448774    -1.7296560778     1.0915783938
   35      C      -4.0783232101    -3.1981127930     0.6090658265
   36      C      -2.7906990114    -3.1232286013    -0.2264545166
   37      C      -2.3756079481    -1.6462704673     0.0268213446
   38      O      -2.8289155890    -1.3738845533     1.3564184795
   39      H      -5.3716132727    -1.3539280937    -0.7007335493
   40      H      -3.2662513301    -1.0392574670    -1.9056073572
   41      H      -5.7659616394     3.1662028576     0.0968293787
   42      H      -4.8803318312    -1.6608322689     1.9575020575
   43      H      -3.8908877407    -3.8286633205     1.5014341877
   44      H      -4.9687085780    -3.5817781729     0.0756310948
   45      H      -2.0403329081    -3.8100378670     0.2120399197
   46      H      -2.9123401436    -3.3448614709    -1.3039413753
   47      H      -1.2826361333    -1.5448489541    -0.1271714708
   48      H      -7.3269486177     2.2907048805     0.3747144797
   49      H      -6.8840803097     2.8487187783    -1.2830663433
   50      H       6.8998360660    -1.4417383650    -2.9909768801
   51      H       5.8325174420    -0.0141628563    -3.2702144783
   52      H       5.1701127990    -1.6908145849    -3.4400779086
   53      H       0.9787723197     0.9391061860    -2.4080703109
   54      H       1.2257351805     2.6513455398    -1.9660550532
   55      H      -0.6018930551     2.4341759248    -0.1203824514
   56      H      -1.0513977995     2.5067495730    -1.8663362947
 ----------------------------------------------------------------
 Molecular Point Group                 C1    NOp =  1
 Largest Abelian Subgroup              C1    NOp =  1
 Nuclear Repulsion Energy =  3140.4884440835 hartrees
 There are      113 alpha and      113 beta electrons
 Applying Cartesian multipole field
    Component          Value
    ---------          -----
     (2,0,0)        1.00000E-12
     (0,2,0)        2.00000E-11
     (0,0,2)       -3.00000E-11
 Nucleus-field energy     =     0.0000000002 hartrees
 Requested basis set is STO-3G
 There are 86 shells and 176 basis functions
 A cutoff of  1.0D-12 yielded   2114 shell pairs
 There are     10073 function pairs
 Smallest overlap matrix eigenvalue = 2.02E-01
 Guess MOs from SCF MO coefficient file
 Reading MOs from coefficient file
 Reading MOs from coefficient file
 A restricted hybrid HF-DFT SCF calculation will be
 performed using Pulay DIIS extrapolation
 Exchange:     0.2000 Hartree-Fock + 0.0800 Slater + 0.7200 B88
 Correlation:  0.1900 VWN1RPA + 0.8100 LYP
 Using SG-1 standard quadrature grid
 Dispersion:   Grimme D3
 SCF converges when DIIS error is below 1.0E-08
 Geometry optimization detected.  Setting ReadMinima to 0
 Setting SaveMinima to 0
 using 48 threads for integral computing
 -------------------------------------------------------
 OpenMP Integral computing Module                
 Release: version 1.0, May 2013, Q-Chem Inc. Pittsburgh 
 -------------------------------------------------------
 -------------------------------------------------------
 OpenMP BLAS3 based DFT computing Module                
 Release: version 1.0, May 2013, Q-Chem Inc. Pittsburgh 
 -------------------------------------------------------
 ---------------------------------------
  Cycle       Energy         DIIS Error
 ---------------------------------------
    1   -1510.0475772318      3.16E-03
    2   -1510.2191996390      9.11E-04
    3   -1510.2147255993      1.38E-03
    4   -1510.2226493661      2.93E-04
    5   -1510.2230527065      5.67E-05
    6   -1510.2230669904      1.74E-05
    7   -1510.2230677006      1.26E-05
    8   -1510.2230683694      2.15E-06
    9   -1510.2230683931      3.99E-07
   10   -1510.2230683937      1.94E-07
   11   -1510.2230683939      8.35E-08
   12   -1510.2230683941      2.34E-08
   13   -1510.2230683941      7.26E-09 Convergence criterion met
 ---------------------------------------
 SCF time:  CPU 96.92 s  wall 2.02 s
 SCF   energy in the final basis set = -1510.22306839
 Total energy in the final basis set = -1510.22306839
 
 --------------------------------------------------------------
 
                    Orbital Energies (a.u.)
 --------------------------------------------------------------
 
 Alpha MOs
 -- Occupied --
-18.938 -18.938 -18.934 -18.918 -18.895 -18.887 -18.866 -18.865
-18.852 -18.843 -10.109 -10.102 -10.097 -10.092 -10.080 -10.079
-10.078 -10.065 -10.063 -10.060 -10.055 -10.051 -10.043 -10.034
-10.033 -10.030 -10.016 -10.013 -10.008 -10.006  -1.036  -1.030
 -1.019  -1.014  -1.002  -0.996  -0.944  -0.941  -0.933  -0.925
 -0.773  -0.766  -0.736  -0.732  -0.723  -0.713  -0.700  -0.677
 -0.663  -0.623  -0.601  -0.582  -0.547  -0.540  -0.534  -0.528
 -0.521  -0.514  -0.495  -0.486  -0.474  -0.465  -0.453  -0.453
 -0.441  -0.432  -0.424  -0.424  -0.419  -0.410  -0.407  -0.405
 -0.403  -0.388  -0.386  -0.374  -0.369  -0.356  -0.351  -0.347
 -0.346  -0.342  -0.339  -0.336  -0.330  -0.326  -0.322  -0.311
 -0.306  -0.305  -0.297  -0.296  -0.290  -0.283  -0.277  -0.275
 -0.265  -0.245  -0.242  -0.235  -0.233  -0.228  -0.219  -0.180
 -0.177  -0.167  -0.159  -0.153  -0.148  -0.146  -0.142  -0.134
 -0.129
 -- Virtual --
  0.108   0.109   0.114   0.126   0.249   0.252   0.256   0.260
  0.278   0.299   0.319   0.326   0.334   0.340   0.352   0.356
  0.357   0.361   0.376   0.379   0.380   0.388   0.390   0.390
  0.392   0.402   0.408   0.410   0.410   0.413   0.418   0.419
  0.422   0.424   0.427   0.433   0.435   0.439   0.442   0.449
  0.459   0.460   0.463   0.470   0.473   0.476   0.478   0.481
  0.486   0.487   0.497   0.505   0.506   0.528   0.538   0.554
  0.560   0.561   0.571   0.662   0.673   0.675   0.680
 --------------------------------------------------------------
 
          Ground-State Mulliken Net Atomic Charges

     Atom                 Charge (a.u.)
  ----------------------------------------
      1 O                    -0.230380
      2 C                     0.229329
      3 C                    -0.081978
      4 C                    -0.079648
      5 C                     0.224410
      6 O                    -0.178753
      7 C                    -0.039577
      8 C                    -0.035316
      9 O                    -0.179667
     10 C                     0.227106
     11 C                    -0.082366
     12 C                    -0.077558
     13 C                     0.229676
     14 O                    -0.225269
     15 O                    -0.198597
     16 O                    -0.200560
     17 O                    -0.225154
     18 C                    -0.105888
     19 C                     0.035150
     20 C                    -0.143854
     21 C                    -0.144731
     22 C                     0.034072
     23 O                    -0.202932
     24 H                     0.086530
     25 H                     0.089672
     26 H                     0.085878
     27 H                     0.074726
     28 H                     0.073031
     29 H                     0.075519
     30 H                     0.072544
     31 H                     0.086922
     32 O                    -0.221423
     33 C                    -0.104690
     34 C                     0.036360
     35 C                    -0.144479
     36 C                    -0.144697
     37 C                     0.029890
     38 O                    -0.204005
     39 H                     0.083673
     40 H                     0.086724
     41 H                     0.090686
     42 H                     0.087042
     43 H                     0.073702
     44 H                     0.070482
     45 H                     0.074915
     46 H                     0.070795
     47 H                     0.101941
     48 H                     0.081798
     49 H                     0.089371
     50 H                     0.094158
     51 H                     0.088247
     52 H                     0.087990
     53 H                     0.106099
     54 H                     0.091755
     55 H                     0.095239
     56 H                     0.086090
  ----------------------------------------
  Sum of atomic charges =     0.000000

 -----------------------------------------------------------------
                    Cartesian Multipole Moments
 -----------------------------------------------------------------
    Charge (ESU x 10^10)
                 0.0000
    Dipole Moment (Debye)
         X       1.9635      Y      -1.1514      Z      -1.6547
       Tot       2.8141
    Quadrupole Moments (Debye-Ang)
        XX    -145.0347     XY      -1.5883     YY    -155.2611
        XZ       6.0847     YZ      -2.2322     ZZ    -155.0880
    Octopole Moments (Debye-Ang^2)
       XXX      18.7215    XXY     -38.5058    XYY     -29.2206
       YYY      20.5671    XXZ     -57.4162    XYZ      11.7512
       YYZ     -12.7978    XZZ      49.9861    YZZ       4.5324
       ZZZ     -36.6529
    Hexadecapole Moments (Debye-Ang^3)
      XXXX  -14644.8804   XXXY    -266.8311   XXYY   -2888.2502
      XYYY    -106.7940   YYYY   -2233.8692   XXXZ    -222.7926
      XXYZ       3.1843   XYYZ     -38.5670   YYYZ     -17.5046
      XXZZ   -2828.7348   XYZZ     -16.7146   YYZZ    -683.3025
      XZZZ    -141.1133   YZZZ      13.4032   ZZZZ   -2016.5306
 -----------------------------------------------------------------
 Calculating analytic gradient of the SCF energy
 Gradient of SCF Energy
            1           2           3           4           5           6
    1   0.0001645  -0.0083850   0.0259755  -0.0055033   0.0142426  -0.0256182
    2  -0.0033930  -0.0235243   0.0128183   0.0195045  -0.0068525   0.0289906
    3  -0.0301238  -0.0276231   0.0194862   0.0188833  -0.0151607   0.0038539
            7           8           9          10          11          12
    1   0.0183365  -0.0076313  -0.0178460  -0.0102968   0.0091453  -0.0117244
    2  -0.0188440  -0.0147434  -0.0346682   0.0294480  -0.0055631   0.0278043
    3   0.0229506   0.0067062  -0.0095188   0.0177128  -0.0255922  -0.0077601
           13          14          15          16          17          18
    1   0.0284790   0.0221758  -0.0039155  -0.0469035   0.0264107   0.0083853
    2  -0.0065947  -0.0120945   0.0434540   0.0243877   0.0169687  -0.0079102
    3   0.0259153   0.0166360   0.0733847  -0.0679137   0.0040994   0.0430034
           19          20          21          22          23          24
    1   0.0397943   0.0058248  -0.0155809  -0.0381654  -0.0125437  -0.0054981
    2  -0.0071261  -0.0082387   0.0110903   0.0257031  -0.0435052   0.0062332
    3  -0.0215057  -0.0260140  -0.0145708  -0.0000844   0.0252002   0.0070788
           25          26          27          28          29          30
    1  -0.0005104  -0.0052669   0.0045227  -0.0013606  -0.0000671   0.0005108
    2  -0.0036788  -0.0035052   0.0056289  -0.0012031   0.0077838  -0.0051330
    3  -0.0030204   0.0108659  -0.0021523   0.0048969   0.0041563  -0.0018543
           31          32          33          34          35          36
    1   0.0046574   0.0117919   0.0125725   0.0443697   0.0132418  -0.0088175
    2  -0.0080131  -0.0240280  -0.0325846   0.0072610   0.0231759   0.0187364
    3   0.0062218  -0.0015516  -0.0264942  -0.0138624  -0.0070153   0.0125422
           37          38          39          40          41          42
    1  -0.0373847  -0.0236299  -0.0066959   0.0050398   0.0026425  -0.0081858
    2   0.0097930  -0.0168326  -0.0031007  -0.0002957  -0.0020914  -0.0095507
    3   0.0309409  -0.0417111   0.0056155  -0.0029065  -0.0018292  -0.0027111
           43          44          45          46          47          48
    1   0.0060431  -0.0033310  -0.0004107   0.0006462  -0.0009312   0.0002150
    2  -0.0003180  -0.0032555  -0.0039510   0.0006889  -0.0117585  -0.0041783
    3   0.0048369  -0.0014821   0.0079227  -0.0049423  -0.0064582  -0.0014570
           49          50          51          52          53          54
    1  -0.0015944   0.0008839   0.0006650  -0.0005551   0.0038485  -0.0019568
    2   0.0030935   0.0000382   0.0012656  -0.0020588   0.0060417   0.0009560
    3   0.0006297  -0.0035620   0.0041030   0.0037511  -0.0058784   0.0002673
           55          56
    1  -0.0019455   0.0016702
    2   0.0028981  -0.0051689
    3  -0.0010491  -0.0058560
 Max gradient component =       7.338E-02
 RMS gradient           =       1.786E-02
 Gradient time:  CPU 31.85 s  wall 0.67 s
 Geometry Optimization Parameters
   NAtoms,    NIC,     NZ,  NCons,   NDum,   NFix, NCnnct, MaxDiis
       56     458       0       9       0       0       0       0

 Cartesian Hessian Update
 Hessian Updated using BFGS Update


** CONSTRAINED OPTIMIZATION IN DELOCALIZED INTERNAL COORDINATES **
   Searching for a Minimum

   Optimization Cycle:   2

                       Coordinates (Angstroms)
     ATOM                X               Y               Z
      1  O        -5.2557748020    0.8858672058    1.5567477425
      2  C        -5.2553079048    0.4800617399    0.3846810691
      3  C        -4.6012794026   -0.8158479425   -0.1094937355
      4  C        -3.2439571200   -0.6781402651   -0.8568569205
      5  C        -2.6174893446    0.7237633268   -0.8573544382
      6  O        -1.2494590983    0.6070564475   -1.0560997198
      7  C        -0.5595214230    1.8803766661   -1.0845896863
      8  C         0.8891709656    1.6678660255   -1.5725173672
      9  O         1.7849498511    1.4157785142   -0.4596284440
     10  C         1.7474146353    0.1189318275    0.0163456641
     11  C         2.8479486148   -0.1416654784    1.0539481669
     12  C         4.1720554472   -0.7226589937    0.4787407448
     13  C         4.3327271369   -0.6238851474   -1.0459928341
     14  O         3.4755226495   -0.2278894326   -1.8499136664
     15  O        -5.8467154742    1.2125494060   -0.6241712960
     16  O         5.5614632560   -1.0651111995   -1.4890602813
     17  O         1.0800154670   -0.7934728184   -0.4946411286
     18  C         5.8711550922   -1.0485666374   -2.8618964634
     19  C         3.4040728090    1.1494704212    1.7530084623
     20  C         4.0270568441    0.7636075532    3.1197698463
     21  C         5.2906398022    0.0156061538    2.6599753745
     22  C         5.2084373588    0.2484982806    1.1253783280
     23  O         4.5584922684    1.5191549995    0.9878874034
     24  H         2.3934836071   -0.7722924819    1.8455234902
     25  H         4.3266617370   -1.7851305938    0.7579439481
     26  H         2.6405110439    1.9433012860    1.8876787102
     27  H         4.3319983894    1.7083824833    3.6135617538
     28  H         3.3658198904    0.1993643160    3.8045656097
     29  H         6.1799425636    0.5175586946    3.0884481713
     30  H         5.3143193610   -1.0638081707    2.9044953277
     31  H         6.2133975623    0.1750498057    0.6592458291
     32  O        -3.1868093808    1.7942744217   -0.6025576899
     33  C        -6.4828776224    2.4337290978   -0.3363578061
     34  C        -4.1890448774   -1.7296560778    1.0915783938
     35  C        -4.0783232101   -3.1981127930    0.6090658265
     36  C        -2.7906990114   -3.1232286013   -0.2264545166
     37  C        -2.3756079481   -1.6462704673    0.0268213446
     38  O        -2.8289155890   -1.3738845533    1.3564184795
     39  H        -5.3716132727   -1.3539280937   -0.7007335493
     40  H        -3.2662513301   -1.0392574670   -1.9056073572
     41  H        -5.7659616394    3.1662028576    0.0968293787
     42  H        -4.8803318312   -1.6608322689    1.9575020575
     43  H        -3.8908877407   -3.8286633205    1.5014341877
     44  H        -4.9687085780   -3.5817781729    0.0756310948
     45  H        -2.0403329081   -3.8100378670    0.2120399197
     46  H        -2.9123401436   -3.3448614709   -1.3039413753
     47  H        -1.2826361333   -1.5448489541   -0.1271714708
     48  H        -7.3269486177    2.2907048805    0.3747144797
     49  H        -6.8840803097    2.8487187783   -1.2830663433
     50  H         6.8998360660   -1.4417383650   -2.9909768801
     51  H         5.8325174420   -0.0141628563   -3.2702144783
     52  H         5.1701127990   -1.6908145849   -3.4400779086
     53  H         0.9787723197    0.9391061860   -2.4080703109
     54  H         1.2257351805    2.6513455398   -1.9660550532
     55  H        -0.6018930551    2.4341759248   -0.1203824514
     56  H        -1.0513977995    2.5067495730   -1.8663362947
   Point Group: c1    Number of degrees of freedom:   162


   Energy is  -1510.223068394

              Constraints and their Current Values
                                        Value     Constraint
   Dihedral:        1   2   3   4     -102.942     -102.960
   Dihedral:        3   4   5   6      156.434      156.474
   Dihedral:        4   5   6   7      179.526      179.532
   Dihedral:        5   6   7   8     -169.325     -169.359
   Dihedral:        6   7   8   9      -90.412      -90.361
   Dihedral:        7   8   9  10       79.609       79.588
   Dihedral:        8   9  10  11      171.983      171.999
   Dihedral:        9  10  11  12      -92.868      -92.922
   Dihedral:       11  12  13  14       -6.000       -5.981
 Hessian Updated using BFGS Update

   Using Lagrange Multiplier Algorithm


161 Hessian modes will be used to form the next step
  Hessian Eigenvalues:
    -0.977753   -0.977753   -0.977753   -0.977753   -0.977753   -0.977753
    -0.977753   -0.977753   -0.977191    0.044992    0.045000    0.045000
     0.045000    0.045010    0.045012    0.045177    0.045570    0.045596
     0.045821    0.048885    0.048912    0.053994    0.059904    0.060079
     0.062668    0.062914    0.066590    0.067108    0.067124    0.067471
     0.068661    0.071123    0.071779    0.072985    0.073924    0.075555
     0.076111    0.076686    0.076786    0.082533    0.082571    0.083709
     0.084231    0.084473    0.084982    0.085639    0.085854    0.086701
     0.086976    0.087129    0.087252    0.088588    0.088766    0.089016
     0.089215    0.089648    0.089882    0.093975    0.094277    0.096655
     0.096733    0.111511    0.111581    0.114646    0.114685    0.115890
     0.115893    0.116772    0.116790    0.117609    0.118215    0.118725
     0.122314    0.125601    0.129779    0.130691    0.132023    0.139592
     0.139743    0.159604    0.161636    0.171075    0.171948    0.172213
     0.172733    0.219296    0.220574    0.230762    0.236260    0.238152
     0.243805    0.248396    0.249945    0.249958    0.252946    0.258393
     0.260914    0.267138    0.267393    0.278019    0.280207    0.282169
     0.288423    0.296194    0.297832    0.301595    0.308742    0.310713
     0.312117    0.319641    0.320103    0.321936    0.322204    0.322509
     0.322579    0.322743    0.322911    0.322938    0.323395    0.323505
     0.323667    0.323830    0.323860    0.323928    0.324277    0.324462
     0.324488    0.324652    0.324722    0.324902    0.324923    0.324938
     0.326719    0.326794    0.328740    0.330211    0.369746    0.373550
     0.387535    0.400521    0.406368    0.423622    0.476592    0.492529
     0.519758    0.524613    0.530302    0.537334    0.933486    0.935963
     0.942369    0.988492    1.022753    1.022753    1.022753    1.022753
     1.022753    1.022753    1.022753    1.022753    1.029039

 Minimum Search - Taking P-RFO Step
 Searching for Lamda that Maximizes Along the Constraint modes Only
 Value Taken    Lamda =   0.00004804
 Searching for Lamda that Minimizes Along All other modes
 Value Taken    Lamda =  -0.07803866
 Calculated Step too Large.  Step scaled by  0.616640
 Step Taken.  Stepsize is  0.300000

                             Maximum     Tolerance    Cnvgd?
         Gradient            0.063239       0.000300      NO
         Displacement        0.087099       0.001200      NO
         Energy change     -0.069619       0.000001      NO


 New Cartesian Coordinates Obtained by Inverse Iteration

 Displacement from previous Coordinates is:  0.949278
 Adding empirical dispersion correction 
 ----------------------------------------------------------------
 Doing -D3(op) with
 s6 =   1.00000
 s8 =   0.78311
 a1 =   0.30000
 a2 =   4.25000
 n  =  10.00000
 -D3 energy without 3body term =     -0.0664405552 hartrees
 ----------------------------------------------------------------
             Standard Nuclear Orientation (Angstroms)
    I     Atom           X                Y                Z
 ----------------------------------------------------------------
    1      O      -5.2787900165     0.9359363605     1.5030871391
    2      C      -5.2560197583     0.4869457839     0.3396330694
    3      C      -4.5868421889    -0.8324048047    -0.1245469706
    4      C      -3.2158530222    -0.6873258436    -0.8642852364
    5      C      -2.6194416574     0.7457607322    -0.8649338712
    6      O      -1.2322049391     0.6354215061    -1.0488387937
    7      C      -0.5609139251     1.9339657017    -1.0773580818
    8      C       0.9021735854     1.7078001884    -1.5519931329
    9      O       1.8089056141     1.4633555157    -0.4297277785
   10      C       1.7323033830     0.1394129002     0.0329148756
   11      C       2.8409171408    -0.1405262926     1.0815761123
   12      C       4.1608342056    -0.7398140674     0.4911380542
   13      C       4.2838871365    -0.6362308684    -1.0524625647
   14      O       3.4183081780    -0.2320071246    -1.8545284277
   15      O      -5.8482613309     1.1550573050    -0.7386721655
   16      O       5.5328099090    -1.1013617837    -1.4774502582
   17      O       1.0154468005    -0.7457198831    -0.4774428448
   18      C       5.7419854883    -1.0486850332    -2.8979181882
   19      C       3.4144520758     1.1557986868     1.7834024387
   20      C       4.0442195514     0.7429095103     3.1549029119
   21      C       5.3079565602    -0.0268356350     2.6779669995
   22      C       5.2274757107     0.2242220963     1.1326540694
   23      O       4.5854103806     1.5249159377     1.0015009418
   24      H       2.3900565760    -0.7751381704     1.8683829352
   25      H       4.3098247683    -1.8013323033     0.7690347596
   26      H       2.6653486654     1.9625273567     1.9075986348
   27      H       4.3600909836     1.6714284659     3.6642494499
   28      H       3.3753202701     0.1791353299     3.8276664788
   29      H       6.2095252807     0.4464701038     3.1043335319
   30      H       5.3104351594    -1.1052938837     2.9129845220
   31      H       6.2201889656     0.1500825067     0.6449065193
   32      O      -3.2089821849     1.8186905531    -0.6302031778
   33      C      -6.4823872184     2.3971172587    -0.3974755914
   34      C      -4.1696925792    -1.7250092865     1.1076720972
   35      C      -4.0336098834    -3.2086965456     0.6316231975
   36      C      -2.7282263247    -3.1238773806    -0.2059261957
   37      C      -2.3220908777    -1.6289094192     0.0403135485
   38      O      -2.7947213782    -1.3417366522     1.3849131419
   39      H      -5.3387606283    -1.3847472374    -0.7215172333
   40      H      -3.2289286440    -1.0611367460    -1.9065357427
   41      H      -5.7538612593     3.1218040396     0.0264136862
   42      H      -4.8584077221    -1.6353183354     1.9713744798
   43      H      -3.8522727539    -3.8353111794     1.5235725532
   44      H      -4.9142569540    -3.5987438176     0.0930097332
   45      H      -1.9692667796    -3.7972834554     0.2292933248
   46      H      -2.8483951495    -3.3523712314    -1.2788790386
   47      H      -1.2311108854    -1.4873911009    -0.1019477060
   48      H      -7.3048226926     2.2510506340     0.3363342912
   49      H      -6.9047976800     2.8170507206    -1.3307364621
   50      H       6.7584645750    -1.4413606733    -3.0935091364
   51      H       5.6773980540    -0.0078664151    -3.2827243154
   52      H       5.0025548399    -1.6736494043    -3.4441263529
   53      H       0.9772379565     0.9574758858    -2.3687053515
   54      H       1.2532379579     2.6806313623    -1.9582512835
   55      H      -0.6085443518     2.4894312354    -0.1148820214
   56      H      -1.0562423945     2.5583942341    -1.8571142360
 ----------------------------------------------------------------
 Molecular Point Group                 C1    NOp =  1
 Largest Abelian Subgroup              C1    NOp =  1
 Nuclear Repulsion Energy =  3131.8531552207 hartrees
 There are      113 alpha and      113 beta electrons
 Applying Cartesian multipole field
    Component          Value
    ---------          -----
     (2,0,0)        1.00000E-12
     (0,2,0)        2.00000E-11
     (0,0,2)       -3.00000E-11
 Nucleus-field energy     =    -0.0000000004 hartrees
 Requested basis set is STO-3G
 There are 86 shells and 176 basis functions
 A cutoff of  1.0D-12 yielded   2123 shell pairs
 There are     10148 function pairs
 Smallest overlap matrix eigenvalue = 2.07E-01
 Guess MOs from SCF MO coefficient file
 Reading MOs from coefficient file
 Reading MOs from coefficient file
 A restricted hybrid HF-DFT SCF calculation will be
 performed using Pulay DIIS extrapolation
 Exchange:     0.2000 Hartree-Fock + 0.0800 Slater + 0.7200 B88
 Correlation:  0.1900 VWN1RPA + 0.8100 LYP
 Using SG-1 standard quadrature grid
 Dispersion:   Grimme D3
 SCF converges when DIIS error is below 1.0E-08
 Geometry optimization detected.  Setting ReadMinima to 0
 Setting SaveMinima to 0
 using 48 threads for integral computing
 -------------------------------------------------------
 OpenMP Integral computing Module                
 Release: version 1.0, May 2013, Q-Chem Inc. Pittsburgh 
 -------------------------------------------------------
 -------------------------------------------------------
 OpenMP BLAS3 based DFT computing Module                
 Release: version 1.0, May 2013, Q-Chem Inc. Pittsburgh 
 -------------------------------------------------------
 ---------------------------------------
  Cycle       Energy         DIIS Error
 ---------------------------------------
    1   -1510.1166254600      2.90E-03
    2   -1510.2572167793      8.17E-04
    3   -1510.2524054652      1.34E-03
    4   -1510.2600205358      2.52E-04
    5   -1510.2603137921      5.43E-05
    6   -1510.2603260404      2.09E-05
    7   -1510.2603272874      1.32E-05
    8   -1510.2603280265      2.23E-06
    9   -1510.2603280522      5.24E-07
   10   -1510.2603280527      4.01E-07
   11   -1510.2603280534      9.64E-08
   12   -1510.2603280535      1.79E-08
   13   -1510.2603280535      7.59E-09 Convergence criterion met
 ---------------------------------------
 SCF time:  CPU 91.97 s  wall 1.92 s
 SCF   energy in the final basis set = -1510.26032805
 Total energy in the final basis set = -1510.26032805
 
 --------------------------------------------------------------
 
                    Orbital Energies (a.u.)
 --------------------------------------------------------------
 
 Alpha MOs
 -- Occupied --
-18.942 -18.935 -18.932 -18.920 -18.893 -18.884 -18.872 -18.869
-18.857 -18.848 -10.106 -10.099 -10.095 -10.088 -10.076 -10.075
-10.075 -10.063 -10.058 -10.057 -10.051 -10.047 -10.042 -10.034
-10.032 -10.028 -10.017 -10.015 -10.008 -10.007  -1.029  -1.022
 -1.011  -1.006  -0.988  -0.979  -0.943  -0.938  -0.930  -0.923
 -0.769  -0.761  -0.731  -0.726  -0.717  -0.707  -0.694  -0.671
 -0.656  -0.617  -0.598  -0.578  -0.546  -0.538  -0.534  -0.527
 -0.517  -0.511  -0.490  -0.481  -0.468  -0.458  -0.449  -0.449
 -0.438  -0.428  -0.420  -0.420  -0.415  -0.407  -0.404  -0.400
 -0.399  -0.383  -0.381  -0.369  -0.363  -0.353  -0.350  -0.345
 -0.343  -0.338  -0.337  -0.332  -0.328  -0.324  -0.322  -0.310
 -0.306  -0.304  -0.297  -0.296  -0.290  -0.281  -0.276  -0.273
 -0.262  -0.251  -0.246  -0.241  -0.235  -0.231  -0.226  -0.183
 -0.177  -0.168  -0.161  -0.154  -0.149  -0.148  -0.140  -0.136
 -0.132
 -- Virtual --
  0.102   0.106   0.109   0.122   0.245   0.250   0.254   0.256
  0.273   0.292   0.306   0.314   0.324   0.331   0.341   0.347
  0.351   0.354   0.362   0.365   0.371   0.374   0.380   0.385
  0.385   0.399   0.402   0.407   0.410   0.411   0.411   0.416
  0.416   0.420   0.423   0.429   0.430   0.435   0.437   0.447
  0.449   0.450   0.453   0.454   0.462   0.467   0.471   0.475
  0.478   0.482   0.484   0.496   0.499   0.521   0.530   0.545
  0.554   0.555   0.565   0.649   0.660   0.661   0.668
 --------------------------------------------------------------
 
          Ground-State Mulliken Net Atomic Charges

     Atom                 Charge (a.u.)
  ----------------------------------------
      1 O                    -0.224379
      2 C                     0.221147
      3 C                    -0.082119
      4 C                    -0.078574
      5 C                     0.218197
      6 O                    -0.173028
      7 C                    -0.043318
      8 C                    -0.039612
      9 O                    -0.173886
     10 C                     0.220699
     11 C                    -0.082520
     12 C                    -0.077334
     13 C                     0.221655
     14 O                    -0.218214
     15 O                    -0.185217
     16 O                    -0.185952
     17 O                    -0.219398
     18 C                    -0.116112
     19 C                     0.030933
     20 C                    -0.144363
     21 C                    -0.145252
     22 C                     0.029622
     23 O                    -0.195783
     24 H                     0.085705
     25 H                     0.089005
     26 H                     0.086338
     27 H                     0.075555
     28 H                     0.073776
     29 H                     0.076323
     30 H                     0.073301
     31 H                     0.086901
     32 O                    -0.217108
     33 C                    -0.114760
     34 C                     0.031139
     35 C                    -0.144994
     36 C                    -0.145382
     37 C                     0.025100
     38 O                    -0.197742
     39 H                     0.083032
     40 H                     0.086241
     41 H                     0.091957
     42 H                     0.086055
     43 H                     0.074081
     44 H                     0.070921
     45 H                     0.075218
     46 H                     0.071230
     47 H                     0.103130
     48 H                     0.082879
     49 H                     0.087808
     50 H                     0.092870
     51 H                     0.089395
     52 H                     0.089053
     53 H                     0.105415
     54 H                     0.089884
     55 H                     0.094112
     56 H                     0.086373
  ----------------------------------------
  Sum of atomic charges =     0.000000

 -----------------------------------------------------------------
                    Cartesian Multipole Moments
 -----------------------------------------------------------------
    Charge (ESU x 10^10)
                 0.0000
    Dipole Moment (Debye)
         X       2.0423      Y      -1.2527      Z      -1.5743
       Tot       2.8668
    Quadrupole Moments (Debye-Ang)
        XX    -146.7406     XY      -1.5060     YY    -155.2646
        XZ       5.6514     YZ      -2.1406     ZZ    -154.7146
    Octopole Moments (Debye-Ang^2)
       XXX      14.8178    XXY     -39.3701    XYY     -28.9510
       YYY      18.7223    XXZ     -51.6572    XYZ      10.7665
       YYZ     -13.0999    XZZ      50.7814    YZZ       3.7452
       ZZZ     -35.1053
    Hexadecapole Moments (Debye-Ang^3)
      XXXX  -14644.0782   XXXY    -237.6073   XXYY   -2882.7617
      XYYY     -90.6956   YYYY   -2244.7394   XXXZ    -249.6642
      XXYZ      -0.7791   XYYZ     -50.6032   YYYZ      -6.7738
      XXZZ   -2809.4613   XYZZ     -13.4175   YYZZ    -690.5344
      XZZZ    -187.1288   YZZZ      26.6629   ZZZZ   -2039.2166
 -----------------------------------------------------------------
 Calculating analytic gradient of the SCF energy
 Gradient of SCF Energy
            1           2           3           4           5           6
    1   0.0011936  -0.0092145   0.0161900  -0.0060086   0.0096196  -0.0136736
    2  -0.0004372  -0.0144329   0.0089065   0.0111190  -0.0058687   0.0146405
    3  -0.0117240  -0.0190926   0.0071801   0.0088521  -0.0126618   0.0013592
            7           8           9          10          11          12
    1   0.0119544  -0.0061881  -0.0076408  -0.0091516   0.0069969  -0.0069960
    2  -0.0091516  -0.0178883  -0.0151512   0.0227113  -0.0085083   0.0141963
    3   0.0207169   0.0017352  -0.0063741   0.0171238  -0.0172982  -0.0028348
           13          14          15          16          17          18
    1   0.0210465   0.0073876   0.0005373  -0.0268550   0.0148664   0.0041735
    2  -0.0035209  -0.0052614   0.0253049   0.0135516   0.0047118  -0.0044263
    3   0.0140499   0.0063437   0.0400601  -0.0357460  -0.0029229   0.0263924
           19          20          21          22          23          24
    1   0.0230251   0.0006301  -0.0064973  -0.0204433  -0.0064660  -0.0035422
    2  -0.0012311  -0.0063791   0.0035169   0.0170778  -0.0216632   0.0059483
    3  -0.0150834  -0.0124586  -0.0066127  -0.0013111   0.0128772   0.0052344
           25          26          27          28          29          30
    1  -0.0004659  -0.0040342   0.0029866  -0.0002672  -0.0010527   0.0008544
    2  -0.0021029  -0.0035026   0.0030339   0.0005988   0.0050108  -0.0024148
    3  -0.0024293   0.0083492  -0.0025207   0.0035044   0.0023994  -0.0016649
           31          32          33          34          35          36
    1   0.0027867   0.0044867   0.0079644   0.0260373   0.0041133  -0.0038252
    2  -0.0067051  -0.0097420  -0.0209598   0.0061267   0.0114488   0.0085972
    3   0.0046004   0.0011354  -0.0142135  -0.0044430  -0.0055950   0.0036152
           37          38          39          40          41          42
    1  -0.0208087  -0.0110741  -0.0045244   0.0040702   0.0011881  -0.0062898
    2   0.0081553  -0.0089855  -0.0023492  -0.0007158  -0.0003805  -0.0071696
    3   0.0194394  -0.0208949   0.0048698  -0.0011968  -0.0008083  -0.0030104
           43          44          45          46          47          48
    1   0.0043043  -0.0016039  -0.0010696   0.0010951  -0.0003680  -0.0004125
    2   0.0008845  -0.0024683  -0.0016260   0.0004265  -0.0086974  -0.0016888
    3   0.0025347   0.0003624   0.0052157  -0.0023007  -0.0053307  -0.0005485
           49          50          51          52          53          54
    1  -0.0008251   0.0003120   0.0006280  -0.0002012   0.0025756  -0.0011370
    2   0.0016574   0.0000855   0.0008375  -0.0012690   0.0050918   0.0010596
    3   0.0004188  -0.0019019   0.0014865   0.0012988  -0.0052873   0.0011137
           55          56
    1  -0.0013886   0.0010018
    2   0.0036838  -0.0036857
    3  -0.0017593  -0.0042434
 Max gradient component =       4.006E-02
 RMS gradient           =       1.030E-02
 Gradient time:  CPU 30.27 s  wall 0.64 s
 Geometry Optimization Parameters
   NAtoms,    NIC,     NZ,  NCons,   NDum,   NFix, NCnnct, MaxDiis
       56     458       0       9       0       0       0       0

 Cartesian Hessian Update
 Hessian Updated using BFGS Update


** CONSTRAINED OPTIMIZATION IN DELOCALIZED INTERNAL COORDINATES **
   Searching for a Minimum

   Optimization Cycle:   3

                       Coordinates (Angstroms)
     ATOM                X               Y               Z
      1  O        -5.2787900165    0.9359363605    1.5030871391
      2  C        -5.2560197583    0.4869457839    0.3396330694
      3  C        -4.5868421889   -0.8324048047   -0.1245469706
      4  C        -3.2158530222   -0.6873258436   -0.8642852364
      5  C        -2.6194416574    0.7457607322   -0.8649338712
      6  O        -1.2322049391    0.6354215061   -1.0488387937
      7  C        -0.5609139251    1.9339657017   -1.0773580818
      8  C         0.9021735854    1.7078001884   -1.5519931329
      9  O         1.8089056141    1.4633555157   -0.4297277785
     10  C         1.7323033830    0.1394129002    0.0329148756
     11  C         2.8409171408   -0.1405262926    1.0815761123
     12  C         4.1608342056   -0.7398140674    0.4911380542
     13  C         4.2838871365   -0.6362308684   -1.0524625647
     14  O         3.4183081780   -0.2320071246   -1.8545284277
     15  O        -5.8482613309    1.1550573050   -0.7386721655
     16  O         5.5328099090   -1.1013617837   -1.4774502582
     17  O         1.0154468005   -0.7457198831   -0.4774428448
     18  C         5.7419854883   -1.0486850332   -2.8979181882
     19  C         3.4144520758    1.1557986868    1.7834024387
     20  C         4.0442195514    0.7429095103    3.1549029119
     21  C         5.3079565602   -0.0268356350    2.6779669995
     22  C         5.2274757107    0.2242220963    1.1326540694
     23  O         4.5854103806    1.5249159377    1.0015009418
     24  H         2.3900565760   -0.7751381704    1.8683829352
     25  H         4.3098247683   -1.8013323033    0.7690347596
     26  H         2.6653486654    1.9625273567    1.9075986348
     27  H         4.3600909836    1.6714284659    3.6642494499
     28  H         3.3753202701    0.1791353299    3.8276664788
     29  H         6.2095252807    0.4464701038    3.1043335319
     30  H         5.3104351594   -1.1052938837    2.9129845220
     31  H         6.2201889656    0.1500825067    0.6449065193
     32  O        -3.2089821849    1.8186905531   -0.6302031778
     33  C        -6.4823872184    2.3971172587   -0.3974755914
     34  C        -4.1696925792   -1.7250092865    1.1076720972
     35  C        -4.0336098834   -3.2086965456    0.6316231975
     36  C        -2.7282263247   -3.1238773806   -0.2059261957
     37  C        -2.3220908777   -1.6289094192    0.0403135485
     38  O        -2.7947213782   -1.3417366522    1.3849131419
     39  H        -5.3387606283   -1.3847472374   -0.7215172333
     40  H        -3.2289286440   -1.0611367460   -1.9065357427
     41  H        -5.7538612593    3.1218040396    0.0264136862
     42  H        -4.8584077221   -1.6353183354    1.9713744798
     43  H        -3.8522727539   -3.8353111794    1.5235725532
     44  H        -4.9142569540   -3.5987438176    0.0930097332
     45  H        -1.9692667796   -3.7972834554    0.2292933248
     46  H        -2.8483951495   -3.3523712314   -1.2788790386
     47  H        -1.2311108854   -1.4873911009   -0.1019477060
     48  H        -7.3048226926    2.2510506340    0.3363342912
     49  H        -6.9047976800    2.8170507206   -1.3307364621
     50  H         6.7584645750   -1.4413606733   -3.0935091364
     51  H         5.6773980540   -0.0078664151   -3.2827243154
     52  H         5.0025548399   -1.6736494043   -3.4441263529
     53  H         0.9772379565    0.9574758858   -2.3687053515
     54  H         1.2532379579    2.6806313623   -1.9582512835
     55  H        -0.6085443518    2.4894312354   -0.1148820214
     56  H        -1.0562423945    2.5583942341   -1.8571142360
   Point Group: c1    Number of degrees of freedom:   162


   Energy is  -1510.260328054

              Constraints and their Current Values
                                        Value     Constraint
   Dihedral:        1   2   3   4     -102.960     -102.960
   Dihedral:        3   4   5   6      156.475      156.474
   Dihedral:        4   5   6   7      179.531      179.532
   Dihedral:        5   6   7   8     -169.352     -169.359
   Dihedral:        6   7   8   9      -90.382      -90.361
   Dihedral:        7   8   9  10       79.596       79.588
   Dihedral:        8   9  10  11      171.996      171.999
   Dihedral:        9  10  11  12      -92.916      -92.922
   Dihedral:       11  12  13  14       -5.980       -5.981
 Hessian Updated using BFGS Update

   Using Lagrange Multiplier Algorithm


163 Hessian modes will be used to form the next step
  Hessian Eigenvalues:
    -0.977754   -0.977753   -0.977753   -0.977753   -0.977753   -0.977753
    -0.977753   -0.977743   -0.976820    0.044712    0.045000    0.045000
     0.045000    0.045003    0.045012    0.045175    0.045533    0.045577
     0.045615    0.048885    0.048902    0.053690    0.059306    0.060059
     0.062648    0.062902    0.066591    0.067105    0.067125    0.067450
     0.068664    0.071140    0.071740    0.072983    0.073903    0.075605
     0.076072    0.076624    0.076801    0.082537    0.082585    0.083696
     0.084232    0.084523    0.084984    0.085611    0.085863    0.086702
     0.087028    0.087225    0.087256    0.088577    0.088778    0.089056
     0.089193    0.089640    0.089922    0.093928    0.094210    0.096645
     0.096720    0.111514    0.111581    0.114645    0.114671    0.115890
     0.115893    0.116693    0.116780    0.117541    0.118291    0.118964
     0.122312    0.125646    0.129703    0.130715    0.132019    0.139614
     0.140131    0.159914    0.160019    0.161567    0.171717    0.171955
     0.172531    0.173126    0.220345    0.221032    0.236053    0.238147
     0.241317    0.243928    0.248489    0.249945    0.249974    0.252599
     0.257808    0.259013    0.262066    0.267145    0.267405    0.278054
     0.280301    0.282419    0.289099    0.296209    0.298111    0.301879
     0.308673    0.310699    0.312043    0.318151    0.319939    0.321934
     0.322175    0.322507    0.322569    0.322732    0.322846    0.322931
     0.323365    0.323494    0.323670    0.323830    0.323836    0.323895
     0.324263    0.324450    0.324481    0.324636    0.324715    0.324902
     0.324923    0.324938    0.326753    0.326794    0.328753    0.331273
     0.369765    0.373545    0.386375    0.390476    0.402179    0.406933
     0.462576    0.492519    0.515123    0.523940    0.530300    0.536651
     0.933502    0.936218    0.942371    0.995248    1.022753    1.022753
     1.022753    1.022753    1.022753    1.022753    1.022753    1.022792
     1.033231

 Minimum Search - Taking P-RFO Step
 Searching for Lamda that Maximizes Along the Constraint modes Only
 Value Taken    Lamda =   0.00000623
 Searching for Lamda that Minimizes Along All other modes
 Value Taken    Lamda =  -0.03226543
 Calculated Step too Large.  Step scaled by  0.708952
 Step Taken.  Stepsize is  0.300000

                             Maximum     Tolerance    Cnvgd?
         Gradient            0.030161       0.000300      NO
         Displacement        0.073195       0.001200      NO
         Energy change     -0.037260       0.000001      NO


 New Cartesian Coordinates Obtained by Inverse Iteration

 Displacement from previous Coordinates is:  0.677576
 Adding empirical dispersion correction 
 ----------------------------------------------------------------
 Doing -D3(op) with
 s6 =   1.00000
 s8 =   0.78311
 a1 =   0.30000
 a2 =   4.25000
 n  =  10.00000
 -D3 energy without 3body term =     -0.0664014684 hartrees
 ----------------------------------------------------------------
             Standard Nuclear Orientation (Angstroms)
    I     Atom           X                Y                Z
 ----------------------------------------------------------------
    1      O      -5.3115664053     0.9645955890     1.4721811807
    2      C      -5.2753418264     0.4919482045     0.3159641413
    3      C      -4.5964074981    -0.8419959762    -0.1360670579
    4      C      -3.2159590568    -0.6795123990    -0.8733090868
    5      C      -2.6437971569     0.7775668622    -0.8553062627
    6      O      -1.2420845577     0.6744306757    -1.0335737214
    7      C      -0.5712988016     1.9858604768    -1.0476888366
    8      C       0.9000467216     1.7424582048    -1.5206403971
    9      O       1.8191623079     1.4796573259    -0.3971018790
   10      C       1.7230754546     0.1333666806     0.0589021520
   11      C       2.8514728509    -0.1514059424     1.1052807901
   12      C       4.1761152655    -0.7595047483     0.5018483571
   13      C       4.2777405842    -0.6745677284    -1.0576218042
   14      O       3.4125958626    -0.2866948275    -1.8716036593
   15      O      -5.8953452084     1.1053369328    -0.8054137560
   16      O       5.5532935005    -1.1483940933    -1.4591660118
   17      O       0.9494824118    -0.7271675777    -0.4164707838
   18      C       5.7085330686    -1.0889862012    -2.9136852914
   19      C       3.4299992328     1.1605859191     1.7918914606
   20      C       4.0762234740     0.7520723247     3.1672861311
   21      C       5.3430673816    -0.0278963238     2.6804454970
   22      C       5.2568681966     0.2152746016     1.1252314361
   23      O       4.6058381867     1.5290251228     0.9861550455
   24      H       2.4142301590    -0.7930278812     1.8919392959
   25      H       4.3326794692    -1.8151614761     0.7921006405
   26      H       2.6877638752     1.9755577215     1.8922209329
   27      H       4.3920279435     1.6751371455     3.6824721855
   28      H       3.4078650749     0.1858173315     3.8358828442
   29      H       6.2545792156     0.4322990193     3.0953591913
   30      H       5.3364520356    -1.1029936607     2.9230642748
   31      H       6.2371318296     0.1514867781     0.6133793936
   32      O      -3.2452139852     1.8486316934    -0.6247718081
   33      C      -6.5306259206     2.3677113594    -0.4303473730
[...]
     15  O        -5.9335435127    1.0364839204   -0.8683357223
     16  O         5.4894840061   -1.1489236184   -1.4864269778
     17  O         0.8471618483   -0.6693692844   -0.2389994273
     18  C         5.5236203621   -1.1497711254   -2.9680873579
     19  C         3.4247228827    1.1578753222    1.8826940411
     20  C         4.1438786942    0.7148199190    3.2162053996
     21  C         5.4600777596    0.0654257091    2.6475183721
     22  C         5.2751408374    0.3055123583    1.0969083848
     23  O         4.5485665736    1.5931710295    1.0200061576
     24  H         2.4570853704   -0.8599949682    1.8964204084
     25  H         4.4126197096   -1.7591049567    0.8913196521
     26  H         2.6812892381    1.9703353223    1.9895290010
     27  H         4.3669170410    1.5937541196    3.8419847104
     28  H         3.5370684336    0.0076342290    3.8040599411
     29  H         6.3596539851    0.5859720237    3.0122953279
     30  H         5.5475561944   -1.0051240243    2.8931181826
     31  H         6.2109125128    0.3448067088    0.5062163674
     32  O        -3.2534376446    1.8391740905   -0.6413366071
     33  C        -6.5115983566    2.3577581622   -0.5406751844
     34  C        -4.1565191900   -1.7387975408    1.0924490476
     35  C        -4.0186315652   -3.2297068108    0.5932987992
     36  C        -2.6883306896   -3.1419155668   -0.2440248951
     37  C        -2.2629355999   -1.6400351740    0.0003493488
     38  O        -2.7547407563   -1.3474382773    1.3682824754
     39  H        -5.2908351854   -1.3719566749   -0.8033042692
     40  H        -3.2283745571   -1.0197007577   -1.9416765743
     41  H        -5.7139150510    3.1012379244   -0.3366639929
     42  H        -4.7842045273   -1.5872233218    1.9919760715
     43  H        -3.9096424840   -3.9116279245    1.4518647020
     44  H        -4.8829007070   -3.5545006745   -0.0078027153
     45  H        -1.9189205153   -3.8292193830    0.1418439287
     46  H        -2.8465696397   -3.3554585641   -1.3132541185
     47  H        -1.1774378566   -1.4164420913   -0.0872184254
     48  H        -7.1815899734    2.3060474808    0.3418725612
     49  H        -7.0907379623    2.6704394103   -1.4290109901
     50  H         6.5461615918   -1.4622201717   -3.2489810314
     51  H         5.3155718677   -0.1414006661   -3.3803404250
     52  H         4.7870984732   -1.8628728656   -3.3917109691
     53  H         0.9437360732    0.9612762264   -2.1947476666
     54  H         1.3141840028    2.7139964812   -1.9099454172
     55  H        -0.5786122699    2.4564594296    0.0421146096
     56  H        -1.0796489179    2.7196684734   -1.6677513407
   Point Group: c1    Number of degrees of freedom:   162


   Energy is  -1510.285990317

              Constraints and their Current Values
                                        Value     Constraint
   Dihedral:        1   2   3   4     -102.960     -102.960
   Dihedral:        3   4   5   6      156.474      156.474
   Dihedral:        4   5   6   7      179.532      179.532
   Dihedral:        5   6   7   8     -169.359     -169.359
   Dihedral:        6   7   8   9      -90.361      -90.361
   Dihedral:        7   8   9  10       79.588       79.588
   Dihedral:        8   9  10  11      171.999      171.999
   Dihedral:        9  10  11  12      -92.922      -92.922
   Dihedral:       11  12  13  14       -5.981       -5.981
 Hessian Updated using BFGS Update

153 Hessian modes will be used to form the next step
  Hessian Eigenvalues:
     0.003199    0.008242    0.020771    0.023709    0.044966    0.045026
     0.045043    0.045195    0.045315    0.045718    0.046439    0.047661
     0.048964    0.056436    0.059509    0.061887    0.063063    0.065526
     0.066626    0.066976    0.067202    0.068584    0.070761    0.071367
     0.071737    0.074075    0.075774    0.076132    0.076664    0.077972
     0.081863    0.082364    0.082660    0.083880    0.084477    0.084838
     0.085337    0.085864    0.086585    0.087227    0.087512    0.087885
     0.088882    0.088958    0.089176    0.089696    0.089997    0.091379
     0.093864    0.094240    0.096684    0.096742    0.111546    0.111620
     0.114678    0.114741    0.115878    0.115893    0.116083    0.116952
     0.117942    0.120577    0.121230    0.122599    0.126029    0.130444
     0.131547    0.132119    0.157700    0.158163    0.159893    0.160003
     0.160028    0.160364    0.160952    0.161587    0.171928    0.172753
     0.194322    0.199374    0.221383    0.228198    0.235873    0.237913
     0.241010    0.244947    0.248006    0.249035    0.250147    0.251136
     0.252491    0.252901    0.254925    0.262140    0.266607    0.266728
     0.274081    0.277780    0.279510    0.282542    0.285969    0.295733
     0.297319    0.300294    0.307368    0.309214    0.316274    0.319461
     0.320961    0.321931    0.322152    0.322526    0.322596    0.322712
     0.322866    0.322926    0.323371    0.323622    0.323762    0.323863
     0.323888    0.324043    0.324327    0.324391    0.324561    0.324668
     0.324777    0.324906    0.324931    0.325635    0.326783    0.327034
     0.328743    0.331343    0.343396    0.361760    0.367813    0.373168
     0.380104    0.391612    0.408267    0.417878    0.463615    0.494863
     0.510743    0.530280    0.534820    0.539920    0.761035    0.934738
     0.939694    0.942583    1.019329

 Minimum Search - Taking Simple RFO Step
 Searching for Lamda that Minimizes Along All modes
 Value Taken    Lamda =   0.00000000
 Step Taken.  Stepsize is  0.003756

                             Maximum     Tolerance    Cnvgd?
         Gradient           0.000050      0.000300     YES
         Displacement       0.000922      0.001200     YES
         Energy change     -0.000001      0.000001     YES

 Final energy is   -1510.28599031732     


 ******************************
 **  OPTIMIZATION CONVERGED  **
 ******************************

                       Coordinates (Angstroms)
     ATOM                X               Y               Z
      1  O        -5.2701928280    1.0240553642    1.4146430316
      2  C        -5.2319617450    0.5186913702    0.2726696744
      3  C        -4.5721889988   -0.8439132838   -0.1513486235
      4  C        -3.1794464994   -0.6921398852   -0.8868983625
      5  C        -2.6216982169    0.7758108027   -0.8325319989
      6  O        -1.2123976633    0.6907447827   -1.0006948247
      7  C        -0.5601212102    2.0167060826   -0.9798474323
      8  C         0.9228720738    1.7847029988   -1.4484380550
      9  O         1.8379609296    1.5031338909   -0.3197799466
     10  C         1.7371313081    0.1359364222    0.1098923336
     11  C         2.8736455806   -0.1457981472    1.1634071228
     12  C         4.2069621209   -0.7316614915    0.5398774615
     13  C         4.2034917126   -0.7307784887   -1.0269654129
     14  O         3.2556275325   -0.4278269791   -1.7862570119
     15  O        -5.9335435127    1.0364839204   -0.8683357223
     16  O         5.4894840061   -1.1489236184   -1.4864269778
     17  O         0.8471618483   -0.6693692844   -0.2389994273
     18  C         5.5236203621   -1.1497711254   -2.9680873579
     19  C         3.4247228827    1.1578753222    1.8826940411
     20  C         4.1438786942    0.7148199190    3.2162053996
     21  C         5.4600777596    0.0654257091    2.6475183721
     22  C         5.2751408374    0.3055123583    1.0969083848
     23  O         4.5485665736    1.5931710295    1.0200061576
     24  H         2.4570853704   -0.8599949682    1.8964204084
     25  H         4.4126197096   -1.7591049567    0.8913196521
     26  H         2.6812892381    1.9703353223    1.9895290010
     27  H         4.3669170410    1.5937541196    3.8419847104
     28  H         3.5370684336    0.0076342290    3.8040599411
     29  H         6.3596539851    0.5859720237    3.0122953279
     30  H         5.5475561944   -1.0051240243    2.8931181826
     31  H         6.2109125128    0.3448067088    0.5062163674
     32  O        -3.2534376446    1.8391740905   -0.6413366071
     33  C        -6.5115983566    2.3577581622   -0.5406751844
     34  C        -4.1565191900   -1.7387975408    1.0924490476
     35  C        -4.0186315652   -3.2297068108    0.5932987992
     36  C        -2.6883306896   -3.1419155668   -0.2440248951
     37  C        -2.2629355999   -1.6400351740    0.0003493488
     38  O        -2.7547407563   -1.3474382773    1.3682824754
     39  H        -5.2908351854   -1.3719566749   -0.8033042692
     40  H        -3.2283745571   -1.0197007577   -1.9416765743
     41  H        -5.7139150510    3.1012379244   -0.3366639929
     42  H        -4.7842045273   -1.5872233218    1.9919760715
     43  H        -3.9096424840   -3.9116279245    1.4518647020
     44  H        -4.8829007070   -3.5545006745   -0.0078027153
     45  H        -1.9189205153   -3.8292193830    0.1418439287
     46  H        -2.8465696397   -3.3554585641   -1.3132541185
     47  H        -1.1774378566   -1.4164420913   -0.0872184254
     48  H        -7.1815899734    2.3060474808    0.3418725612
     49  H        -7.0907379623    2.6704394103   -1.4290109901
     50  H         6.5461615918   -1.4622201717   -3.2489810314
     51  H         5.3155718677   -0.1414006661   -3.3803404250
     52  H         4.7870984732   -1.8628728656   -3.3917109691
     53  H         0.9437360732    0.9612762264   -2.1947476666
     54  H         1.3141840028    2.7139964812   -1.9099454172
     55  H        -0.5786122699    2.4564594296    0.0421146096
     56  H        -1.0796489179    2.7196684734   -1.6677513407

Z-matrix Print:
$molecule
0 1
O 
C  1 1.421845
O  2 1.251556 1 124.695123
C  1 1.477861 2 112.465329 3 -2.302210 0
H  4 1.112330 1 110.618728 2 -49.460383 0
H  4 1.112714 1 111.113008 2 70.597415 0
C  2 1.571279 1 106.968566 3 -178.165844 0
H  7 1.105553 2 108.997289 1 -78.409491 0
C  4 1.572473 1 106.240549 2 -169.359009 0
H  9 1.108919 4 109.461595 1 153.280955 0
H  9 1.111506 4 109.092255 1 33.411811 0
O  9 1.480047 4 112.576897 1 -90.360949 0
C  12 1.436668 9 111.451968 4 79.587963 0
O  13 1.249915 12 125.424093 9 -11.763572 0
C  13 1.575098 12 108.639762 9 171.998986 0
H  15 1.104947 13 106.696754 12 145.518804 0
C  7 1.582340 2 112.703223 1 156.473995 0
H  17 1.104685 7 110.127003 2 130.723227 0
C  17 1.572191 7 114.305867 2 9.616710 0
O  19 1.249383 17 127.583957 7 -102.960054 0
O  19 1.436043 17 107.652014 7 83.472165 0
C  21 1.478944 19 109.697259 17 -176.923397 0
H  22 1.105583 21 106.224186 19 -176.335582 0
H  22 1.109258 21 111.758774 19 -56.797467 0
H  22 1.109361 21 111.004282 19 64.631105 0
C  15 1.584222 13 114.215384 12 -92.922015 0
H  26 1.105191 15 112.039786 13 -115.154409 0
C  26 1.566847 15 113.048729 13 7.950156 0
O  28 1.251699 26 127.475415 15 -5.980980 0
O  28 1.428190 26 108.635640 15 174.297573 0
C  30 1.482054 28 110.031144 26 -179.589804 0
H  31 1.105494 30 105.991091 28 178.943348 0
H  31 1.109075 30 111.516523 28 59.686416 0
H  31 1.109250 30 111.522932 28 -61.840829 0
C  15 1.587647 13 113.991738 12 22.419518 0
H  35 1.106435 15 114.423891 13 30.095207 0
O  35 1.482139 15 103.925183 13 -90.479837 0
C  37 1.480503 35 94.959482 15 -55.972983 0
H  38 1.107307 37 110.864767 35 179.862537 0
C  35 1.578523 15 108.082924 13 160.323202 0
H  40 1.101758 35 110.373541 15 -168.942900 0
H  40 1.101773 35 112.332113 15 -47.465860 0
C  40 1.574007 35 101.043086 15 73.071538 0
H  43 1.101484 40 111.610802 35 119.450833 0
H  43 1.101839 40 112.750177 35 -117.869299 0
C  17 1.587650 7 100.824008 2 -111.634470 0
H  46 1.107300 17 114.258328 7 151.408327 0
O  46 1.481293 17 104.165550 7 30.841500 0
C  48 1.482810 46 95.160642 17 -55.519959 0
H  49 1.111741 48 110.905017 46 179.537611 0
C  46 1.578282 17 107.912095 7 -78.203800 0
H  51 1.101715 46 112.488938 17 -48.348073 0
H  51 1.101830 46 110.294256 17 -169.860453 0
C  51 1.574331 46 100.915048 17 72.232771 0
H  54 1.101487 51 111.661988 46 120.983058 0
H  54 1.101767 51 112.580686 46 -116.515212 0
$end

 
 --------------------------------------------------------------
 
                    Orbital Energies (a.u.)
 --------------------------------------------------------------
 
 Alpha MOs
 -- Occupied --
-18.945 -18.933 -18.924 -18.913 -18.887 -18.887 -18.874 -18.872
-18.866 -18.854 -10.108 -10.096 -10.095 -10.082 -10.072 -10.071
-10.071 -10.061 -10.058 -10.048 -10.046 -10.042 -10.040 -10.034
-10.028 -10.023 -10.021 -10.019 -10.010 -10.008  -1.022  -1.013
 -1.000  -0.990  -0.970  -0.956  -0.945  -0.936  -0.929  -0.917
 -0.763  -0.752  -0.725  -0.719  -0.710  -0.701  -0.687  -0.668
 -0.647  -0.612  -0.594  -0.575  -0.546  -0.537  -0.533  -0.526
 -0.513  -0.505  -0.485  -0.475  -0.463  -0.448  -0.445  -0.444
 -0.434  -0.420  -0.418  -0.416  -0.412  -0.405  -0.397  -0.394
 -0.392  -0.380  -0.376  -0.365  -0.358  -0.354  -0.349  -0.340
 -0.338  -0.335  -0.331  -0.326  -0.324  -0.322  -0.314  -0.310
 -0.307  -0.303  -0.300  -0.295  -0.290  -0.280  -0.278  -0.267
 -0.262  -0.262  -0.247  -0.243  -0.237  -0.234  -0.221  -0.187
 -0.176  -0.168  -0.162  -0.158  -0.153  -0.145  -0.139  -0.134
 -0.131
 -- Virtual --
  0.092   0.103   0.109   0.122   0.236   0.244   0.245   0.252
  0.256   0.279   0.285   0.298   0.308   0.317   0.327   0.334
  0.343   0.344   0.345   0.350   0.354   0.366   0.371   0.374
  0.378   0.390   0.394   0.402   0.408   0.410   0.414   0.417
  0.418   0.419   0.422   0.424   0.429   0.430   0.435   0.436
  0.439   0.443   0.445   0.447   0.452   0.454   0.457   0.467
  0.468   0.474   0.482   0.490   0.498   0.506   0.521   0.535
  0.550   0.553   0.566   0.635   0.648   0.656   0.665
 --------------------------------------------------------------
 
          Ground-State Mulliken Net Atomic Charges

     Atom                 Charge (a.u.)
  ----------------------------------------
      1 O                    -0.218859
      2 C                     0.213621
      3 C                    -0.082568
      4 C                    -0.077024
      5 C                     0.214337
      6 O                    -0.165668
      7 C                    -0.047755
      8 C                    -0.045832
      9 O                    -0.172758
     10 C                     0.218368
     11 C                    -0.081771
     12 C                    -0.077860
     13 C                     0.215144
     14 O                    -0.208896
     15 O                    -0.174384
     16 O                    -0.168853
     17 O                    -0.214012
     18 C                    -0.127988
     19 C                     0.025933
     20 C                    -0.143762
     21 C                    -0.144204
     22 C                     0.024515
     23 O                    -0.189464
     24 H                     0.084108
     25 H                     0.087548
     26 H                     0.088552
     27 H                     0.078023
     28 H                     0.074434
     29 H                     0.078191
     30 H                     0.073698
     31 H                     0.086626
     32 O                    -0.213069
     33 C                    -0.128156
     34 C                     0.023977
     35 C                    -0.143748
     36 C                    -0.144992
     37 C                     0.016108
     38 O                    -0.193876
     39 H                     0.081952
     40 H                     0.084132
     41 H                     0.091668
     42 H                     0.085318
     43 H                     0.075332
     44 H                     0.070883
     45 H                     0.076280
     46 H                     0.070946
     47 H                     0.108962
     48 H                     0.085749
     49 H                     0.084781
     50 H                     0.092478
     51 H                     0.091529
     52 H                     0.090731
     53 H                     0.102052
     54 H                     0.089941
     55 H                     0.090725
     56 H                     0.088859
  ----------------------------------------
  Sum of atomic charges =    -0.000000

 -----------------------------------------------------------------
                    Cartesian Multipole Moments
 -----------------------------------------------------------------
    Charge (ESU x 10^10)
                 0.0000
    Dipole Moment (Debye)
         X       2.7986      Y      -1.3547      Z      -1.7080
       Tot       3.5475
    Quadrupole Moments (Debye-Ang)
        XX    -148.9917     XY      -1.8023     YY    -155.1092
        XZ       5.2287     YZ      -1.9440     ZZ    -153.4579
    Octopole Moments (Debye-Ang^2)
       XXX      34.8516    XXY     -39.5217    XYY     -26.3990
       YYY      15.7036    XXZ     -46.5844    XYZ      10.7059
       YYZ     -16.1300    XZZ      53.7545    YZZ       2.9797
       ZZZ     -36.2886
    Hexadecapole Moments (Debye-Ang^3)
      XXXX  -14801.1634   XXXY    -216.2411   XXYY   -2893.7169
      XYYY     -84.7885   YYYY   -2292.0688   XXXZ    -323.4188
      XXYZ     -16.1986   XYYZ     -83.0782   YYYZ     -32.5503
      XXZZ   -2773.4260   XYZZ     -15.1944   YYZZ    -698.2979
      XZZZ    -300.5230   YZZZ       9.6605   ZZZZ   -2032.1199
 -----------------------------------------------------------------
Archival summary:
1\1\vega02.cac.cornell.edu\OPT\ProcedureUnspecified\STO-3G\102026\jj585\MonJan1513:18:532018MonJan1513:18:532018\0\\#,OPT,ProcedureUnspecified,STO-3G,\\0,1\O\C,1,1.42184\O,2,1.25156,1,124.695\C,1,1.47786,2,112.465,3,-2.30221,0\H,4,1.11233,1,110.619,2,-49.4604,0\H,4,1.11271,1,111.113,2,70.5974,0\C,2,1.57128,1,106.969,3,-178.166,0\H,7,1.10555,2,108.997,1,-78.4095,0\C,4,1.57247,1,106.241,2,-169.359,0\H,9,1.10892,4,109.462,1,153.281,0\H,9,1.11151,4,109.092,1,33.4118,0\O,9,1.48005,4,112.577,1,-90.3609,0\C,12,1.43667,9,111.452,4,79.588,0\O,13,1.24992,12,125.424,9,-11.7636,0\C,13,1.5751,12,108.64,9,171.999,0\H,15,1.10495,13,106.697,12,145.519,0\C,7,1.58234,2,112.703,1,156.474,0\H,17,1.10468,7,110.127,2,130.723,0\C,17,1.57219,7,114.306,2,9.61671,0\O,19,1.24938,17,127.584,7,-102.96,0\O,19,1.43604,17,107.652,7,83.4722,0\C,21,1.47894,19,109.697,17,-176.923,0\H,22,1.10558,21,106.224,19,-176.336,0\H,22,1.10926,21,111.759,19,-56.7975,0\H,22,1.10936,21,111.004,19,64.6311,0\C,15,1.58422,13,114.215,12,-92.922,0\H,26,1.10519,15,112.04,13,-115.154,0\C,26,1.56685,15,113.049,13,7.95016,0\O,28,1.2517,26,127.475,15,-5.98098,0\O,28,1.42819,26,108.636,15,174.298,0\C,30,1.48205,28,110.031,26,-179.59,0\H,31,1.10549,30,105.991,28,178.943,0\H,31,1.10908,30,111.517,28,59.6864,0\H,31,1.10925,30,111.523,28,-61.8408,0\C,15,1.58765,13,113.992,12,22.4195,0\H,35,1.10644,15,114.424,13,30.0952,0\O,35,1.48214,15,103.925,13,-90.4798,0\C,37,1.4805,35,94.9595,15,-55.973,0\H,38,1.10731,37,110.865,35,179.863,0\C,35,1.57852,15,108.083,13,160.323,0\H,40,1.10176,35,110.374,15,-168.943,0\H,40,1.10177,35,112.332,15,-47.4659,0\C,40,1.57401,35,101.043,15,73.0715,0\H,43,1.10148,40,111.611,35,119.451,0\H,43,1.10184,40,112.75,35,-117.869,0\C,17,1.58765,7,100.824,2,-111.634,0\H,46,1.1073,17,114.258,7,151.408,0\O,46,1.48129,17,104.166,7,30.8415,0\C,48,1.48281,46,95.1606,17,-55.52,0\H,49,1.11174,48,110.905,46,179.538,0\C,46,1.57828,17,107.912,7,-78.2038,0\H,51,1.10171,46,112.489,17,-48.3481,0\H,51,1.10183,46,110.294,17,-169.86,0\C,51,1.57433,46,100.915,17,72.2328,0\H,54,1.10149,51,111.662,46,120.983,0\H,54,1.10177,51,112.581,46,-116.515,0\\\@

 Total job time:  51.28s(wall), 2439.71s(cpu) 
 Mon Jan 15 13:18:53 2018

        *************************************************************
        *                                                           *
        *  Thank you very much for using Q-Chem.  Have a nice day.  *
        *                                                           *
        *************************************************************


0 sent ACK to 0 
now end server 0 ... 
