mFile = /opt/software/qchem/qchem-5.0.1//bin/mpi/machines
Process 0 of 1 is on vega02.cac.cornell.edu - thread support 0
initial socket setup ...start
initial socket setup ...done 
now start server 0 ... 
vega02.cac.cornell.edu 10.84.3
Q-Chem Developer Version! Running on 10.84.3.*
                  Welcome to Q-Chem
     A Quantum Leap Into The Future Of Chemistry


 Q-Chem 5.0, Q-Chem, Inc., Pleasanton, CA (2017)

 Yihan Shao,  Zhengting Gan,  E. Epifanovsky,  A. T. B. Gilbert,  M. Wormit,  
 J. Kussmann,  A. W. Lange,  A. Behn,  Jia Deng,  Xintian Feng,  D. Ghosh,  
 M. Goldey,  P. R. Horn,  L. D. Jacobson,  I. Kaliman,  T. Kus,  A. Landau,  
 Jie Liu,  E. I. Proynov,  R. M. Richard,  R. P. Steele,  E. J. Sundstrom,  
 H. L. Woodcock III,  P. M. Zimmerman,  D. Zuev,  B. Albrecht,  E. Alguire,  
 S. A. Baeppler,  Z. Benda,  Y. A. Bernard,  E. J. Berquist,  K. B. Bravaya,  
 D. Casanova,  Chun-Min Chang,  Yunqing Chen,  A. Chien,  K. D. Closser,  
 M. P. Coons,  S. Dasgupta,  M. Diedenhofen,  Hainam Do,  R. G. Edgar,  
 Po-Tung Fang,  S. Fatehi,  Qingguo Feng,  Qinghui Ge,  A. Ghysels,  
 J. Gomes,  J. Gonthier,  A. Gunina,  M. W. D. Hanson-Heine,  
 P. H. P. Harbach,  A. W. Hauser,  J. E. Herr,  E. G. Hohenstein,  
 Z. C. Holden,  Kerwin Hui,  T.-C. Jagau,  Hyunjun Ji,  B. Kaduk,  
 K. Khistyaev,  Jaehoon Kim,  P. Klunzinger,  K. Koh,  D. Kosenkov,  
 T. Kowalczyk,  C. M. Krauter,  A. Kunitsa,  Ka Un Lao,  A. Laurent,  
 K. V. Lawler,  Joonho Lee,  D. Lefrancois,  S. Lehtola,  D. S. Levine,  
 Yi-Pei Li,  You-Sheng Lin,  Fenglai Liu,  E. Livshits,  A. Luenser,  
 P. Manohar,  E. Mansoor,  S. F. Manzer,  Shan-Ping Mao,  Yuezhi Mao,  
 N. Mardirossian,  A. V. Marenich,  L. A. Martinez-Martinez,  S. A. Maurer,  
 N. J. Mayhall,  S. C. McKenzie,  J.-M. Mewes,  A. F. Morrison,  K. Nanda,  
 T. S. Nguyen-Beck,  R. Olivares-Amaya,  J. A. Parkhill,  T. M. Perrine,  
 F. Plasser,  S. Prager,  A. Prociuk,  D. R. Rehn,  F. Rob,  M. Schneider,  
 N. Sergueev,  S. M. Sharada,  S. Sharma,  D. W. Small,  T. Stauch,  
 T. Stein,  Yu-Chuan Su,  A. J. W. Thom,  T. Tsuchimochi,  L. Vogt,  
 O. Vydrov,  M. A. Watson,  J. Wenzel,  M. de Wergifosse,  T. A. Wesolowski,  
 A. White,  J. Witte,  A. Yamada,  Jun Yang,  K. Yao,  S. Yeganeh,  
 S. R. Yost,  Zhi-Qiang You,  A. Zech,  Igor Ying Zhang,  Xing Zhang,  
 Yan Zhao,  Ying Zhu,  B. R. Brooks,  G. K. L. Chan,  C. J. Cramer,  
 M. S. Gordon,  W. J. Hehre,  A. Klamt,  M. W. Schmidt,  C. D. Sherrill,  
 D. G. Truhlar,  A. Aspuru-Guzik,  R. Baer,  A. T. Bell,  N. A. Besley,  
 Jeng-Da Chai,  A. Dreuw,  B. D. Dunietz,  T. R. Furlani,  Chao-Ping Hsu,  
 Yousung Jung,  Jing Kong,  D. S. Lambrecht,  WanZhen Liang,  C. Ochsenfeld,  
 V. A. Rassolov,  L. V. Slipchenko,  J. E. Subotnik,  T. Van Voorhis,  
 J. M. Herbert,  A. I. Krylov,  P. M. W. Gill,  M. Head-Gordon

 Contributors to earlier versions of Q-Chem not listed above: 
 R. D. Adamson,  B. Austin,  J. Baker,  G. J. O. Beran,  K. Brandhorst,  
 S. T. Brown,  E. F. C. Byrd,  A. K. Chakraborty,  C.-L. Cheng,  
 Siu Hung Chien,  D. M. Chipman,  D. L. Crittenden,  H. Dachsel,  
 R. A. DiStasio Jr.,  R. J. Doerksen,  A. D. Dutoi,  L. Fusti-Molnar,  
 W. A. Goddard III,  A. Golubeva-Zadorozhnaya,  S. R. Gwaltney,  G. Hawkins,  
 A. Heyden,  S. Hirata,  G. Kedziora,  F. J. Keil,  C. Kelley,  Jihan Kim,  
 R. A. King,  R. Z. Khaliullin,  P. P. Korambath,  W. Kurlancheek,  
 A. M. Lee,  M. S. Lee,  S. V. Levchenko,  Ching Yeh Lin,  D. Liotard,  
 R. C. Lochan,  I. Lotan,  P. E. Maslen,  N. Nair,  D. P. O'Neill,  
 D. Neuhauser,  E. Neuscamman,  C. M. Oana,  R. Olson,  B. Peters,  
 R. Peverati,  P. A. Pieniazek,  Y. M. Rhee,  J. Ritchie,  M. A. Rohrdanz,  
 E. Rosta,  N. J. Russ,  H. F. Schaefer III,  N. E. Schultz,  N. Shenvi,  
 A. C. Simmonett,  A. Sodt,  D. Stuck,  K. S. Thanthiriwatte,  V. Vanovschi,  
 Tao Wang,  A. Warshel,  C. F. Williams,  Q. Wu,  X. Xu,  W. Zhang

 Please cite Q-Chem as follows:
 Y. Shao et al., Mol. Phys. 113, 184-215 (2015)
 DOI: 10.1080/00268976.2014.952696

 Q-Chem 5.0.1 for Intel X86 EM64T Linux

 Parts of Q-Chem use Armadillo 5.200.1 (Boston Tea Smuggler).
 http://arma.sourceforge.net/

 Q-Chem begins on Mon Jan 15 13:57:25 2018  

Host: vega02.cac.cornell.edu
0

     Scratch files written to /scratch/jj585/SOT1001/0817c.save//
 Parallel job on  1  processors

Checking the input file for inconsistencies... 	...done.

--------------------------------------------------------------
User input:
--------------------------------------------------------------
$molecule
0  1
O -3.94934 -3.66094 2.70899
C -3.26408 -4.56952 2.26188
C -3.36658 -6.02376 2.66595
C -2.27333 -6.57303 3.59705
C -1.29943 -5.56331 4.16282
O -0.10303 -5.65673 3.51066
C 0.31183 -4.4226 2.91562
C 0.09109 -4.46603 1.40714
O 1.34571 -4.65565 0.73418
C 1.27894 -4.71112 -0.61918
C 1.42018 -6.11476 -1.15819
C 0.90999 -6.3115 -2.59321
C 0.67432 -5.04428 -3.39028
O -0.41842 -4.5539 -3.63522
O -2.73681 -4.3657 1.02784
O 1.78186 -4.343 -3.76198
O 0.83294 -3.74738 -1.22246
C 1.75684 -3.15613 -4.46419
C 2.86788 -6.6189 -1.2968
C 2.87772 -8.14651 -1.24788
C 2.22825 -8.47886 -2.57954
C 2.10807 -7.07498 -3.18645
O 3.20462 -6.37624 -2.64173
H 0.86441 -6.78102 -0.45812
H -0.04679 -6.8796 -2.60334
H 3.55572 -6.19701 -0.53208
H 3.94541 -8.46136 -1.28501
H 2.39474 -8.60508 -0.35825
H 2.93334 -9.10904 -3.16552
H 1.23546 -8.97459 -2.51325
H 2.06108 -7.1249 -4.29668
O -1.63289 -4.61198 4.85992
C -2.84928 -3.19051 0.30892
C -4.61011 -6.2974 3.54443
C -4.98954 -7.77735 3.47697
C -3.87822 -8.3917 4.30088
C -3.13183 -7.12984 4.74351
O -4.14598 -6.16303 4.86545
H -3.47221 -6.61909 1.73027
H -1.68842 -7.37604 3.092
H -2.40445 -2.34583 0.87743
H -5.48868 -5.67411 3.26783
H -5.94777 -7.90084 4.03088
H -5.10433 -8.1871 2.45044
H -4.33177 -8.89665 5.18278
H -3.21809 -9.10093 3.75618
H -2.53406 -7.33268 5.65977
H -3.91766 -2.97293 0.09667
H -2.30949 -3.30019 -0.65418
H 2.79762 -2.81082 -4.63122
H 1.21052 -2.38014 -3.88673
H 1.2669 -3.30613 -5.44997
H -0.61626 -5.27467 1.13432
H -0.28189 -3.4694 1.08821
H 1.35452 -4.15833 3.1927
H -0.29634 -3.55951 3.27566
$end

$opt
CONSTRAINT
tors           1           2           3           4    -104.211
tors           3           4           5           6    -104.211
tors           4           5           6           7    +123.158
tors           5           6           7           8    -104.211
tors           6           7           8           9    -104.211
tors           7           8           9          10    -180.000
tors           8           9          10          11    -104.211
tors           9          10          11          12    +161.053
tors          11          12          13          14    -104.211
ENDCONSTRAINT
$end

$rem
JOBTYPE                   OPT
METHOD                    B3LYP
DFT_D                     d3_op
BASIS                     STO-3G
GEOM_OPT_MAX_CYCLES       100
GEOM_OPT_TOL_GRADIENT     300
GEOM_OPT_TOL_DISPLACEMENT 1200
GEOM_OPT_TOL_ENERGY       100
SYMMETRY                  False
THRESH                    12
SCF_CONVERGENCE           8
MAX_SUB_FILE_NUM          128
MEM_STATIC                400
MEM_TOTAL                 4000
$end
--------------------------------------------------------------
 Adding empirical dispersion correction 
 ----------------------------------------------------------------
 Doing -D3(op) with
 s6 =   1.00000
 s8 =   0.78311
 a1 =   0.30000
 a2 =   4.25000
 n  =  10.00000
 -D3 energy without 3body term =     -0.0698854102 hartrees
 ----------------------------------------------------------------
             Standard Nuclear Orientation (Angstroms)
    I     Atom           X                Y                Z
 ----------------------------------------------------------------
    1      O       3.5951879290    -2.4817097468    -0.1221094260
    2      C       2.8686803091    -1.5249299213    -0.3496292708
    3      C       3.3255218871    -0.1877711525    -0.8899023427
    4      C       3.4080939640     0.9811127069     0.1054532123
    5      C       3.1959103080     0.6411265665     1.5640480504
    6      O       1.9494822587     1.0383625438     1.9565192191
    7      C       1.1613095648    -0.0291743948     2.4935545693
    8      C       0.1176181626    -0.4758059482     1.4750494219
    9      O      -1.1760591514     0.0238563575     1.8487322259
   10      C      -2.1927613924    -0.3090511182     1.0153009995
   11      C      -2.6286718248     0.8359532414     0.1323327789
   12      C      -3.4276352770     0.4251310320    -1.1131251203
   13      C      -3.9735020072    -0.9886348106    -1.1113595300
   14      O      -3.5153872146    -1.9261125980    -1.7483957068
   15      O       1.5643637691    -1.8121655768    -0.5918378759
   16      O      -4.9870004441    -1.2497512277    -0.2388696933
   17      O      -2.4405977230    -1.4918931540     0.8388940336
   18      C      -5.5845787357    -2.4827382655    -0.0806659276
   19      C      -3.6063184120     1.8293086096     0.7855229693
   20      C      -3.4935142290     3.1833643649     0.0856011650
   21      C      -4.1181408414     2.8617127776    -1.2604924463
   22      C      -4.5935855125     1.4250372609    -1.0083459428
   23      O      -4.8817476299     1.4016110656     0.3714341759
   24      H      -1.7009351044     1.3766188599    -0.1674437245
   25      H      -2.8137466244     0.5309615950    -2.0351928019
   26      H      -3.4545869184     1.9397375544     1.8812851324
   27      H      -4.1665089025     3.8831552718     0.6313501470
   28      H      -2.4731559847     3.6214317494     0.0412877109
   29      H      -4.9804575014     3.5464854181    -1.4190727399
   30      H      -3.4258840568     2.9095655297    -2.1289768961
   31      H      -5.4322210562     1.1589649512    -1.6889388243
   32      O       3.8985088688    -0.1446573623     2.1894052524
   33      C       1.0083996942    -3.0748416971    -0.5074579840
   34      C       4.7978758188    -0.2235868312    -1.3630449827
   35      C       5.0577418535     0.9000831482    -2.3673384660
   36      C       5.0485380229     2.1052165834    -1.4514484912
   37      C       4.8672689168     1.4198131751    -0.0939973179
   38      O       5.5392536580     0.1932680113    -0.2427072060
   39      H       2.6887520457     0.0454702676    -1.7737548062
   40      H       2.6926775892     1.7895273433    -0.1714320652
   41      H       1.1343555508    -3.4846445704     0.5176070766
   42      H       5.0916755084    -1.1986651066    -1.8100207407
   43      H       6.0912504789     0.7637933479    -2.7592004476
   44      H       4.3456344715     0.9433619230    -3.2193159725
   45      H       6.0470760707     2.5938205593    -1.5026113368
   46      H       4.2505624649     2.8517250365    -1.6550093865
   47      H       5.2264531177     2.0801943328     0.7263007148
   48      H       1.4914546562    -3.7550557316    -1.2408021830
   49      H      -0.0747364753    -3.0116194750    -0.7393707811
   50      H      -6.3775645710    -2.4057881259     0.6910938579
   51      H      -4.8348461097    -3.2328593795     0.2499477107
   52      H      -6.0463633209    -2.8086286786    -1.0371458529
   53      H       0.3839591703    -0.1268208358     0.4572354490
   54      H       0.0457854135    -1.5833177316     1.5236239826
   55      H       0.7195635194     0.2357681287     3.4776685292
   56      H       1.7742703841    -0.9376006965     2.7020361915
 ----------------------------------------------------------------
 Molecular Point Group                 C1    NOp =  1
 Largest Abelian Subgroup              C1    NOp =  1
 Nuclear Repulsion Energy =  3212.3334228392 hartrees
 There are      113 alpha and      113 beta electrons
 Requested basis set is STO-3G
 There are 86 shells and 176 basis functions

 Total QAlloc Memory Limit   4000 MB
 Mega-Array Size       392 MB
 MEM_STATIC part       400 MB
 A cutoff of  1.0D-12 yielded   2256 shell pairs
 There are     10467 function pairs
 
 -------------------------------------------------------
 OpenMP Integral Computing Module                       
 Release: version 1.0, May 2013, Q-Chem Inc. Pittsburgh 
 -------------------------------------------------------
 Integral Job Info:
 Integral job number is                      11
 Integral operator is                         1
 short-range coefficients                     0
 long-range coefficients              100000000
 Omega coefficients                           0
 if combine SR and LR in K                    0
 Integral screening is                        0
 Integral computing path is                   2
 max size of driver memory is            800000
 size of driver memory is                 45569
 size of scratch memory is              1046100
 max col of scratch BK array                289
 max len of scratch array in speh3           22
 max len of scratch index in speh4            8
 max int batch size is                      520
 min int batch size is                       52
 fixed nKL is                                52
 max L of basis functions is                  1
 order of int derivative is                   0
 number of shells is                         86
 number of basis is                         176
 number of cartesian basis is               176
 number of contracted shell pairs          2256
 number of primitive shell pairs          11472
 maxK2 (contraction) of shell pair            9
 max number of K2 of shell pair               1
 max number of CS2 of shell pair            336
 max number of PS2 of shell pair           1272
 mem total for path MDJ                   52746
 -------------------------------------------------------
 Smallest overlap matrix eigenvalue = 1.93E-01

 Scale SEOQF with 1.000000e-02/1.000000e-01/1.000000e-01

 Standard Electronic Orientation quadrupole field applied
 Nucleus-field energy     =     0.0000000153 hartrees
 Guess from superposition of atomic densities
 Warning:  Energy on first SCF cycle will be non-variational
 A restricted hybrid HF-DFT SCF calculation will be
 performed using Pulay DIIS extrapolation
 Exchange:     0.2000 Hartree-Fock + 0.0800 Slater + 0.7200 B88
 Correlation:  0.1900 VWN1RPA + 0.8100 LYP
 Using SG-1 standard quadrature grid
 Dispersion:   Grimme D3
 SCF converges when DIIS error is below 1.0E-08
 using 48 threads for integral computing
 -------------------------------------------------------
 OpenMP Integral computing Module                
 Release: version 1.0, May 2013, Q-Chem Inc. Pittsburgh 
 -------------------------------------------------------
 -------------------------------------------------------
 OpenMP BLAS3 based DFT computing Module                
 Release: version 1.0, May 2013, Q-Chem Inc. Pittsburgh 
 -------------------------------------------------------
 ---------------------------------------
  Cycle       Energy         DIIS Error
 ---------------------------------------
    1   -1509.4665119364      8.30E-02
    2   -1509.5303801380      1.07E-02
    3   -1507.3848024982      2.60E-02
    4   -1510.0393603885      3.72E-03
    5   -1510.0932927752      1.37E-03
    6   -1510.1003426349      5.53E-04
    7   -1510.1016156085      1.41E-04
    8   -1510.1016948829      3.67E-05
    9   -1510.1016993230      1.89E-05
   10   -1510.1017008489      3.61E-06
   11   -1510.1017009077      7.74E-07
   12   -1510.1017009103      1.77E-07
   13   -1510.1017009105      1.01E-07
   14   -1510.1017009104      3.41E-08
   15   -1510.1017009105      7.96E-09 Convergence criterion met
 ---------------------------------------
 SCF time:  CPU 114.92 s  wall 2.45 s
 SCF   energy in the final basis set = -1510.10170091
 Total energy in the final basis set = -1510.10170091
 
 --------------------------------------------------------------
 
                    Orbital Energies (a.u.)
 --------------------------------------------------------------
 
 Alpha MOs
 -- Occupied --
-18.934 -18.933 -18.917 -18.905 -18.903 -18.902 -18.893 -18.888
-18.864 -18.843 -10.123 -10.118 -10.115 -10.103 -10.087 -10.085
-10.083 -10.073 -10.071 -10.071 -10.071 -10.069 -10.050 -10.043
-10.042 -10.041 -10.020 -10.020 -10.019 -10.018  -1.052  -1.048
 -1.045  -1.032  -1.026  -1.023  -0.963  -0.953  -0.950  -0.935
 -0.788  -0.786  -0.748  -0.745  -0.740  -0.729  -0.720  -0.687
 -0.670  -0.633  -0.612  -0.594  -0.560  -0.558  -0.541  -0.540
 -0.531  -0.529  -0.503  -0.499  -0.491  -0.486  -0.467  -0.457
 -0.452  -0.451  -0.439  -0.431  -0.425  -0.422  -0.420  -0.416
 -0.412  -0.406  -0.394  -0.391  -0.387  -0.372  -0.368  -0.363
 -0.353  -0.352  -0.351  -0.345  -0.343  -0.331  -0.327  -0.322
 -0.318  -0.311  -0.310  -0.305  -0.304  -0.294  -0.289  -0.285
 -0.280  -0.246  -0.240  -0.239  -0.233  -0.229  -0.215  -0.183
 -0.177  -0.166  -0.163  -0.160  -0.156  -0.154  -0.153  -0.144
 -0.130
 -- Virtual --
  0.075   0.079   0.099   0.125   0.234   0.247   0.275   0.286
  0.287   0.290   0.319   0.329   0.336   0.337   0.345   0.348
  0.368   0.374   0.377   0.382   0.384   0.390   0.393   0.394
  0.398   0.404   0.407   0.408   0.412   0.414   0.420   0.422
  0.431   0.436   0.437   0.440   0.442   0.448   0.448   0.452
  0.463   0.465   0.469   0.471   0.476   0.478   0.485   0.486
  0.490   0.497   0.499   0.510   0.533   0.538   0.547   0.555
  0.561   0.576   0.577   0.671   0.677   0.690   0.698
 --------------------------------------------------------------
 
          Ground-State Mulliken Net Atomic Charges

     Atom                 Charge (a.u.)
  ----------------------------------------
      1 O                    -0.224505
      2 C                     0.227255
      3 C                    -0.081318
      4 C                    -0.084092
      5 C                     0.236329
      6 O                    -0.204210
      7 C                    -0.037870
      8 C                    -0.033464
      9 O                    -0.229332
     10 C                     0.248514
     11 C                    -0.084242
     12 C                    -0.081709
     13 C                     0.240277
     14 O                    -0.241935
     15 O                    -0.218245
     16 O                    -0.210638
     17 O                    -0.202701
     18 C                    -0.096136
     19 C                     0.040161
     20 C                    -0.141151
     21 C                    -0.144470
     22 C                     0.041932
     23 O                    -0.203881
     24 H                     0.085431
     25 H                     0.087604
     26 H                     0.087569
     27 H                     0.075749
     28 H                     0.071989
     29 H                     0.076364
     30 H                     0.070907
     31 H                     0.084390
     32 O                    -0.202414
     33 C                    -0.101148
     34 C                     0.043470
     35 C                    -0.143153
     36 C                    -0.144047
     37 C                     0.040896
     38 O                    -0.203382
     39 H                     0.089608
     40 H                     0.082706
     41 H                     0.085900
     42 H                     0.090480
     43 H                     0.077653
     44 H                     0.071523
     45 H                     0.076025
     46 H                     0.070726
     47 H                     0.083699
     48 H                     0.088752
     49 H                     0.102324
     50 H                     0.092581
     51 H                     0.089302
     52 H                     0.081646
     53 H                     0.093361
     54 H                     0.086537
     55 H                     0.099260
     56 H                     0.093124
  ----------------------------------------
  Sum of atomic charges =    -0.000000

 -----------------------------------------------------------------
                    Cartesian Multipole Moments
 -----------------------------------------------------------------
    Charge (ESU x 10^10)
                -0.0000
    Dipole Moment (Debye)
         X      -1.2662      Y       2.8239      Z      -2.2050
       Tot       3.7999
    Quadrupole Moments (Debye-Ang)
        XX    -176.3684     XY       6.7796     YY    -157.6708
        XZ      -7.4035     YZ      -3.6154     ZZ    -159.1786
    Octopole Moments (Debye-Ang^2)
       XXX    -107.4584    XXY      32.1089    XYY     -18.4668
       YYY     -29.5430    XXZ     -61.4605    XYZ      18.9741
       YYZ       9.5147    XZZ       0.9861    YZZ      -6.8322
       ZZZ      21.3245
    Hexadecapole Moments (Debye-Ang^3)
      XXXX  -13752.6105   XXXY     437.5325   XXYY   -2615.2604
      XYYY      37.0412   YYYY   -2760.5559   XXXZ     -73.7281
      XXYZ      -0.8509   XYYZ     -11.2780   YYYZ      30.9708
      XXZZ   -2487.9634   XYZZ     -30.9152   YYZZ    -752.3907
      XZZZ       5.8105   YZZZ      20.4056   ZZZZ   -1673.6382
 -----------------------------------------------------------------
 Calculating analytic gradient of the SCF energy
 Gradient of SCF Energy
            1           2           3           4           5           6
    1  -0.0609617  -0.0131713   0.0302423   0.0229634  -0.0056669   0.0455510
    2   0.0453871   0.0334616  -0.0155119  -0.0588997   0.0298423  -0.0479498
    3  -0.0321608   0.0180099   0.0228962   0.0147424   0.0242500  -0.0063541
            7           8           9          10          11          12
    1  -0.0147803   0.0260448  -0.0246110  -0.0137542  -0.0229089  -0.0110276
    2   0.0274802   0.0242250  -0.0664721   0.0072035  -0.0186968  -0.0104562
    3  -0.0378158   0.0072528  -0.0664639   0.0312112   0.0083404   0.0262945
           13          14          15          16          17          18
    1  -0.0101958  -0.0335721   0.0684068   0.0298728   0.0338503   0.0062875
    2   0.0349089   0.0435588  -0.1069016  -0.1093768   0.0666941   0.0550464
    3  -0.0058891   0.0533762   0.0277639  -0.0533215   0.0106085   0.0119646
           19          20          21          22          23          24
    1  -0.0388626  -0.0164687   0.0026055   0.0264291   0.0703615   0.0049451
    2  -0.0222237  -0.0468547  -0.0272401   0.0033809   0.0235667   0.0053260
    3  -0.0499212  -0.0170144   0.0378065   0.0640356  -0.0441992  -0.0031432
           25          26          27          28          29          30
    1   0.0058140   0.0099780  -0.0107583   0.0065931  -0.0065765   0.0049710
    2   0.0004738   0.0079259   0.0013647   0.0049220   0.0082167  -0.0039536
    3  -0.0050671   0.0014015   0.0030101  -0.0011308   0.0077343  -0.0066533
           31          32          33          34          35          36
    1   0.0037163  -0.0346190  -0.0009127   0.0054820  -0.0082434  -0.0053519
    2   0.0032303   0.0278384   0.0557111   0.0524674   0.0010497  -0.0492511
    3  -0.0124695  -0.0342653  -0.0120336   0.0473746   0.0504754   0.0112606
           37          38          39          40          41          42
    1  -0.0003907  -0.0636926   0.0021723  -0.0047863   0.0017382  -0.0031123
    2  -0.0618297   0.0388863  -0.0024529   0.0058111   0.0090172   0.0012505
    3  -0.0300490  -0.0440089  -0.0105433  -0.0022606   0.0005907  -0.0144089
           43          44          45          46          47          48
    1   0.0113131  -0.0046543   0.0116435  -0.0072297  -0.0045538   0.0008229
    2   0.0013641   0.0011141  -0.0033048   0.0048592   0.0125205   0.0075283
    3   0.0031515  -0.0064381  -0.0037252   0.0007577  -0.0020595  -0.0020095
           49          50          51          52          53          54
    1  -0.0008565  -0.0012225   0.0024341   0.0019118  -0.0055385  -0.0066438
    2  -0.0036410  -0.0035278   0.0080154   0.0093161   0.0052619   0.0029891
    3  -0.0001510   0.0001048   0.0013066  -0.0002633   0.0045007   0.0102747
           55          56
    1   0.0065923  -0.0076189
    2  -0.0062806  -0.0063904
    3   0.0036938  -0.0003699
 Max gradient component =       1.094E-01
 RMS gradient           =       2.871E-02
 Gradient time:  CPU 31.78 s  wall 0.68 s
 Geometry Optimization Parameters
   NAtoms,    NIC,     NZ,  NCons,   NDum,   NFix, NCnnct, MaxDiis
       56     458       0       9       0       0       0       0


** CONSTRAINED OPTIMIZATION IN DELOCALIZED INTERNAL COORDINATES **
   Searching for a Minimum

   Optimization Cycle:   1

                       Coordinates (Angstroms)
     ATOM                X               Y               Z
      1  O         3.5951879290   -2.4817097468   -0.1221094260
      2  C         2.8686803091   -1.5249299213   -0.3496292708
      3  C         3.3255218871   -0.1877711525   -0.8899023427
      4  C         3.4080939640    0.9811127069    0.1054532123
      5  C         3.1959103080    0.6411265665    1.5640480504
      6  O         1.9494822587    1.0383625438    1.9565192191
      7  C         1.1613095648   -0.0291743948    2.4935545693
      8  C         0.1176181626   -0.4758059482    1.4750494219
      9  O        -1.1760591514    0.0238563575    1.8487322259
     10  C        -2.1927613924   -0.3090511182    1.0153009995
     11  C        -2.6286718248    0.8359532414    0.1323327789
     12  C        -3.4276352770    0.4251310320   -1.1131251203
     13  C        -3.9735020072   -0.9886348106   -1.1113595300
     14  O        -3.5153872146   -1.9261125980   -1.7483957068
     15  O         1.5643637691   -1.8121655768   -0.5918378759
     16  O        -4.9870004441   -1.2497512277   -0.2388696933
     17  O        -2.4405977230   -1.4918931540    0.8388940336
     18  C        -5.5845787357   -2.4827382655   -0.0806659276
     19  C        -3.6063184120    1.8293086096    0.7855229693
     20  C        -3.4935142290    3.1833643649    0.0856011650
     21  C        -4.1181408414    2.8617127776   -1.2604924463
     22  C        -4.5935855125    1.4250372609   -1.0083459428
     23  O        -4.8817476299    1.4016110656    0.3714341759
     24  H        -1.7009351044    1.3766188599   -0.1674437245
     25  H        -2.8137466244    0.5309615950   -2.0351928019
     26  H        -3.4545869184    1.9397375544    1.8812851324
     27  H        -4.1665089025    3.8831552718    0.6313501470
     28  H        -2.4731559847    3.6214317494    0.0412877109
     29  H        -4.9804575014    3.5464854181   -1.4190727399
     30  H        -3.4258840568    2.9095655297   -2.1289768961
     31  H        -5.4322210562    1.1589649512   -1.6889388243
     32  O         3.8985088688   -0.1446573623    2.1894052524
     33  C         1.0083996942   -3.0748416971   -0.5074579840
     34  C         4.7978758188   -0.2235868312   -1.3630449827
     35  C         5.0577418535    0.9000831482   -2.3673384660
     36  C         5.0485380229    2.1052165834   -1.4514484912
     37  C         4.8672689168    1.4198131751   -0.0939973179
     38  O         5.5392536580    0.1932680113   -0.2427072060
     39  H         2.6887520457    0.0454702676   -1.7737548062
     40  H         2.6926775892    1.7895273433   -0.1714320652
     41  H         1.1343555508   -3.4846445704    0.5176070766
     42  H         5.0916755084   -1.1986651066   -1.8100207407
     43  H         6.0912504789    0.7637933479   -2.7592004476
     44  H         4.3456344715    0.9433619230   -3.2193159725
     45  H         6.0470760707    2.5938205593   -1.5026113368
     46  H         4.2505624649    2.8517250365   -1.6550093865
     47  H         5.2264531177    2.0801943328    0.7263007148
     48  H         1.4914546562   -3.7550557316   -1.2408021830
     49  H        -0.0747364753   -3.0116194750   -0.7393707811
     50  H        -6.3775645710   -2.4057881259    0.6910938579
     51  H        -4.8348461097   -3.2328593795    0.2499477107
     52  H        -6.0463633209   -2.8086286786   -1.0371458529
     53  H         0.3839591703   -0.1268208358    0.4572354490
     54  H         0.0457854135   -1.5833177316    1.5236239826
     55  H         0.7195635194    0.2357681287    3.4776685292
     56  H         1.7742703841   -0.9376006965    2.7020361915
   Point Group: c1    Number of degrees of freedom:   162


   Energy is  -1510.101700910

              Constraints and their Current Values
                                        Value     Constraint
   Dihedral:        1   2   3   4     -104.211     -104.211
   Dihedral:        3   4   5   6     -104.211     -104.211
   Dihedral:        4   5   6   7      123.158      123.158
   Dihedral:        5   6   7   8     -104.211     -104.211
   Dihedral:        6   7   8   9     -104.211     -104.211
   Dihedral:        7   8   9  10     -180.000     -180.000
   Dihedral:        8   9  10  11     -104.210     -104.211
   Dihedral:        9  10  11  12      161.053      161.053
   Dihedral:       11  12  13  14     -104.210     -104.211

 Attempting to Generate Delocalized Internal Coordinates

   Using Lagrange Multiplier Algorithm


171 Hessian modes will be used to form the next step
  Hessian Eigenvalues:
    -0.977753   -0.977753   -0.977753   -0.977753   -0.977753   -0.977753
    -0.977753   -0.977753   -0.977753    0.045000    0.045000    0.045000
     0.045000    0.045142    0.045562    0.045600    0.046185    0.046210
     0.047468    0.048858    0.048885    0.054430    0.059880    0.060034
     0.062346    0.062904    0.066998    0.067050    0.067287    0.068275
     0.070094    0.071280    0.071645    0.073497    0.074205    0.075522
     0.075914    0.076909    0.077355    0.082457    0.082543    0.083013
     0.084228    0.084343    0.084424    0.085166    0.085494    0.086377
     0.086592    0.086788    0.086882    0.088529    0.088605    0.089071
     0.089196    0.089811    0.089946    0.093631    0.093915    0.096624
     0.096626    0.111592    0.111609    0.114576    0.114645    0.115802
     0.115917    0.117057    0.117242    0.117532    0.118755    0.119251
     0.122874    0.123997    0.130076    0.131091    0.132114    0.139322
     0.140791    0.160000    0.160000    0.160000    0.160000    0.160000
     0.160000    0.171301    0.171962    0.172057    0.173196    0.219180
     0.222152    0.237745    0.239262    0.239951    0.242708    0.242725
     0.249420    0.250000    0.250000    0.250000    0.250000    0.250000
     0.250000    0.250000    0.250000    0.258333    0.258726    0.266987
     0.267255    0.276538    0.279542    0.284143    0.285549    0.294199
     0.295578    0.298746    0.308052    0.310698    0.310856    0.313310
     0.320207    0.320923    0.321324    0.321766    0.322047    0.322141
     0.323004    0.323080    0.323203    0.323370    0.323530    0.323732
     0.324190    0.324255    0.324396    0.324623    0.324700    0.324830
     0.324952    0.325048    0.325055    0.325178    0.325184    0.326542
     0.326831    0.327641    0.367019    0.369070    0.381492    0.384362
     0.401000    0.407713    0.486964    0.492360    0.517920    0.524312
     0.534859    0.537353    0.929310    0.941950    0.942765    0.947945
     1.022753    1.022753    1.022753    1.022753    1.022753    1.022753
     1.022753    1.022753    1.022753

 Minimum Search - Taking P-RFO Step
 Searching for Lamda that Maximizes Along the Constraint modes Only
 Value Taken    Lamda =   0.00212397
 Searching for Lamda that Minimizes Along All other modes
 Value Taken    Lamda =  -0.17802101
 Calculated Step too Large.  Step scaled by  0.516848
 Step Taken.  Stepsize is  0.300000

                             Maximum     Tolerance    Cnvgd?
         Gradient            0.110303       0.000300      NO
         Displacement        0.093382       0.001200      NO
         Energy change     *********       0.000001      NO


 New Cartesian Coordinates Obtained by Inverse Iteration

 Displacement from previous Coordinates is:  0.901573
 Adding empirical dispersion correction 
 ----------------------------------------------------------------
 Doing -D3(op) with
 s6 =   1.00000
 s8 =   0.78311
 a1 =   0.30000
 a2 =   4.25000
 n  =  10.00000
 -D3 energy without 3body term =     -0.0689031431 hartrees
 ----------------------------------------------------------------
             Standard Nuclear Orientation (Angstroms)
    I     Atom           X                Y                Z
 ----------------------------------------------------------------
    1      O       3.6768718642    -2.5244023797    -0.1377057607
    2      C       2.9318565911    -1.5571760167    -0.3639988251
    3      C       3.3830901023    -0.1968717281    -0.9054655726
    4      C       3.4594536222     0.9881888484     0.1025785626
    5      C       3.2381674728     0.6346402538     1.5834260176
    6      O       1.9650516699     1.0266513558     1.9963810974
    7      C       1.1550127141    -0.0435942698     2.5375595411
    8      C       0.0834697145    -0.4943728286     1.5203493264
    9      O      -1.2122840933     0.0244022670     1.9132098989
   10      C      -2.2458140732    -0.3273957933     1.0588381086
   11      C      -2.6756335261     0.8343929503     0.1550195710
   12      C      -3.4749693179     0.4213645339    -1.1130150571
   13      C      -4.0253510100    -1.0109952318    -1.1128203154
   14      O      -3.5516274132    -1.9597689168    -1.7564924070
   15      O       1.5943450746    -1.7955893733    -0.6102961018
   16      O      -5.0656542602    -1.2172497506    -0.2283439788
   17      O      -2.5222655903    -1.5221272164     0.8814430714
   18      C      -5.6525651380    -2.4874693397    -0.0968917433
   19      C      -3.6635927494     1.8536557185     0.8054522205
   20      C      -3.5215011462     3.2182163065     0.0845605978
   21      C      -4.1451007129     2.8884034340    -1.2854545692
   22      C      -4.6529631456     1.4418302619    -1.0250047235
   23      O      -4.9643501317     1.4277269578     0.3768294797
   24      H      -1.7440445189     1.3637517060    -0.1375625599
   25      H      -2.8550751580     0.5200773871    -2.0269181359
   26      H      -3.5269930872     1.9627209012     1.9013934099
   27      H      -4.1829811014     3.9328795887     0.6150630463
   28      H      -2.4974445400     3.6369726481     0.0491075941
   29      H      -4.9922425144     3.5785400006    -1.4664275869
   30      H      -3.4438833110     2.9205506283    -2.1417407793
   31      H      -5.4887060840     1.1763675064    -1.7057796242
   32      O       3.9558853705    -0.1506560073     2.2190020693
   33      C       1.0612815868    -3.0958486578    -0.5152867713
   34      C       4.8708708938    -0.2312474052    -1.3920370213
   35      C       5.1097162407     0.9130151905    -2.4111422366
   36      C       5.0982636872     2.1376050699    -1.4815266317
   37      C       4.9371563028     1.4424489769    -0.1029798567
   38      O       5.6321512881     0.1965567968    -0.2561364598
   39      H       2.7380274531     0.0374718902    -1.7783943602
   40      H       2.7397851374     1.7882518201    -0.1702332739
   41      H       1.1994592050    -3.5177852631     0.5047962967
   42      H       5.1674854431    -1.2063541787    -1.8318022343
   43      H       6.1330161275     0.7856865450    -2.8182196261
   44      H       4.3888667080     0.9478088994    -3.2504260984
   45      H       6.0836939150     2.6403317151    -1.5407379808
   46      H       4.2934236368     2.8720830248    -1.6769695742
   47      H       5.2982404581     2.0969468349     0.7179069757
   48      H       1.5421513912    -3.7770461987    -1.2515545488
   49      H      -0.0245448251    -3.0445646228    -0.7355778450
   50      H      -6.4606980298    -2.4206951712     0.6594108507
   51      H      -4.9066649032    -3.2392784136     0.2445441894
   52      H      -6.0944231870    -2.8274182093    -1.0599489639
   53      H       0.3470466214    -0.1557864459     0.4960794712
   54      H       0.0087499619    -1.6029039188     1.5673965286
   55      H       0.7122350730     0.2316542484     3.5188968657
   56      H       1.7732666473    -0.9468817524     2.7499147198
 ----------------------------------------------------------------
 Molecular Point Group                 C1    NOp =  1
 Largest Abelian Subgroup              C1    NOp =  1
 Nuclear Repulsion Energy =  3169.7478119658 hartrees
 There are      113 alpha and      113 beta electrons
 Applying Cartesian multipole field
    Component          Value
    ---------          -----
     (2,0,0)        1.00000E-12
     (0,2,0)        2.00000E-11
     (0,0,2)       -3.00000E-11
 Nucleus-field energy     =     0.0000000150 hartrees
 Requested basis set is STO-3G
 There are 86 shells and 176 basis functions
 A cutoff of  1.0D-12 yielded   2225 shell pairs
 There are     10361 function pairs
 Smallest overlap matrix eigenvalue = 2.02E-01
 Guess MOs from SCF MO coefficient file
 Reading MOs from coefficient file
 Reading MOs from coefficient file
 A restricted hybrid HF-DFT SCF calculation will be
 performed using Pulay DIIS extrapolation
 Exchange:     0.2000 Hartree-Fock + 0.0800 Slater + 0.7200 B88
 Correlation:  0.1900 VWN1RPA + 0.8100 LYP
 Using SG-1 standard quadrature grid
 Dispersion:   Grimme D3
 SCF converges when DIIS error is below 1.0E-08
 Geometry optimization detected.  Setting ReadMinima to 0
 Setting SaveMinima to 0
 using 48 threads for integral computing
 -------------------------------------------------------
 OpenMP Integral computing Module                
 Release: version 1.0, May 2013, Q-Chem Inc. Pittsburgh 
 -------------------------------------------------------
 -------------------------------------------------------
 OpenMP BLAS3 based DFT computing Module                
 Release: version 1.0, May 2013, Q-Chem Inc. Pittsburgh 
 -------------------------------------------------------
 ---------------------------------------
  Cycle       Energy         DIIS Error
 ---------------------------------------
    1   -1509.9999073208      3.10E-03
    2   -1510.1702372950      9.40E-04
    3   -1510.1637507427      1.56E-03
    4   -1510.1737762200      3.14E-04
    5   -1510.1742253845      5.52E-05
    6   -1510.1742367445      2.77E-05
    7   -1510.1742397376      1.04E-05
    8   -1510.1742402075      2.02E-06
    9   -1510.1742402264      9.18E-07
   10   -1510.1742402295      4.23E-07
   11   -1510.1742402303      8.94E-08
   12   -1510.1742402303      1.51E-08
   13   -1510.1742402303      7.81E-09 Convergence criterion met
 ---------------------------------------
 SCF time:  CPU 94.27 s  wall 1.97 s
 SCF   energy in the final basis set = -1510.17424023
 Total energy in the final basis set = -1510.17424023
 
 --------------------------------------------------------------
 
                    Orbital Energies (a.u.)
 --------------------------------------------------------------
 
 Alpha MOs
 -- Occupied --
-18.938 -18.927 -18.922 -18.905 -18.901 -18.900 -18.896 -18.889
-18.868 -18.846 -10.118 -10.113 -10.110 -10.098 -10.084 -10.082
-10.080 -10.069 -10.068 -10.068 -10.067 -10.067 -10.048 -10.042
-10.042 -10.040 -10.020 -10.020 -10.019 -10.019  -1.039  -1.033
 -1.029  -1.020  -1.006  -1.005  -0.954  -0.946  -0.944  -0.929
 -0.780  -0.777  -0.740  -0.737  -0.731  -0.721  -0.712  -0.681
 -0.665  -0.627  -0.608  -0.590  -0.556  -0.554  -0.540  -0.539
 -0.526  -0.524  -0.497  -0.492  -0.483  -0.478  -0.463  -0.450
 -0.446  -0.444  -0.433  -0.425  -0.420  -0.417  -0.416  -0.411
 -0.405  -0.400  -0.389  -0.385  -0.380  -0.367  -0.364  -0.358
 -0.351  -0.348  -0.346  -0.345  -0.340  -0.331  -0.329  -0.319
 -0.315  -0.309  -0.308  -0.305  -0.302  -0.290  -0.287  -0.281
 -0.278  -0.245  -0.239  -0.239  -0.236  -0.232  -0.223  -0.180
 -0.178  -0.164  -0.162  -0.162  -0.156  -0.153  -0.151  -0.147
 -0.134
 -- Virtual --
  0.069   0.074   0.092   0.118   0.230   0.243   0.268   0.273
  0.277   0.284   0.308   0.314   0.325   0.332   0.339   0.343
  0.356   0.363   0.368   0.372   0.374   0.378   0.380   0.387
  0.392   0.396   0.399   0.401   0.402   0.407   0.412   0.416
  0.417   0.425   0.428   0.431   0.432   0.434   0.440   0.442
  0.451   0.456   0.458   0.464   0.467   0.468   0.472   0.474
  0.474   0.483   0.486   0.497   0.507   0.520   0.523   0.544
  0.551   0.556   0.560   0.645   0.649   0.664   0.672
 --------------------------------------------------------------
 
          Ground-State Mulliken Net Atomic Charges

     Atom                 Charge (a.u.)
  ----------------------------------------
      1 O                    -0.215271
      2 C                     0.215604
      3 C                    -0.080163
      4 C                    -0.081387
      5 C                     0.225044
      6 O                    -0.201396
      7 C                    -0.039466
      8 C                    -0.037527
      9 O                    -0.220977
     10 C                     0.236148
     11 C                    -0.082501
     12 C                    -0.081114
     13 C                     0.227825
     14 O                    -0.234068
     15 O                    -0.204799
     16 O                    -0.196311
     17 O                    -0.193980
     18 C                    -0.104211
     19 C                     0.035458
     20 C                    -0.142253
     21 C                    -0.145200
     22 C                     0.036874
     23 O                    -0.194675
     24 H                     0.085182
     25 H                     0.086089
     26 H                     0.087247
     27 H                     0.076208
     28 H                     0.072935
     29 H                     0.076628
     30 H                     0.071729
     31 H                     0.084199
     32 O                    -0.195818
     33 C                    -0.109243
     34 C                     0.038079
     35 C                    -0.144052
     36 C                    -0.144878
     37 C                     0.035604
     38 O                    -0.194221
     39 H                     0.089058
     40 H                     0.083383
     41 H                     0.086554
     42 H                     0.090111
     43 H                     0.077690
     44 H                     0.072148
     45 H                     0.076723
     46 H                     0.071788
     47 H                     0.083994
     48 H                     0.088905
     49 H                     0.100971
     50 H                     0.092275
     51 H                     0.089664
     52 H                     0.082144
     53 H                     0.092146
     54 H                     0.085239
     55 H                     0.098493
     56 H                     0.091374
  ----------------------------------------
  Sum of atomic charges =    -0.000000

 -----------------------------------------------------------------
                    Cartesian Multipole Moments
 -----------------------------------------------------------------
    Charge (ESU x 10^10)
                -0.0000
    Dipole Moment (Debye)
         X      -1.2685      Y       2.6340      Z      -2.3123
       Tot       3.7274
    Quadrupole Moments (Debye-Ang)
        XX    -176.7011     XY       7.0999     YY    -156.8483
        XZ      -7.3923     YZ      -3.7112     ZZ    -159.2548
    Octopole Moments (Debye-Ang^2)
       XXX    -110.3907    XXY      30.9346    XYY     -18.4097
       YYY     -29.3630    XXZ     -64.7512    XYZ      18.4068
       YYZ       8.3728    XZZ       1.0415    YZZ      -6.6951
       ZZZ      18.7450
    Hexadecapole Moments (Debye-Ang^3)
      XXXX  -14163.3765   XXXY     475.0285   XXYY   -2672.1798
      XYYY      46.4568   YYYY   -2798.1023   XXXZ     -56.0212
      XXYZ      -1.3757   XYYZ      -5.2132   YYYZ      33.7359
      XXZZ   -2553.5014   XYZZ     -30.4184   YYZZ    -769.2773
      XZZZ      18.5641   YZZZ      23.0055   ZZZZ   -1729.9957
 -----------------------------------------------------------------
 Calculating analytic gradient of the SCF energy
 Gradient of SCF Energy
            1           2           3           4           5           6
    1  -0.0264830  -0.0204638   0.0165378   0.0117038   0.0002753   0.0302888
    2   0.0162584   0.0391200  -0.0113990  -0.0430648   0.0381480  -0.0370797
    3  -0.0210617   0.0176589   0.0110229   0.0060134   0.0149298   0.0016680
            7           8           9          10          11          12
    1  -0.0180448   0.0203528  -0.0117927  -0.0152009  -0.0098545  -0.0033654
    2   0.0233898   0.0183163  -0.0495610   0.0190143  -0.0118469  -0.0086444
    3  -0.0251354   0.0024071  -0.0452679   0.0299687   0.0030687   0.0140215
           13          14          15          16          17          18
    1  -0.0173646  -0.0130951   0.0452888   0.0215628   0.0209255   0.0035814
    2   0.0368572   0.0173388  -0.0761283  -0.0770425   0.0293016   0.0430350
    3   0.0012205   0.0266239   0.0163101  -0.0348165   0.0020806   0.0097126
           19          20          21          22          23          24
    1  -0.0278698  -0.0066921   0.0007788   0.0115092   0.0427685   0.0026531
    2  -0.0164784  -0.0266642  -0.0146285   0.0007784   0.0136612   0.0031723
    3  -0.0275965  -0.0092196   0.0188050   0.0424401  -0.0268811  -0.0021707
           25          26          27          28          29          30
    1   0.0034469   0.0091317  -0.0073600   0.0031722  -0.0035748   0.0022498
    2  -0.0011933   0.0067776  -0.0000976   0.0043546   0.0055139  -0.0031240
    3  -0.0026725   0.0002761   0.0016823  -0.0001661   0.0061879  -0.0043154
           31          32          33          34          35          36
    1   0.0045129  -0.0181308  -0.0021448   0.0062451  -0.0064129  -0.0035400
    2   0.0028736   0.0105258   0.0427974   0.0288349  -0.0003220  -0.0251475
    3  -0.0106058  -0.0193257  -0.0097937   0.0328306   0.0271523   0.0068024
           37          38          39          40          41          42
    1   0.0032967  -0.0387419   0.0028080  -0.0027949   0.0006497  -0.0035546
    2  -0.0394100   0.0223437  -0.0025191   0.0033130   0.0043565   0.0018615
    3  -0.0158587  -0.0268491  -0.0078000  -0.0007518   0.0013808  -0.0125092
           43          44          45          46          47          48
    1   0.0071040  -0.0016530   0.0073659  -0.0037640  -0.0049517   0.0004085
    2   0.0008547   0.0006379  -0.0031846   0.0033635   0.0105039   0.0033072
    3   0.0032059  -0.0044687  -0.0029801   0.0012065  -0.0027140  -0.0020149
           49          50          51          52          53          54
    1  -0.0012754  -0.0015193   0.0017197   0.0000320  -0.0044911  -0.0062310
    2  -0.0034239  -0.0033340   0.0033928   0.0046927   0.0044910   0.0020889
    3  -0.0000645   0.0003977   0.0015205  -0.0009464   0.0029872   0.0085750
           55          56
    1   0.0053065  -0.0053093
    2  -0.0067366  -0.0042464
    3   0.0037884   0.0000401
 Max gradient component =       7.704E-02
 RMS gradient           =       1.906E-02
 Gradient time:  CPU 31.56 s  wall 0.67 s
 Geometry Optimization Parameters
   NAtoms,    NIC,     NZ,  NCons,   NDum,   NFix, NCnnct, MaxDiis
       56     458       0       9       0       0       0       0

 Cartesian Hessian Update
 Hessian Updated using BFGS Update


** CONSTRAINED OPTIMIZATION IN DELOCALIZED INTERNAL COORDINATES **
   Searching for a Minimum

   Optimization Cycle:   2

                       Coordinates (Angstroms)
     ATOM                X               Y               Z
      1  O         3.6768718642   -2.5244023797   -0.1377057607
      2  C         2.9318565911   -1.5571760167   -0.3639988251
      3  C         3.3830901023   -0.1968717281   -0.9054655726
      4  C         3.4594536222    0.9881888484    0.1025785626
      5  C         3.2381674728    0.6346402538    1.5834260176
      6  O         1.9650516699    1.0266513558    1.9963810974
      7  C         1.1550127141   -0.0435942698    2.5375595411
      8  C         0.0834697145   -0.4943728286    1.5203493264
      9  O        -1.2122840933    0.0244022670    1.9132098989
     10  C        -2.2458140732   -0.3273957933    1.0588381086
     11  C        -2.6756335261    0.8343929503    0.1550195710
     12  C        -3.4749693179    0.4213645339   -1.1130150571
     13  C        -4.0253510100   -1.0109952318   -1.1128203154
     14  O        -3.5516274132   -1.9597689168   -1.7564924070
     15  O         1.5943450746   -1.7955893733   -0.6102961018
     16  O        -5.0656542602   -1.2172497506   -0.2283439788
     17  O        -2.5222655903   -1.5221272164    0.8814430714
     18  C        -5.6525651380   -2.4874693397   -0.0968917433
     19  C        -3.6635927494    1.8536557185    0.8054522205
     20  C        -3.5215011462    3.2182163065    0.0845605978
     21  C        -4.1451007129    2.8884034340   -1.2854545692
     22  C        -4.6529631456    1.4418302619   -1.0250047235
     23  O        -4.9643501317    1.4277269578    0.3768294797
     24  H        -1.7440445189    1.3637517060   -0.1375625599
     25  H        -2.8550751580    0.5200773871   -2.0269181359
     26  H        -3.5269930872    1.9627209012    1.9013934099
     27  H        -4.1829811014    3.9328795887    0.6150630463
     28  H        -2.4974445400    3.6369726481    0.0491075941
     29  H        -4.9922425144    3.5785400006   -1.4664275869
     30  H        -3.4438833110    2.9205506283   -2.1417407793
     31  H        -5.4887060840    1.1763675064   -1.7057796242
     32  O         3.9558853705   -0.1506560073    2.2190020693
     33  C         1.0612815868   -3.0958486578   -0.5152867713
     34  C         4.8708708938   -0.2312474052   -1.3920370213
     35  C         5.1097162407    0.9130151905   -2.4111422366
     36  C         5.0982636872    2.1376050699   -1.4815266317
     37  C         4.9371563028    1.4424489769   -0.1029798567
     38  O         5.6321512881    0.1965567968   -0.2561364598
     39  H         2.7380274531    0.0374718902   -1.7783943602
     40  H         2.7397851374    1.7882518201   -0.1702332739
     41  H         1.1994592050   -3.5177852631    0.5047962967
     42  H         5.1674854431   -1.2063541787   -1.8318022343
     43  H         6.1330161275    0.7856865450   -2.8182196261
     44  H         4.3888667080    0.9478088994   -3.2504260984
     45  H         6.0836939150    2.6403317151   -1.5407379808
     46  H         4.2934236368    2.8720830248   -1.6769695742
     47  H         5.2982404581    2.0969468349    0.7179069757
     48  H         1.5421513912   -3.7770461987   -1.2515545488
     49  H        -0.0245448251   -3.0445646228   -0.7355778450
     50  H        -6.4606980298   -2.4206951712    0.6594108507
     51  H        -4.9066649032   -3.2392784136    0.2445441894
     52  H        -6.0944231870   -2.8274182093   -1.0599489639
     53  H         0.3470466214   -0.1557864459    0.4960794712
     54  H         0.0087499619   -1.6029039188    1.5673965286
     55  H         0.7122350730    0.2316542484    3.5188968657
     56  H         1.7732666473   -0.9468817524    2.7499147198
   Point Group: c1    Number of degrees of freedom:   162


   Energy is  -1510.174240230

              Constraints and their Current Values
                                        Value     Constraint
   Dihedral:        1   2   3   4     -104.254     -104.211
   Dihedral:        3   4   5   6     -104.165     -104.211
   Dihedral:        4   5   6   7      123.057      123.158
   Dihedral:        5   6   7   8     -104.174     -104.211
   Dihedral:        6   7   8   9     -104.243     -104.211
   Dihedral:        7   8   9  10     -179.996     -180.000
   Dihedral:        8   9  10  11     -104.168     -104.211
   Dihedral:        9  10  11  12      161.018      161.053
   Dihedral:       11  12  13  14     -104.197     -104.211
 Hessian Updated using BFGS Update

   Using Lagrange Multiplier Algorithm


159 Hessian modes will be used to form the next step
  Hessian Eigenvalues:
    -0.977753   -0.977753   -0.977753   -0.977753   -0.977753   -0.977753
    -0.977753   -0.977753   -0.976183    0.044966    0.045001    0.045145
     0.045562    0.045596    0.046189    0.046234    0.047324    0.048857
     0.048884    0.054401    0.059807    0.059999    0.062363    0.062957
     0.066997    0.067053    0.067241    0.068268    0.070072    0.071285
     0.071616    0.073477    0.074191    0.075522    0.075883    0.076784
     0.077349    0.082461    0.082544    0.083029    0.084261    0.084399
     0.084439    0.085170    0.085484    0.086403    0.086493    0.086786
     0.086875    0.088507    0.088558    0.089076    0.089200    0.089824
     0.089952    0.093641    0.093921    0.096621    0.096629    0.111595
     0.111635    0.114583    0.114662    0.115802    0.115917    0.117061
     0.117274    0.117695    0.118650    0.119239    0.122894    0.123968
     0.130123    0.131209    0.132106    0.139345    0.140761    0.159638
     0.161335    0.170758    0.171702    0.171990    0.173186    0.219404
     0.219940    0.226520    0.237791    0.239376    0.240708    0.242715
     0.242980    0.249483    0.256075    0.258570    0.262159    0.267106
     0.267375    0.277367    0.280850    0.284745    0.289050    0.294840
     0.297250    0.301715    0.308195    0.310507    0.312518    0.320088
     0.320235    0.321066    0.321521    0.321829    0.322090    0.322541
     0.323039    0.323179    0.323273    0.323514    0.323700    0.323863
     0.324197    0.324307    0.324462    0.324633    0.324698    0.324882
     0.325011    0.325045    0.325145    0.325184    0.326514    0.326802
     0.327607    0.331106    0.367053    0.369069    0.382757    0.400304
     0.402940    0.424211    0.474783    0.489996    0.521970    0.526562
     0.534567    0.540141    0.929626    0.942352    0.946340    0.988786
     1.022753    1.022753    1.022753    1.022753    1.022753    1.022753
     1.022753    1.022753    1.041831

 Minimum Search - Taking P-RFO Step
 Searching for Lamda that Maximizes Along the Constraint modes Only
 Value Taken    Lamda =   0.00015417
 Searching for Lamda that Minimizes Along All other modes
 Value Taken    Lamda =  -0.08461608
 Calculated Step too Large.  Step scaled by  0.587096
 Step Taken.  Stepsize is  0.300000

                             Maximum     Tolerance    Cnvgd?
         Gradient            0.064648       0.000300      NO
         Displacement        0.082568       0.001200      NO
         Energy change     -0.072539       0.000001      NO


 New Cartesian Coordinates Obtained by Inverse Iteration

 Displacement from previous Coordinates is:  1.510307
 Adding empirical dispersion correction 
 ----------------------------------------------------------------
 Doing -D3(op) with
 s6 =   1.00000
 s8 =   0.78311
 a1 =   0.30000
 a2 =   4.25000
 n  =  10.00000
 -D3 energy without 3body term =     -0.0694068396 hartrees
 ----------------------------------------------------------------
             Standard Nuclear Orientation (Angstroms)
    I     Atom           X                Y                Z
 ----------------------------------------------------------------
    1      O       3.5722948344    -2.5558518421    -0.1140661449
    2      C       2.8697266279    -1.5502601425    -0.3489919611
    3      C       3.3615819793    -0.1949811283    -0.9143152885
    4      C       3.4861652770     0.9985325116     0.0945257539
    5      C       3.2628782354     0.6250197122     1.5857465568
    6      O       1.9875513642     1.0551581890     2.0178248543
    7      C       1.1836939148    -0.0399986017     2.5434255668
    8      C       0.0881522105    -0.4754202497     1.5240986965
    9      O      -1.2075802339     0.0385740961     1.9696247624
   10      C      -2.2375497078    -0.3297559295     1.0771046346
   11      C      -2.6828244926     0.8562422896     0.1831225610
   12      C      -3.4580227013     0.4505606659    -1.1156818716
   13      C      -3.9626060297    -1.0163560371    -1.1487001218
   14      O      -3.4512733785    -1.9458781860    -1.8066251238
   15      O       1.4881118644    -1.6828940061    -0.5448515021
   16      O      -5.0318906105    -1.2282595973    -0.2723752304
   17      O      -2.5127911273    -1.5304958901     0.8787827710
   18      C      -5.5270466061    -2.5731188811    -0.2332886303
   19      C      -3.7079521231     1.8538469367     0.8454930929
   20      C      -3.5684447524     3.2411822045     0.1378194030
   21      C      -4.1692095670     2.9183908413    -1.2607407263
   22      C      -4.6717219518     1.4501619873    -1.0301094742
   23      O      -5.0149136379     1.4062900727     0.3859320375
   24      H      -1.7594144174     1.4072648875    -0.0830188887
   25      H      -2.8295478508     0.5839166678    -2.0161716409
   26      H      -3.6016546363     1.9351691616     1.9457283228
   27      H      -4.2394257988     3.9451546356     0.6631584435
   28      H      -2.5488598878     3.6639655485     0.1265126628
   29      H      -5.0181477885     3.5962991778    -1.4573981812
   30      H      -3.4515351824     2.9717461984    -2.0979732779
   31      H      -5.4966748211     1.1751534833    -1.7173613839
   32      O       3.9692085734    -0.1790641736     2.2261701147
   33      C       0.9601017563    -3.0068414422    -0.3667359420
   34      C       4.8484423593    -0.2804526801    -1.4349122363
   35      C       5.0868005814     0.8695897788    -2.4695355333
   36      C       5.1270836336     2.1081456803    -1.5318627535
   37      C       4.9867236265     1.4152759348    -0.1345167206
   38      O       5.6586378700     0.1331054585    -0.3000832759
   39      H       2.6995201880     0.0619146830    -1.7641767008
   40      H       2.7852061004     1.8154044711    -0.1650460668
   41      H       1.1476948483    -3.3942548194     0.6581232445
   42      H       5.1111813089    -1.2692770046    -1.8609349116
   43      H       6.0889413714     0.7200611767    -2.9104495606
   44      H       4.3420631373     0.9178617229    -3.2829622759
   45      H       6.1143541433     2.5956384761    -1.6151397132
   46      H       4.3332686573     2.8543180819    -1.7088143644
   47      H       5.3861028833     2.0455751458     0.6851283278
   48      H       1.4016917121    -3.7195750708    -1.0965479205
   49      H      -0.1332653521    -2.9505757343    -0.5351024561
   50      H      -6.3634668638    -2.5940103905     0.4920220995
   51      H      -4.7417450428    -3.2858177464     0.1010596666
   52      H      -5.9040883899    -2.9016758993    -1.2264472717
   53      H       0.3413605234    -0.1151313542     0.5025243503
   54      H       0.0282396804    -1.5867929296     1.5332566248
   55      H       0.7398180759     0.2194606194     3.5288438680
   56      H       1.8217740191    -0.9345255837     2.7311770215
 ----------------------------------------------------------------
 Molecular Point Group                 C1    NOp =  1
 Largest Abelian Subgroup              C1    NOp =  1
 Nuclear Repulsion Energy =  3162.2773248516 hartrees
 There are      113 alpha and      113 beta electrons
 Applying Cartesian multipole field
    Component          Value
    ---------          -----
     (2,0,0)        1.00000E-12
     (0,2,0)        2.00000E-11
     (0,0,2)       -3.00000E-11
 Nucleus-field energy     =     0.0000000138 hartrees
 Requested basis set is STO-3G
 There are 86 shells and 176 basis functions
 A cutoff of  1.0D-12 yielded   2222 shell pairs
 There are     10334 function pairs
 Smallest overlap matrix eigenvalue = 2.07E-01
 Guess MOs from SCF MO coefficient file
 Reading MOs from coefficient file
 Reading MOs from coefficient file
 A restricted hybrid HF-DFT SCF calculation will be
 performed using Pulay DIIS extrapolation
 Exchange:     0.2000 Hartree-Fock + 0.0800 Slater + 0.7200 B88
 Correlation:  0.1900 VWN1RPA + 0.8100 LYP
 Using SG-1 standard quadrature grid
 Dispersion:   Grimme D3
 SCF converges when DIIS error is below 1.0E-08
 Geometry optimization detected.  Setting ReadMinima to 0
 Setting SaveMinima to 0
 using 48 threads for integral computing
 -------------------------------------------------------
 OpenMP Integral computing Module                
 Release: version 1.0, May 2013, Q-Chem Inc. Pittsburgh 
 -------------------------------------------------------
 -------------------------------------------------------
 OpenMP BLAS3 based DFT computing Module                
 Release: version 1.0, May 2013, Q-Chem Inc. Pittsburgh 
 -------------------------------------------------------
 ---------------------------------------
  Cycle       Energy         DIIS Error
 ---------------------------------------
    1   -1510.0547681502      3.32E-03
    2   -1510.2088810014      8.77E-04
    3   -1510.2016713951      1.58E-03
    4   -1510.2120578988      2.94E-04
    5   -1510.2124415699      6.27E-05
    6   -1510.2124559132      3.21E-05
    7   -1510.2124597333      1.40E-05
    8   -1510.2124605965      2.74E-06
    9   -1510.2124606354      1.09E-06
   10   -1510.2124606398      5.87E-07
   11   -1510.2124606415      1.28E-07
   12   -1510.2124606415      3.17E-08
   13   -1510.2124606417      1.64E-08
   14   -1510.2124606417      8.38E-09 Convergence criterion met
 ---------------------------------------
 SCF time:  CPU 99.17 s  wall 2.07 s
 SCF   energy in the final basis set = -1510.21246064
 Total energy in the final basis set = -1510.21246064
 
 --------------------------------------------------------------
 
                    Orbital Energies (a.u.)
 --------------------------------------------------------------
 
 Alpha MOs
 -- Occupied --
-18.942 -18.926 -18.924 -18.904 -18.900 -18.899 -18.899 -18.891
-18.876 -18.851 -10.115 -10.110 -10.108 -10.094 -10.080 -10.076
-10.075 -10.067 -10.067 -10.066 -10.065 -10.062 -10.048 -10.043
-10.042 -10.038 -10.022 -10.021 -10.021 -10.020  -1.032  -1.025
 -1.021  -1.012  -0.992  -0.990  -0.949  -0.943  -0.941  -0.927
 -0.775  -0.772  -0.734  -0.731  -0.723  -0.715  -0.706  -0.676
 -0.660  -0.621  -0.604  -0.587  -0.554  -0.553  -0.540  -0.539
 -0.522  -0.521  -0.492  -0.486  -0.477  -0.472  -0.461  -0.446
 -0.442  -0.440  -0.431  -0.422  -0.418  -0.413  -0.412  -0.407
 -0.401  -0.395  -0.383  -0.379  -0.373  -0.363  -0.361  -0.354
 -0.349  -0.347  -0.345  -0.342  -0.335  -0.332  -0.332  -0.318
 -0.313  -0.308  -0.308  -0.305  -0.300  -0.288  -0.286  -0.279
 -0.276  -0.254  -0.241  -0.241  -0.239  -0.236  -0.232  -0.183
 -0.176  -0.165  -0.164  -0.162  -0.158  -0.154  -0.150  -0.149
 -0.137
 -- Virtual --
  0.066   0.072   0.088   0.114   0.227   0.240   0.263   0.268
  0.269   0.281   0.297   0.301   0.314   0.323   0.333   0.339
  0.347   0.352   0.356   0.360   0.365   0.369   0.372   0.379
  0.386   0.387   0.390   0.395   0.399   0.404   0.406   0.411
  0.414   0.416   0.419   0.420   0.429   0.431   0.439   0.440
  0.441   0.445   0.449   0.451   0.456   0.457   0.465   0.465
  0.467   0.473   0.485   0.494   0.497   0.511   0.512   0.540
  0.544   0.549   0.552   0.632   0.633   0.651   0.659
 --------------------------------------------------------------
 
          Ground-State Mulliken Net Atomic Charges

     Atom                 Charge (a.u.)
  ----------------------------------------
      1 O                    -0.208720
      2 C                     0.208202
      3 C                    -0.080172
      4 C                    -0.080329
      5 C                     0.218231
      6 O                    -0.196675
      7 C                    -0.043127
      8 C                    -0.043111
      9 O                    -0.212354
     10 C                     0.228559
     11 C                    -0.081995
     12 C                    -0.081269
     13 C                     0.219347
     14 O                    -0.229237
     15 O                    -0.191017
     16 O                    -0.181834
     17 O                    -0.189283
     18 C                    -0.113900
     19 C                     0.031503
     20 C                    -0.142933
     21 C                    -0.145663
     22 C                     0.032350
     23 O                    -0.187703
     24 H                     0.085016
     25 H                     0.084382
     26 H                     0.086988
     27 H                     0.076896
     28 H                     0.073819
     29 H                     0.077039
     30 H                     0.072431
     31 H                     0.084160
     32 O                    -0.192333
     33 C                    -0.118888
     34 C                     0.033224
     35 C                    -0.144502
     36 C                    -0.145396
     37 C                     0.031355
     38 O                    -0.187384
     39 H                     0.088459
     40 H                     0.084327
     41 H                     0.087580
     42 H                     0.089652
     43 H                     0.078080
     44 H                     0.072887
     45 H                     0.077471
     46 H                     0.072671
     47 H                     0.084319
     48 H                     0.090395
     49 H                     0.100698
     50 H                     0.090865
     51 H                     0.090753
     52 H                     0.083203
     53 H                     0.092138
     54 H                     0.083651
     55 H                     0.096704
     56 H                     0.090469
  ----------------------------------------
  Sum of atomic charges =    -0.000000

 -----------------------------------------------------------------
                    Cartesian Multipole Moments
 -----------------------------------------------------------------
    Charge (ESU x 10^10)
                -0.0000
    Dipole Moment (Debye)
         X      -1.1128      Y       2.5821      Z      -2.4214
       Tot       3.7106
    Quadrupole Moments (Debye-Ang)
        XX    -176.4965     XY       7.3504     YY    -156.3095
        XZ      -6.8492     YZ      -3.6908     ZZ    -159.7213
    Octopole Moments (Debye-Ang^2)
       XXX     -96.5518    XXY      31.0575    XYY     -21.0285
       YYY     -29.0910    XXZ     -66.2363    XYZ      16.1355
       YYZ       7.4144    XZZ       1.1504    YZZ      -6.1197
       ZZZ      17.1575
    Hexadecapole Moments (Debye-Ang^3)
      XXXX  -14147.7214   XXXY     478.8802   XXYY   -2640.8826
      XYYY      65.8606   YYYY   -2789.1189   XXXZ     -31.7872
      XXYZ       7.4970   XYYZ      -2.2340   YYYZ      29.9944
      XXZZ   -2539.3532   XYZZ     -26.0549   YYZZ    -775.0692
      XZZZ      13.8172   YZZZ      19.3561   ZZZZ   -1770.2883
 -----------------------------------------------------------------
 Calculating analytic gradient of the SCF energy
 Gradient of SCF Energy
            1           2           3           4           5           6
    1  -0.0115647  -0.0162372   0.0074909   0.0011853   0.0002756   0.0193867
    2   0.0033246   0.0298054  -0.0058188  -0.0313316   0.0346012  -0.0260097
    3  -0.0140846   0.0187661   0.0044312  -0.0004178   0.0109820   0.0037399
            7           8           9          10          11          12
    1  -0.0125830   0.0152194  -0.0050212  -0.0140667  -0.0024594   0.0012924
    2   0.0198998   0.0116993  -0.0336847   0.0180151  -0.0068609  -0.0045730
    3  -0.0182445  -0.0049498  -0.0279787   0.0258984  -0.0007152   0.0073711
           13          14          15          16          17          18
    1  -0.0185570  -0.0039278   0.0230262   0.0170363   0.0127544   0.0017521
    2   0.0238441   0.0049194  -0.0432915  -0.0429963   0.0110772   0.0273563
    3   0.0009224   0.0138065   0.0101617  -0.0194119  -0.0013039   0.0055070
           19          20          21          22          23          24
    1  -0.0179137   0.0000951   0.0008866   0.0027296   0.0218413   0.0008536
    2  -0.0114233  -0.0138687  -0.0070320  -0.0000440   0.0079139   0.0017953
    3  -0.0137816  -0.0053137   0.0072650   0.0258188  -0.0136146  -0.0016319
           25          26          27          28          29          30
    1   0.0018041   0.0074736  -0.0048207   0.0007327  -0.0016800   0.0004476
    2  -0.0020834   0.0053913  -0.0013155   0.0036844   0.0030412  -0.0022218
    3  -0.0012176  -0.0001776   0.0005255   0.0006528   0.0048901  -0.0025159
           31          32          33          34          35          36
    1   0.0045863  -0.0084313   0.0004131   0.0067147  -0.0056423  -0.0034322
    2   0.0023852   0.0011797   0.0274605   0.0134121  -0.0001550  -0.0104631
    3  -0.0082171  -0.0089243  -0.0059199   0.0207308   0.0124666   0.0036226
           37          38          39          40          41          42
    1   0.0035142  -0.0195975   0.0025884  -0.0014070  -0.0001117  -0.0036956
    2  -0.0231405   0.0117525  -0.0018545   0.0017704   0.0019161   0.0020859
    3  -0.0067903  -0.0138856  -0.0050724  -0.0003058   0.0012462  -0.0097336
           43          44          45          46          47          48
    1   0.0040777   0.0003490   0.0040176  -0.0012914  -0.0044623   0.0000203
    2   0.0004336   0.0002101  -0.0032354   0.0021474   0.0080315   0.0008970
    3   0.0031210  -0.0030459  -0.0021505   0.0014260  -0.0023911  -0.0013276
           49          50          51          52          53          54
    1  -0.0006958  -0.0007839   0.0006934  -0.0005599  -0.0018857  -0.0035546
    2  -0.0018995  -0.0020626   0.0009127   0.0018600   0.0033389  -0.0014613
    3   0.0002707   0.0000844   0.0011333  -0.0006399   0.0005080   0.0053636
           55          56
    1   0.0041390  -0.0030144
    2  -0.0058718  -0.0034628
    3   0.0033272  -0.0002755
 Max gradient component =       4.329E-02
 RMS gradient           =       1.182E-02
 Gradient time:  CPU 31.78 s  wall 0.67 s
 Geometry Optimization Parameters
   NAtoms,    NIC,     NZ,  NCons,   NDum,   NFix, NCnnct, MaxDiis
       56     458       0       9       0       0       0       0

 Cartesian Hessian Update
 Hessian Updated using BFGS Update


** CONSTRAINED OPTIMIZATION IN DELOCALIZED INTERNAL COORDINATES **
   Searching for a Minimum

   Optimization Cycle:   3

                       Coordinates (Angstroms)
     ATOM                X               Y               Z
      1  O         3.5722948344   -2.5558518421   -0.1140661449
      2  C         2.8697266279   -1.5502601425   -0.3489919611
      3  C         3.3615819793   -0.1949811283   -0.9143152885
      4  C         3.4861652770    0.9985325116    0.0945257539
      5  C         3.2628782354    0.6250197122    1.5857465568
      6  O         1.9875513642    1.0551581890    2.0178248543
      7  C         1.1836939148   -0.0399986017    2.5434255668
      8  C         0.0881522105   -0.4754202497    1.5240986965
      9  O        -1.2075802339    0.0385740961    1.9696247624
     10  C        -2.2375497078   -0.3297559295    1.0771046346
     11  C        -2.6828244926    0.8562422896    0.1831225610
     12  C        -3.4580227013    0.4505606659   -1.1156818716
     13  C        -3.9626060297   -1.0163560371   -1.1487001218
     14  O        -3.4512733785   -1.9458781860   -1.8066251238
     15  O         1.4881118644   -1.6828940061   -0.5448515021
     16  O        -5.0318906105   -1.2282595973   -0.2723752304
     17  O        -2.5127911273   -1.5304958901    0.8787827710
     18  C        -5.5270466061   -2.5731188811   -0.2332886303
     19  C        -3.7079521231    1.8538469367    0.8454930929
     20  C        -3.5684447524    3.2411822045    0.1378194030
     21  C        -4.1692095670    2.9183908413   -1.2607407263
     22  C        -4.6717219518    1.4501619873   -1.0301094742
     23  O        -5.0149136379    1.4062900727    0.3859320375
     24  H        -1.7594144174    1.4072648875   -0.0830188887
     25  H        -2.8295478508    0.5839166678   -2.0161716409
     26  H        -3.6016546363    1.9351691616    1.9457283228
     27  H        -4.2394257988    3.9451546356    0.6631584435
     28  H        -2.5488598878    3.6639655485    0.1265126628
     29  H        -5.0181477885    3.5962991778   -1.4573981812
     30  H        -3.4515351824    2.9717461984   -2.0979732779
     31  H        -5.4966748211    1.1751534833   -1.7173613839
     32  O         3.9692085734   -0.1790641736    2.2261701147
     33  C         0.9601017563   -3.0068414422   -0.3667359420
     34  C         4.8484423593   -0.2804526801   -1.4349122363
     35  C         5.0868005814    0.8695897788   -2.4695355333
     36  C         5.1270836336    2.1081456803   -1.5318627535
     37  C         4.9867236265    1.4152759348   -0.1345167206
     38  O         5.6586378700    0.1331054585   -0.3000832759
     39  H         2.6995201880    0.0619146830   -1.7641767008
     40  H         2.7852061004    1.8154044711   -0.1650460668
     41  H         1.1476948483   -3.3942548194    0.6581232445
     42  H         5.1111813089   -1.2692770046   -1.8609349116
     43  H         6.0889413714    0.7200611767   -2.9104495606
     44  H         4.3420631373    0.9178617229   -3.2829622759
     45  H         6.1143541433    2.5956384761   -1.6151397132
     46  H         4.3332686573    2.8543180819   -1.7088143644
     47  H         5.3861028833    2.0455751458    0.6851283278
     48  H         1.4016917121   -3.7195750708   -1.0965479205
     49  H        -0.1332653521   -2.9505757343   -0.5351024561
     50  H        -6.3634668638   -2.5940103905    0.4920220995
     51  H        -4.7417450428   -3.2858177464    0.1010596666
     52  H        -5.9040883899   -2.9016758993   -1.2264472717
     53  H         0.3413605234   -0.1151313542    0.5025243503
     54  H         0.0282396804   -1.5867929296    1.5332566248
     55  H         0.7398180759    0.2194606194    3.5288438680
     56  H         1.8217740191   -0.9345255837    2.7311770215
   Point Group: c1    Number of degrees of freedom:   162


   Energy is  -1510.212460642

              Constraints and their Current Values
                                        Value     Constraint
   Dihedral:        1   2   3   4     -104.220     -104.211
   Dihedral:        3   4   5   6     -104.224     -104.211
   Dihedral:        4   5   6   7      123.131      123.158
   Dihedral:        5   6   7   8     -104.225     -104.211
   Dihedral:        6   7   8   9     -104.231     -104.211
   Dihedral:        7   8   9  10      179.999     -180.000
   Dihedral:        8   9  10  11     -104.190     -104.211
   Dihedral:        9  10  11  12      161.043      161.053
   Dihedral:       11  12  13  14     -104.204     -104.211
 Hessian Updated using BFGS Update

   Using Lagrange Multiplier Algorithm


162 Hessian modes will be used to form the next step
  Hessian Eigenvalues:
    -0.977755   -0.977753   -0.977753   -0.977753   -0.977753   -0.977753
    -0.977753   -0.977716   -0.962881    0.044639    0.045000    0.045023
     0.045177    0.045521    0.045591    0.045865    0.046202    0.048817
     0.048851    0.049432    0.054361    0.058459    0.059957    0.062361
     0.062681    0.066995    0.067036    0.067528    0.068244    0.069852
     0.071158    0.071679    0.073683    0.074172    0.075517    0.075987
     0.077257    0.077827    0.082460    0.082531    0.083031    0.084270
     0.084348    0.084437    0.085158    0.085581    0.086099    0.086630
     0.086785    0.087250    0.088501    0.088999    0.089084    0.089406
     0.089915    0.090047    0.093615    0.093791    0.096582    0.096640
     0.111589    0.111635    0.114577    0.114652    0.115799    0.115915
     0.116465    0.117132    0.117630    0.119139    0.119365    0.122891
     0.124034    0.130009    0.130924    0.132095    0.137463    0.141052
     0.159464    0.160014    0.161425    0.169656    0.171967    0.173138
     0.174599    0.206284    0.221099    0.223580    0.237778    0.239373
     0.240820    0.242721    0.243138    0.249540    0.254455    0.257987
     0.260045    0.267075    0.267279    0.277136    0.280713    0.284663
     0.288872    0.294799    0.297181    0.300329    0.304840    0.309469
     0.312040    0.316646    0.320020    0.320658    0.321177    0.321459
     0.321848    0.322097    0.322605    0.323060    0.323176    0.323268
     0.323509    0.323677    0.323904    0.324197    0.324298    0.324406
     0.324591    0.324680    0.324872    0.325003    0.325136    0.325184
     0.326105    0.326677    0.327129    0.327755    0.337896    0.367094
     0.368936    0.382440    0.395523    0.403010    0.412564    0.456819
     0.489693    0.513912    0.523879    0.532869    0.536228    0.930103
     0.942312    0.946316    0.993284    1.022753    1.022753    1.022753
     1.022753    1.022753    1.022753    1.022753    1.023324    1.072218

 Minimum Search - Taking P-RFO Step
 Searching for Lamda that Maximizes Along the Constraint modes Only
 Value Taken    Lamda =   0.00135006
 Searching for Lamda that Minimizes Along All other modes
 Value Taken    Lamda =  -0.05006159
 Calculated Step too Large.  Step scaled by  0.587142
 Step Taken.  Stepsize is  0.300000

                             Maximum     Tolerance    Cnvgd?
         Gradient            0.037375       0.000300      NO
         Displacement        0.096114       0.001200      NO
         Energy change     -0.038220       0.000001      NO


 New Cartesian Coordinates Obtained by Inverse Iteration

 Displacement from previous Coordinates is:  2.100485
 Adding empirical dispersion correction 
 ----------------------------------------------------------------
 Doing -D3(op) with
 s6 =   1.00000
 s8 =   0.78311
 a1 =   0.30000
 a2 =   4.25000
 n  =  10.00000
 -D3 energy without 3body term =     -0.0670275441 hartrees
 ----------------------------------------------------------------
             Standard Nuclear Orientation (Angstroms)
    I     Atom           X                Y                Z
 ----------------------------------------------------------------
    1      O       3.6789173945    -2.6290863580    -0.2835131212
    2      C       2.9515100645    -1.6272966442    -0.4660678841
    3      C       3.4084121299    -0.2145773371    -0.9483947028
    4      C       3.5092109775     0.9746348786     0.0993408131
    5      C       3.2673477962     0.6114815215     1.6091027248
    6      O       1.9706377394     1.0326724288     2.0673132012
    7      C       1.1156188373    -0.0256025317     2.6240234724
    8      C      -0.0173493362    -0.4598246634     1.6336573086
    9      O      -1.2909121653     0.1242489108     2.0967455963
   10      C      -2.3262000151    -0.2760579807     1.1864594546
   11      C      -2.7404304981     0.8905168492     0.2317951592
   12      C      -3.5008542467     0.4431256775    -1.0721223430
   13      C      -4.0108552534    -1.0369468774    -1.0522748141
   14      O      -3.4953987442    -1.9996086665    -1.6642492392
   15      O       1.5572764538    -1.7656907652    -0.7005520709
   16      O      -5.1269121416    -1.1713150197    -0.1891597636
   17      O      -2.6467210942    -1.4782259946     1.0459855413
   18      C      -5.5849147665    -2.5575558869    -0.1460390058
   19      C      -3.7661894195     1.9385335742     0.8393545281
   20      C      -3.5815640978     3.2961453529     0.0665316236
   21      C      -4.1645656250     2.9183372496    -1.3379683434
   22      C      -4.7102559828     1.4644906468    -1.0539768092
   23      O      -5.0878729226     1.4880150963     0.3712203154
   24      H      -1.8038381227     1.4137345963    -0.0367794806
   25      H      -2.8559205164     0.5373281370    -1.9642207403
   26      H      -3.6932617410     2.0516090433     1.9386169759
   27      H      -4.2376014934     4.0446063474     0.5422947831
   28      H      -2.5505404974     3.6850178127     0.0569876053
   29      H      -4.9912231328     3.6004226518    -1.5946213635
   30      H      -3.4251645651     2.9194348024    -2.1552595086
   31      H      -5.5349806348     1.1675154484    -1.7305396613
   32      O       3.9923378085    -0.1623800924     2.2731367362
[...]
     15  O         2.1053776654   -2.1443123930    0.3558156476
     16  O        -5.1455861980   -0.9903909154   -0.7003259839
     17  O        -2.8943301531   -1.3893176663    0.8475945336
     18  C        -5.5492013659   -2.4075021867   -0.8339100815
     19  C        -3.7326355051    2.0080298771    0.8662218380
     20  C        -3.5611580750    3.4320305642    0.2063387278
     21  C        -4.2351458038    3.1927305924   -1.1960098713
     22  C        -4.7232216460    1.6948048511   -1.0545089689
     23  O        -5.0574316596    1.5674077843    0.3840319682
     24  H        -1.7552950742    1.5403769381   -0.0414182107
     25  H        -2.8428670057    0.9976150541   -2.0840980425
     26  H        -3.6892518019    1.9884835336    1.9726676379
     27  H        -4.1056602351    4.1908632602    0.7908986624
     28  H        -2.5049443748    3.7351535169    0.1293262124
     29  H        -5.0923325567    3.8659765548   -1.3545764047
     30  H        -3.5290911362    3.3173396045   -2.0326157582
     31  H        -5.5961572230    1.4221621836   -1.6779713775
     32  O         3.9593398429   -0.4605045517    2.2281211836
     33  C         2.1879323200   -3.4894184653    0.9709089628
     34  C         4.5025136729   -0.2206015132   -1.9020884948
     35  C         4.3943098763    1.1495464377   -2.6809031562
     36  C         4.7819755912    2.1799634173   -1.5552006834
     37  C         4.9157969318    1.2171855374   -0.3110197002
     38  O         5.5593198940    0.0172389649   -0.8898486386
     39  H         2.2640963433   -0.3069191588   -1.5271157372
     40  H         2.7192159959    1.5510939275   -0.1228878167
     41  H         3.0118193500   -3.5459337669    1.7115762558
     42  H         4.7561912689   -1.1036049994   -2.5196860538
     43  H         5.1083753186    1.1749965063   -3.5190884547
     44  H         3.3801777461    1.3173872747   -3.0781057905
     45  H         5.7483036154    2.6639788809   -1.7692705588
     46  H         4.0188512349    2.9600554355   -1.4055220569
     47  H         5.5105791198    1.6073856574    0.5373408514
     48  H         2.3450881075   -4.2777284005    0.2073325784
     49  H         1.2201368553   -3.6549602201    1.4792210673
     50  H        -6.5270034140   -2.4958081450   -0.3258447930
     51  H        -4.8147863716   -3.0796215709   -0.3447759495
     52  H        -5.6515802178   -2.7074731506   -1.8970086607
     53  H         0.2322359351   -0.1434791828    0.4657071272
     54  H        -0.1756752898   -1.6898503890    1.2912237425
     55  H         0.5698306735    0.0519652104    3.4407961848
     56  H         1.6427132868   -1.2142058245    2.7306750000
   Point Group: c1    Number of degrees of freedom:   162


   Energy is  -1510.246739198

              Constraints and their Current Values
                                        Value     Constraint
   Dihedral:        1   2   3   4     -104.211     -104.211
   Dihedral:        3   4   5   6     -104.211     -104.211
   Dihedral:        4   5   6   7      123.158      123.158
   Dihedral:        5   6   7   8     -104.211     -104.211
   Dihedral:        6   7   8   9     -104.211     -104.211
   Dihedral:        7   8   9  10      180.000     -180.000
   Dihedral:        8   9  10  11     -104.211     -104.211
   Dihedral:        9  10  11  12      161.053      161.053
   Dihedral:       11  12  13  14     -104.211     -104.211
 Hessian Updated using BFGS Update

153 Hessian modes will be used to form the next step
  Hessian Eigenvalues:
     0.002214    0.003425    0.004762    0.014377    0.018296    0.024354
     0.032777    0.044523    0.045069    0.046058    0.046941    0.049283
     0.050166    0.051975    0.056690    0.060112    0.062152    0.065589
     0.067267    0.067761    0.068137    0.069694    0.071846    0.072512
     0.074243    0.074516    0.075923    0.076802    0.078296    0.079601
     0.082250    0.082804    0.082890    0.084192    0.084656    0.084834
     0.085236    0.086044    0.086585    0.086898    0.087387    0.087826
     0.089023    0.089231    0.089547    0.089869    0.091023    0.092032
     0.093595    0.094252    0.096662    0.096895    0.111497    0.111747
     0.114805    0.115312    0.115877    0.115921    0.116468    0.118204
     0.119564    0.121345    0.123137    0.123890    0.125208    0.130635
     0.132468    0.133158    0.153375    0.154541    0.160075    0.160191
     0.160592    0.160828    0.161999    0.163649    0.172128    0.172936
     0.190823    0.195135    0.220942    0.223313    0.236774    0.240289
     0.241270    0.244678    0.245360    0.248026    0.249930    0.251905
     0.253315    0.258043    0.263005    0.266174    0.266480    0.271375
     0.273234    0.279132    0.283678    0.286751    0.290111    0.296368
     0.298120    0.300045    0.306628    0.308421    0.310410    0.317172
     0.319643    0.321008    0.321296    0.321822    0.322125    0.322291
     0.322628    0.323053    0.323258    0.323364    0.323500    0.323762
     0.324152    0.324271    0.324503    0.324610    0.324902    0.325000
     0.325037    0.325144    0.325384    0.326086    0.326496    0.327066
     0.328215    0.330775    0.332722    0.354447    0.366898    0.368209
     0.392044    0.399833    0.411050    0.418680    0.458253    0.486093
     0.495508    0.516788    0.528564    0.552522    0.727056    0.931155
     0.943533    0.946376    1.019144

 Minimum Search - Taking Simple RFO Step
 Searching for Lamda that Minimizes Along All modes
 Value Taken    Lamda =   0.00000000
 Step Taken.  Stepsize is  0.009039

                             Maximum     Tolerance    Cnvgd?
         Gradient           0.000074      0.000300     YES
         Displacement       0.004569      0.001200      NO
         Energy change      0.000001      0.000001     YES

 Final energy is   -1510.24673919844     


 ******************************
 **  OPTIMIZATION CONVERGED  **
 ******************************

                       Coordinates (Angstroms)
     ATOM                X               Y               Z
      1  O         4.2557000371   -2.6759038714   -0.4705999891
      2  C         3.3084539814   -1.8686165589   -0.3693940958
      3  C         3.2225013028   -0.4258134256   -0.9901561411
      4  C         3.4451124628    0.7406555405    0.0676192209
      5  C         3.2209589533    0.2892882498    1.5542397336
      6  O         1.9438693332    0.7885225386    2.0264878719
      7  C         1.0625931216   -0.2950039927    2.5062380131
      8  C        -0.0645726436   -0.5928527671    1.4410805958
      9  O        -1.3173263799    0.0042305989    1.9540328649
     10  C        -2.3707914271   -0.2626748929    0.9794871647
     11  C        -2.7121004859    1.0189629477    0.1424201056
     12  C        -3.4723743296    0.7300010782   -1.2171840890
     13  C        -3.9172531752   -0.7702394521   -1.4009178237
     14  O        -3.3688778830   -1.6149798813   -2.1430820831
     15  O         2.1053776654   -2.1443123930    0.3558156476
     16  O        -5.1455861980   -0.9903909154   -0.7003259839
     17  O        -2.8943301531   -1.3893176663    0.8475945336
     18  C        -5.5492013659   -2.4075021867   -0.8339100815
     19  C        -3.7326355051    2.0080298771    0.8662218380
     20  C        -3.5611580750    3.4320305642    0.2063387278
     21  C        -4.2351458038    3.1927305924   -1.1960098713
     22  C        -4.7232216460    1.6948048511   -1.0545089689
     23  O        -5.0574316596    1.5674077843    0.3840319682
     24  H        -1.7552950742    1.5403769381   -0.0414182107
     25  H        -2.8428670057    0.9976150541   -2.0840980425
     26  H        -3.6892518019    1.9884835336    1.9726676379
     27  H        -4.1056602351    4.1908632602    0.7908986624
     28  H        -2.5049443748    3.7351535169    0.1293262124
     29  H        -5.0923325567    3.8659765548   -1.3545764047
     30  H        -3.5290911362    3.3173396045   -2.0326157582
     31  H        -5.5961572230    1.4221621836   -1.6779713775
     32  O         3.9593398429   -0.4605045517    2.2281211836
     33  C         2.1879323200   -3.4894184653    0.9709089628
     34  C         4.5025136729   -0.2206015132   -1.9020884948
     35  C         4.3943098763    1.1495464377   -2.6809031562
     36  C         4.7819755912    2.1799634173   -1.5552006834
     37  C         4.9157969318    1.2171855374   -0.3110197002
     38  O         5.5593198940    0.0172389649   -0.8898486386
     39  H         2.2640963433   -0.3069191588   -1.5271157372
     40  H         2.7192159959    1.5510939275   -0.1228878167
     41  H         3.0118193500   -3.5459337669    1.7115762558
     42  H         4.7561912689   -1.1036049994   -2.5196860538
     43  H         5.1083753186    1.1749965063   -3.5190884547
     44  H         3.3801777461    1.3173872747   -3.0781057905
     45  H         5.7483036154    2.6639788809   -1.7692705588
     46  H         4.0188512349    2.9600554355   -1.4055220569
     47  H         5.5105791198    1.6073856574    0.5373408514
     48  H         2.3450881075   -4.2777284005    0.2073325784
     49  H         1.2201368553   -3.6549602201    1.4792210673
     50  H        -6.5270034140   -2.4958081450   -0.3258447930
     51  H        -4.8147863716   -3.0796215709   -0.3447759495
     52  H        -5.6515802178   -2.7074731506   -1.8970086607
     53  H         0.2322359351   -0.1434791828    0.4657071272
     54  H        -0.1756752898   -1.6898503890    1.2912237425
     55  H         0.5698306735    0.0519652104    3.4407961848
     56  H         1.6427132868   -1.2142058245    2.7306750000

Z-matrix Print:
$molecule
0 1
O 
C  1 1.431548
O  2 1.248692 1 123.646859
C  1 1.481373 2 109.778336 3 1.337480 0
H  4 1.105628 1 106.144991 2 -177.885093 0
H  4 1.108684 1 111.564944 2 -58.637459 0
H  4 1.109311 1 111.400407 2 62.865595 0
C  2 1.573027 1 109.307452 3 179.941099 0
H  8 1.104989 2 109.745907 1 -49.767058 0
C  8 1.584981 2 107.558510 1 -174.313038 0
H  10 1.107011 8 113.752097 2 42.295936 0
O  10 1.482578 8 101.747743 2 -76.199452 0
C  12 1.479539 10 95.001353 8 -59.902717 0
H  13 1.107130 12 110.606997 10 178.171961 0
C  13 1.578872 12 102.892912 10 -57.618142 0
H  15 1.101502 13 112.550438 12 159.509877 0
H  15 1.101765 13 110.282976 12 -78.738968 0
C  15 1.574563 13 100.672312 12 38.978100 0
H  18 1.101404 15 111.674331 13 -122.482358 0
H  18 1.102000 15 112.618342 13 115.022100 0
C  8 1.590313 2 113.742773 1 75.850392 0
H  21 1.104549 8 109.357740 2 -138.169837 0
C  21 1.569719 8 113.517288 2 -19.673481 0
O  23 1.249605 21 126.789991 8 71.115276 0
O  23 1.450245 21 109.582153 8 -104.210996 0
C  25 1.476766 23 112.254475 21 123.158026 0
H  26 1.109884 25 111.188384 23 18.901318 0
H  26 1.112026 25 107.970493 23 138.020152 0
C  26 1.579170 25 110.194882 23 -104.211054 0
H  29 1.112746 26 110.367840 25 134.712457 0
H  29 1.114175 26 108.920831 25 16.504605 0
O  29 1.479534 26 107.121541 25 -104.210971 0
C  32 1.459715 29 107.807321 26 180.000000 0
O  33 1.249325 32 122.534346 29 74.820315 0
C  33 1.568365 32 111.343694 29 -104.211048 0
H  35 1.105055 33 106.615447 32 37.912585 0
C  35 1.584310 33 114.419030 32 161.053046 0
H  37 1.104281 35 110.851283 33 -113.980041 0
C  37 1.575562 35 114.157370 33 7.545357 0
O  39 1.251043 37 126.040688 35 -104.211001 0
O  39 1.431118 37 109.374550 35 82.259284 0
C  41 1.479511 39 109.711920 37 -178.300371 0
H  42 1.105452 41 106.040552 39 -176.728862 0
H  42 1.109217 41 111.096854 39 64.320251 0
H  42 1.109343 41 111.758876 39 -57.221003 0
C  37 1.588058 35 100.326828 33 126.999493 0
H  46 1.106822 37 114.447531 35 -158.383625 0
O  46 1.482338 37 102.990103 35 -38.594828 0
C  48 1.477071 46 95.103153 37 58.176221 0
H  49 1.107469 48 110.855892 46 -178.812861 0
C  49 1.578806 48 103.298783 46 56.989677 0
H  51 1.101545 49 112.430432 48 -157.568461 0
H  51 1.101826 49 110.227979 48 80.918728 0
C  51 1.574200 49 100.878393 48 -36.967469 0
H  54 1.101441 51 111.625030 49 120.068590 0
H  54 1.101794 51 112.635186 49 -117.344495 0
$end

 
 --------------------------------------------------------------
 
                    Orbital Energies (a.u.)
 --------------------------------------------------------------
 
 Alpha MOs
 -- Occupied --
-18.940 -18.925 -18.913 -18.913 -18.904 -18.895 -18.892 -18.891
-18.883 -18.862 -10.114 -10.108 -10.104 -10.093 -10.075 -10.073
-10.070 -10.066 -10.063 -10.063 -10.062 -10.055 -10.046 -10.042
-10.041 -10.038 -10.024 -10.024 -10.023 -10.023  -1.019  -1.015
 -1.008  -1.000  -0.974  -0.973  -0.946  -0.942  -0.936  -0.926
 -0.768  -0.765  -0.728  -0.725  -0.714  -0.708  -0.697  -0.669
 -0.653  -0.615  -0.601  -0.584  -0.550  -0.550  -0.541  -0.541
 -0.516  -0.514  -0.489  -0.480  -0.466  -0.462  -0.457  -0.443
 -0.437  -0.436  -0.424  -0.421  -0.412  -0.410  -0.406  -0.403
 -0.395  -0.385  -0.382  -0.369  -0.366  -0.361  -0.355  -0.352
 -0.348  -0.341  -0.338  -0.336  -0.332  -0.332  -0.330  -0.317
 -0.312  -0.310  -0.310  -0.303  -0.302  -0.290  -0.286  -0.280
 -0.277  -0.263  -0.249  -0.244  -0.243  -0.237  -0.237  -0.185
 -0.173  -0.168  -0.165  -0.163  -0.159  -0.155  -0.147  -0.147
 -0.143
 -- Virtual --
  0.064   0.073   0.097   0.109   0.218   0.234   0.245   0.251
  0.257   0.266   0.282   0.282   0.298   0.306   0.323   0.326
  0.331   0.336   0.342   0.345   0.357   0.357   0.358   0.369
  0.370   0.378   0.380   0.382   0.394   0.400   0.403   0.405
  0.406   0.409   0.415   0.418   0.423   0.426   0.429   0.431
  0.433   0.437   0.440   0.441   0.447   0.449   0.452   0.462
  0.463   0.463   0.482   0.487   0.492   0.497   0.499   0.534
  0.535   0.547   0.549   0.623   0.630   0.644   0.649
 --------------------------------------------------------------
 
          Ground-State Mulliken Net Atomic Charges

     Atom                 Charge (a.u.)
  ----------------------------------------
      1 O                    -0.201930
      2 C                     0.209987
      3 C                    -0.078594
      4 C                    -0.081781
      5 C                     0.214313
      6 O                    -0.192391
      7 C                    -0.043861
      8 C                    -0.044628
      9 O                    -0.198423
     10 C                     0.221813
     11 C                    -0.082174
     12 C                    -0.081756
     13 C                     0.210825
     14 O                    -0.222407
     15 O                    -0.179551
     16 O                    -0.165450
     17 O                    -0.177396
     18 C                    -0.126960
     19 C                     0.026985
     20 C                    -0.142662
     21 C                    -0.144999
     22 C                     0.027282
     23 O                    -0.183325
     24 H                     0.082456
     25 H                     0.082116
     26 H                     0.086548
     27 H                     0.079071
     28 H                     0.073868
     29 H                     0.078507
     30 H                     0.072906
     31 H                     0.086632
     32 O                    -0.192822
     33 C                    -0.130343
     34 C                     0.026376
     35 C                    -0.145447
     36 C                    -0.142343
     37 C                     0.024742
     38 O                    -0.184207
     39 H                     0.084243
     40 H                     0.084261
     41 H                     0.094158
     42 H                     0.089498
     43 H                     0.079467
     44 H                     0.072633
     45 H                     0.079153
     46 H                     0.073283
     47 H                     0.086275
     48 H                     0.092723
     49 H                     0.088667
     50 H                     0.088990
     51 H                     0.091741
     52 H                     0.086242
     53 H                     0.077899
     54 H                     0.084326
     55 H                     0.093892
     56 H                     0.091572
  ----------------------------------------
  Sum of atomic charges =    -0.000000

 -----------------------------------------------------------------
                    Cartesian Multipole Moments
 -----------------------------------------------------------------
    Charge (ESU x 10^10)
                -0.0000
    Dipole Moment (Debye)
         X      -1.1710      Y       2.2531      Z      -1.6757
       Tot       3.0423
    Quadrupole Moments (Debye-Ang)
        XX    -182.1167     XY       6.0042     YY    -152.5547
        XZ      -1.3511     YZ      -6.5451     ZZ    -160.2720
    Octopole Moments (Debye-Ang^2)
       XXX    -116.6730    XXY      40.2658    XYY     -20.8157
       YYY     -34.7940    XXZ     -36.4896    XYZ       0.4235
       YYZ      21.0988    XZZ       2.5945    YZZ      -4.6374
       ZZZ      33.6597
    Hexadecapole Moments (Debye-Ang^3)
      XXXX  -14412.1387   XXXY     969.5519   XXYY   -2695.2019
      XYYY     455.8585   YYYY   -3026.5722   XXXZ      83.2666
      XXYZ      24.7761   XYYZ      11.7355   YYYZ     130.4059
      XXZZ   -2568.1034   XYZZ     117.6780   YYZZ    -851.8875
      XZZZ    -113.3141   YZZZ     146.8607   ZZZZ   -2004.5321
 -----------------------------------------------------------------
Archival summary:
1\1\vega02.cac.cornell.edu\OPT\ProcedureUnspecified\STO-3G\102026\jj585\MonJan1513:58:542018MonJan1513:58:542018\0\\#,OPT,ProcedureUnspecified,STO-3G,\\0,1\O\C,1,1.43155\O,2,1.24869,1,123.647\C,1,1.48137,2,109.778,3,1.33748,0\H,4,1.10563,1,106.145,2,-177.885,0\H,4,1.10868,1,111.565,2,-58.6375,0\H,4,1.10931,1,111.4,2,62.8656,0\C,2,1.57303,1,109.307,3,179.941,0\H,8,1.10499,2,109.746,1,-49.7671,0\C,8,1.58498,2,107.559,1,-174.313,0\H,10,1.10701,8,113.752,2,42.2959,0\O,10,1.48258,8,101.748,2,-76.1995,0\C,12,1.47954,10,95.0014,8,-59.9027,0\H,13,1.10713,12,110.607,10,178.172,0\C,13,1.57887,12,102.893,10,-57.6181,0\H,15,1.1015,13,112.55,12,159.51,0\H,15,1.10177,13,110.283,12,-78.739,0\C,15,1.57456,13,100.672,12,38.9781,0\H,18,1.1014,15,111.674,13,-122.482,0\H,18,1.102,15,112.618,13,115.022,0\C,8,1.59031,2,113.743,1,75.8504,0\H,21,1.10455,8,109.358,2,-138.17,0\C,21,1.56972,8,113.517,2,-19.6735,0\O,23,1.2496,21,126.79,8,71.1153,0\O,23,1.45025,21,109.582,8,-104.211,0\C,25,1.47677,23,112.254,21,123.158,0\H,26,1.10988,25,111.188,23,18.9013,0\H,26,1.11203,25,107.97,23,138.02,0\C,26,1.57917,25,110.195,23,-104.211,0\H,29,1.11275,26,110.368,25,134.712,0\H,29,1.11417,26,108.921,25,16.5046,0\O,29,1.47953,26,107.122,25,-104.211,0\C,32,1.45971,29,107.807,26,180,0\O,33,1.24932,32,122.534,29,74.8203,0\C,33,1.56836,32,111.344,29,-104.211,0\H,35,1.10505,33,106.615,32,37.9126,0\C,35,1.58431,33,114.419,32,161.053,0\H,37,1.10428,35,110.851,33,-113.98,0\C,37,1.57556,35,114.157,33,7.54536,0\O,39,1.25104,37,126.041,35,-104.211,0\O,39,1.43112,37,109.375,35,82.2593,0\C,41,1.47951,39,109.712,37,-178.3,0\H,42,1.10545,41,106.041,39,-176.729,0\H,42,1.10922,41,111.097,39,64.3203,0\H,42,1.10934,41,111.759,39,-57.221,0\C,37,1.58806,35,100.327,33,126.999,0\H,46,1.10682,37,114.448,35,-158.384,0\O,46,1.48234,37,102.99,35,-38.5948,0\C,48,1.47707,46,95.1032,37,58.1762,0\H,49,1.10747,48,110.856,46,-178.813,0\C,49,1.57881,48,103.299,46,56.9897,0\H,51,1.10155,49,112.43,48,-157.568,0\H,51,1.10183,49,110.228,48,80.9187,0\C,51,1.5742,49,100.878,48,-36.9675,0\H,54,1.10144,51,111.625,49,120.069,0\H,54,1.10179,51,112.635,49,-117.344,0\\\@

 Total job time:  88.60s(wall), 4225.44s(cpu) 
 Mon Jan 15 13:58:54 2018

        *************************************************************
        *                                                           *
        *  Thank you very much for using Q-Chem.  Have a nice day.  *
        *                                                           *
        *************************************************************


0 sent ACK to 0 
now end server 0 ... 
