mFile = /opt/software/qchem/qchem-5.0.1//bin/mpi/machines
Process 0 of 1 is on vega02.cac.cornell.edu - thread support 0
initial socket setup ...start
initial socket setup ...done 
now start server 0 ... 
vega02.cac.cornell.edu 10.84.3
Q-Chem Developer Version! Running on 10.84.3.*
                  Welcome to Q-Chem
     A Quantum Leap Into The Future Of Chemistry


 Q-Chem 5.0, Q-Chem, Inc., Pleasanton, CA (2017)

 Yihan Shao,  Zhengting Gan,  E. Epifanovsky,  A. T. B. Gilbert,  M. Wormit,  
 J. Kussmann,  A. W. Lange,  A. Behn,  Jia Deng,  Xintian Feng,  D. Ghosh,  
 M. Goldey,  P. R. Horn,  L. D. Jacobson,  I. Kaliman,  T. Kus,  A. Landau,  
 Jie Liu,  E. I. Proynov,  R. M. Richard,  R. P. Steele,  E. J. Sundstrom,  
 H. L. Woodcock III,  P. M. Zimmerman,  D. Zuev,  B. Albrecht,  E. Alguire,  
 S. A. Baeppler,  Z. Benda,  Y. A. Bernard,  E. J. Berquist,  K. B. Bravaya,  
 D. Casanova,  Chun-Min Chang,  Yunqing Chen,  A. Chien,  K. D. Closser,  
 M. P. Coons,  S. Dasgupta,  M. Diedenhofen,  Hainam Do,  R. G. Edgar,  
 Po-Tung Fang,  S. Fatehi,  Qingguo Feng,  Qinghui Ge,  A. Ghysels,  
 J. Gomes,  J. Gonthier,  A. Gunina,  M. W. D. Hanson-Heine,  
 P. H. P. Harbach,  A. W. Hauser,  J. E. Herr,  E. G. Hohenstein,  
 Z. C. Holden,  Kerwin Hui,  T.-C. Jagau,  Hyunjun Ji,  B. Kaduk,  
 K. Khistyaev,  Jaehoon Kim,  P. Klunzinger,  K. Koh,  D. Kosenkov,  
 T. Kowalczyk,  C. M. Krauter,  A. Kunitsa,  Ka Un Lao,  A. Laurent,  
 K. V. Lawler,  Joonho Lee,  D. Lefrancois,  S. Lehtola,  D. S. Levine,  
 Yi-Pei Li,  You-Sheng Lin,  Fenglai Liu,  E. Livshits,  A. Luenser,  
 P. Manohar,  E. Mansoor,  S. F. Manzer,  Shan-Ping Mao,  Yuezhi Mao,  
 N. Mardirossian,  A. V. Marenich,  L. A. Martinez-Martinez,  S. A. Maurer,  
 N. J. Mayhall,  S. C. McKenzie,  J.-M. Mewes,  A. F. Morrison,  K. Nanda,  
 T. S. Nguyen-Beck,  R. Olivares-Amaya,  J. A. Parkhill,  T. M. Perrine,  
 F. Plasser,  S. Prager,  A. Prociuk,  D. R. Rehn,  F. Rob,  M. Schneider,  
 N. Sergueev,  S. M. Sharada,  S. Sharma,  D. W. Small,  T. Stauch,  
 T. Stein,  Yu-Chuan Su,  A. J. W. Thom,  T. Tsuchimochi,  L. Vogt,  
 O. Vydrov,  M. A. Watson,  J. Wenzel,  M. de Wergifosse,  T. A. Wesolowski,  
 A. White,  J. Witte,  A. Yamada,  Jun Yang,  K. Yao,  S. Yeganeh,  
 S. R. Yost,  Zhi-Qiang You,  A. Zech,  Igor Ying Zhang,  Xing Zhang,  
 Yan Zhao,  Ying Zhu,  B. R. Brooks,  G. K. L. Chan,  C. J. Cramer,  
 M. S. Gordon,  W. J. Hehre,  A. Klamt,  M. W. Schmidt,  C. D. Sherrill,  
 D. G. Truhlar,  A. Aspuru-Guzik,  R. Baer,  A. T. Bell,  N. A. Besley,  
 Jeng-Da Chai,  A. Dreuw,  B. D. Dunietz,  T. R. Furlani,  Chao-Ping Hsu,  
 Yousung Jung,  Jing Kong,  D. S. Lambrecht,  WanZhen Liang,  C. Ochsenfeld,  
 V. A. Rassolov,  L. V. Slipchenko,  J. E. Subotnik,  T. Van Voorhis,  
 J. M. Herbert,  A. I. Krylov,  P. M. W. Gill,  M. Head-Gordon

 Contributors to earlier versions of Q-Chem not listed above: 
 R. D. Adamson,  B. Austin,  J. Baker,  G. J. O. Beran,  K. Brandhorst,  
 S. T. Brown,  E. F. C. Byrd,  A. K. Chakraborty,  C.-L. Cheng,  
 Siu Hung Chien,  D. M. Chipman,  D. L. Crittenden,  H. Dachsel,  
 R. A. DiStasio Jr.,  R. J. Doerksen,  A. D. Dutoi,  L. Fusti-Molnar,  
 W. A. Goddard III,  A. Golubeva-Zadorozhnaya,  S. R. Gwaltney,  G. Hawkins,  
 A. Heyden,  S. Hirata,  G. Kedziora,  F. J. Keil,  C. Kelley,  Jihan Kim,  
 R. A. King,  R. Z. Khaliullin,  P. P. Korambath,  W. Kurlancheek,  
 A. M. Lee,  M. S. Lee,  S. V. Levchenko,  Ching Yeh Lin,  D. Liotard,  
 R. C. Lochan,  I. Lotan,  P. E. Maslen,  N. Nair,  D. P. O'Neill,  
 D. Neuhauser,  E. Neuscamman,  C. M. Oana,  R. Olson,  B. Peters,  
 R. Peverati,  P. A. Pieniazek,  Y. M. Rhee,  J. Ritchie,  M. A. Rohrdanz,  
 E. Rosta,  N. J. Russ,  H. F. Schaefer III,  N. E. Schultz,  N. Shenvi,  
 A. C. Simmonett,  A. Sodt,  D. Stuck,  K. S. Thanthiriwatte,  V. Vanovschi,  
 Tao Wang,  A. Warshel,  C. F. Williams,  Q. Wu,  X. Xu,  W. Zhang

 Please cite Q-Chem as follows:
 Y. Shao et al., Mol. Phys. 113, 184-215 (2015)
 DOI: 10.1080/00268976.2014.952696

 Q-Chem 5.0.1 for Intel X86 EM64T Linux

 Parts of Q-Chem use Armadillo 5.200.1 (Boston Tea Smuggler).
 http://arma.sourceforge.net/

 Q-Chem begins on Mon Jan 15 14:56:02 2018  

Host: vega02.cac.cornell.edu
0

     Scratch files written to /scratch/jj585/SOT1001/0827r.save//
 Parallel job on  1  processors

Checking the input file for inconsistencies... 	...done.

--------------------------------------------------------------
User input:
--------------------------------------------------------------
$molecule
0  1
O 0.9258325719 -1.3162360946 1.3763076058
C 2.0487863283 -0.8408682899 1.0849188117
C 2.8748311943 -1.2069566625 -0.1867382259
C 2.4584580874 -0.3398701231 -1.4520003776
C 1.6782119107 0.9969644894 -1.149359198
O 0.2634046913 0.7393794439 -1.0143031417
C -0.5074756322 1.8491391714 -1.6205490553
C -1.5524314708 2.6237278717 -0.7257561401
O -2.7693262721 1.9118319329 -0.2282333896
C -3.0957275201 0.8613617626 -1.1915260456
C -2.688952508 -0.5659889816 -0.6731239117
C -1.8119645062 -0.6435229671 0.6416665732
C -2.0144436481 0.5764270092 1.6251255472
O -2.9080484312 0.6728387527 2.4931880047
O 2.693912389 0.189026024 1.8202588684
O -0.8265901811 1.4200462032 1.6896476448
O -3.657364674 1.0951005853 -2.2805852088
C -1.0694094402 2.4885528014 2.6926635934
C -3.8696197459 -1.5879121648 -0.3364745977
C -3.3174860984 -3.030781725 -0.6621336638
C -2.246778665 -3.1933683531 0.4809544081
C -2.5034432757 -1.8907808964 1.3402001376
O -3.9452361019 -1.5979305731 1.138417242
H -2.1034920532 -0.9947432246 -1.5091721281
H -0.7320666805 -0.7859890784 0.4468503674
H -4.8506912418 -1.3358609477 -0.7840784896
H -4.1240902119 -3.7755382536 -0.5658646959
H -2.8861152707 -3.1035236824 -1.6732030845
H -2.4256133804 -4.0992909462 1.0812518869
H -1.214651551 -3.2217452007 0.0959212044
H -2.2785620827 -1.9878771792 2.41929494
O 2.1618832952 2.1490126745 -1.1646837966
C 1.7803086571 0.6570763537 2.8940436851
C 4.4403945599 -0.943392308 -0.1291576331
C 5.1104690085 -1.904224093 -1.1866197695
C 4.635977685 -1.2347077187 -2.5299326041
C 3.8968250291 0.0555574932 -1.993696422
O 4.6136394661 0.3933209671 -0.7412049628
H 2.6702871255 -2.2719278596 -0.3993051421
H 1.8613361972 -0.9354453647 -2.1658375708
H 1.7068800344 -0.0917096021 3.708589371
H 4.8756096587 -0.9660428788 0.8882037973
H 6.2075104187 -1.8746376204 -1.0890542142
H 4.772198996 -2.9476366066 -1.0841323325
H 5.4883144128 -0.9531496374 -3.1680012622
H 3.9611046633 -1.8834267374 -3.1115256597
H 3.8963128265 0.9235729664 -2.6806289159
H 0.7651610079 0.8517700593 2.4699750108
H 2.2290827749 1.5862634732 3.2887560376
H -0.1835870624 3.1488242886 2.6580877971
H -1.1796057788 2.0710462757 3.7138869333
H -1.9807950007 3.0721920147 2.4550200236
H -1.0414533586 3.0046320217 0.1776979579
H -1.8766794398 3.490627454 -1.3472085326
H -1.0295636343 1.4310616799 -2.5092245332
H 0.2095670183 2.6264239712 -1.9650134162
$end

$rem
JOBTYPE                   OPT
METHOD                    B3LYP
DFT_D                     d3_op
BASIS                     STO-3G
GEOM_OPT_MAX_CYCLES       100
GEOM_OPT_TOL_GRADIENT     300
GEOM_OPT_TOL_DISPLACEMENT 1200
GEOM_OPT_TOL_ENERGY       100
SYMMETRY                  False
THRESH                    12
SCF_CONVERGENCE           8
MAX_SUB_FILE_NUM          128
MEM_STATIC                400
MEM_TOTAL                 4000
$end
--------------------------------------------------------------
 Adding empirical dispersion correction 
 ----------------------------------------------------------------
 Doing -D3(op) with
 s6 =   1.00000
 s8 =   0.78311
 a1 =   0.30000
 a2 =   4.25000
 n  =  10.00000
 -D3 energy without 3body term =     -0.0778388967 hartrees
 ----------------------------------------------------------------
             Standard Nuclear Orientation (Angstroms)
    I     Atom           X                Y                Z
 ----------------------------------------------------------------
    1      O       0.6931493186    -0.8871699631     1.7303907997
    2      C       1.8355176051    -0.4210321325     1.5076413018
    3      C       2.8634809774    -1.0128471608     0.4944637674
    4      C       2.6323878126    -0.4816379435    -0.9855722660
    5      C       1.7793418918     0.8378285479    -1.1227706479
    6      O       0.3683143991     0.5299423924    -1.1446153798
    7      C      -0.3242738783     1.4239054600    -2.1009148860
    8      C      -1.5186099493     2.3140944761    -1.5777518278
    9      O      -2.7804944003     1.6587406764    -1.1158896167
   10      C      -2.9212885681     0.3995938618    -1.8457419278
   11      C      -2.5657047516    -0.8456066680    -0.9543538979
   12      C      -1.9085020997    -0.5694108636     0.4583010654
   13      C      -2.2972292766     0.8261633499     1.0889603217
   14      O      -3.3203279682     1.0604294650     1.7670057607
   15      O       2.3278082807     0.7864341593     2.0709085349
   16      O      -1.1572866153     1.7347425156     1.1321683436
   17      O      -3.3074527393     0.3458615695    -3.0306934308
   18      C      -1.5850153007     2.9849991792     1.8108545619
   19      C      -3.7580676419    -1.8364475223    -0.5694642789
   20      C      -3.1236879285    -3.2783828586    -0.4638100078
   21      C      -2.2456625738    -3.1116152582     0.8326309680
   22      C      -2.6701456018    -1.6671357574     1.3165805099
   23      O      -4.0682403597    -1.5176866307     0.8388355896
   24      H      -1.8431691623    -1.4148930111    -1.5703296660
   25      H      -0.8080175390    -0.6847663929     0.4657906859
   26      H      -4.6611625291    -1.7535454582    -1.2050169617
   27      H      -3.9156917181    -4.0308172620    -0.3185080363
   28      H      -2.5344686348    -3.5506911679    -1.3539236890
   29      H      -2.4945894740    -3.8678206799     1.5936982592
   30      H      -1.1648674766    -3.1620017821     0.6236205639
   31      H      -2.6182453613    -1.5037583514     2.4097680600
   32      O       2.2291590003     1.9844196452    -1.3334393373
   33      C       1.2424316359     1.4272247327     2.8571029782
   34      C       4.3923184462    -0.6462531134     0.7225758968
   35      C       5.2475689453    -1.7775629022     0.0303993286
   36      C       4.9767349350    -1.4596706220    -1.4873216603
   37      C       4.1281005228    -0.1301484744    -1.3830590017
   38      O       4.6264209959     0.5257474981    -0.1509392283
   39      H       2.7232804594    -2.1089117178     0.5076137531
   40      H       2.1727507092    -1.2590336471    -1.6221393180
   41      H       1.0591828326     0.8787384418     3.8032211048
   42      H       4.6597119580    -0.4113689861     1.7705642876
   43      H       6.3137548710    -1.6585357947     0.2813462793
   44      H       4.9244757465    -2.7898090440     0.3212747019
   45      H       5.9125223654    -1.2770966589    -2.0385503754
   46      H       4.4206095264    -2.2636895652    -1.9960637481
   47      H       4.2148851507     0.5584796760    -2.2453739523
   48      H       0.3034371419     1.4575640193     2.2524266209
   49      H       1.5980403862     2.4476233440     3.0871330712
   50      H      -0.7225093658     3.6741645738     1.7563588847
   51      H      -1.8461940428     2.8029748093     2.8729302821
   52      H      -2.4615251920     3.4420248725     1.3102641470
   53      H      -1.1687214593     2.9202761605    -0.7218676535
   54      H      -1.7617261632     2.9962984265    -2.4253053564
   55      H      -0.6865231016     0.7842331929    -2.9356026520
   56      H       0.4181895697     2.1463213985    -2.5056873635
 ----------------------------------------------------------------
 Molecular Point Group                 C1    NOp =  1
 Largest Abelian Subgroup              C1    NOp =  1
 Nuclear Repulsion Energy =  3373.3582583893 hartrees
 There are      113 alpha and      113 beta electrons
 Requested basis set is STO-3G
 There are 86 shells and 176 basis functions

 Total QAlloc Memory Limit   4000 MB
 Mega-Array Size       392 MB
 MEM_STATIC part       400 MB
 A cutoff of  1.0D-12 yielded   2587 shell pairs
 There are     12253 function pairs
 
 -------------------------------------------------------
 OpenMP Integral Computing Module                       
 Release: version 1.0, May 2013, Q-Chem Inc. Pittsburgh 
 -------------------------------------------------------
 Integral Job Info:
 Integral job number is                      11
 Integral operator is                         1
 short-range coefficients                     0
 long-range coefficients              100000000
 Omega coefficients                           0
 if combine SR and LR in K                    0
 Integral screening is                        0
 Integral computing path is                   2
 max size of driver memory is            800000
 size of driver memory is                 45569
 size of scratch memory is              1046100
 max col of scratch BK array                289
 max len of scratch array in speh3           22
 max len of scratch index in speh4            8
 max int batch size is                      520
 min int batch size is                       52
 fixed nKL is                                52
 max L of basis functions is                  1
 order of int derivative is                   0
 number of shells is                         86
 number of basis is                         176
 number of cartesian basis is               176
 number of contracted shell pairs          2587
 number of primitive shell pairs          12791
 maxK2 (contraction) of shell pair            9
 max number of K2 of shell pair               1
 max number of CS2 of shell pair            424
 max number of PS2 of shell pair           1380
 mem total for path MDJ                   53962
 -------------------------------------------------------
 Smallest overlap matrix eigenvalue = 2.13E-01

 Scale SEOQF with 1.000000e-02/1.000000e-01/1.000000e-01

 Standard Electronic Orientation quadrupole field applied
 Nucleus-field energy     =    -0.0000000063 hartrees
 Guess from superposition of atomic densities
 Warning:  Energy on first SCF cycle will be non-variational
 A restricted hybrid HF-DFT SCF calculation will be
 performed using Pulay DIIS extrapolation
 Exchange:     0.2000 Hartree-Fock + 0.0800 Slater + 0.7200 B88
 Correlation:  0.1900 VWN1RPA + 0.8100 LYP
 Using SG-1 standard quadrature grid
 Dispersion:   Grimme D3
 SCF converges when DIIS error is below 1.0E-08
 using 48 threads for integral computing
 -------------------------------------------------------
 OpenMP Integral computing Module                
 Release: version 1.0, May 2013, Q-Chem Inc. Pittsburgh 
 -------------------------------------------------------
 -------------------------------------------------------
 OpenMP BLAS3 based DFT computing Module                
 Release: version 1.0, May 2013, Q-Chem Inc. Pittsburgh 
 -------------------------------------------------------
 ---------------------------------------
  Cycle       Energy         DIIS Error
 ---------------------------------------
    1   -1507.5858558141      7.44E-02
    2   -1509.6930584528      1.06E-02
    3   -1507.3374567975      2.71E-02
    4   -1510.1695614849      4.25E-03
    5   -1510.2434137923      1.44E-03
    6   -1510.2510614380      5.95E-04
    7   -1510.2525536278      1.39E-04
    8   -1510.2526314312      4.34E-05
    9   -1510.2526362532      2.97E-05
   10   -1510.2526400429      4.62E-06
   11   -1510.2526401346      1.55E-06
   12   -1510.2526401452      3.73E-07
   13   -1510.2526401455      2.72E-07
   14   -1510.2526401458      5.08E-08
   15   -1510.2526401457      1.17E-08
   16   -1510.2526401458      4.44E-09 Convergence criterion met
 ---------------------------------------
 SCF time:  CPU 134.50 s  wall 2.86 s
 SCF   energy in the final basis set = -1510.25264015
 Total energy in the final basis set = -1510.25264015
 
 --------------------------------------------------------------
 
                    Orbital Energies (a.u.)
 --------------------------------------------------------------
 
 Alpha MOs
 -- Occupied --
-18.938 -18.933 -18.924 -18.918 -18.910 -18.894 -18.892 -18.882
-18.873 -18.857 -10.116 -10.110 -10.102 -10.087 -10.078 -10.075
-10.064 -10.064 -10.058 -10.058 -10.050 -10.047 -10.046 -10.043
-10.033 -10.025 -10.024 -10.021 -10.016 -10.013  -1.021  -1.015
 -1.013  -0.998  -0.974  -0.964  -0.948  -0.941  -0.936  -0.921
 -0.769  -0.756  -0.730  -0.719  -0.713  -0.707  -0.697  -0.658
 -0.654  -0.618  -0.599  -0.586  -0.552  -0.543  -0.539  -0.532
 -0.518  -0.504  -0.485  -0.475  -0.467  -0.462  -0.449  -0.447
 -0.437  -0.433  -0.426  -0.420  -0.413  -0.407  -0.401  -0.396
 -0.395  -0.388  -0.375  -0.369  -0.362  -0.359  -0.353  -0.350
 -0.346  -0.341  -0.337  -0.335  -0.328  -0.328  -0.323  -0.317
 -0.312  -0.310  -0.304  -0.301  -0.294  -0.290  -0.283  -0.274
 -0.269  -0.259  -0.250  -0.247  -0.243  -0.237  -0.227  -0.185
 -0.181  -0.169  -0.166  -0.164  -0.161  -0.155  -0.147  -0.142
 -0.132
 -- Virtual --
  0.067   0.079   0.094   0.114   0.214   0.231   0.242   0.252
  0.263   0.267   0.283   0.286   0.291   0.300   0.320   0.322
  0.330   0.335   0.342   0.343   0.345   0.356   0.365   0.369
  0.376   0.381   0.385   0.397   0.398   0.405   0.408   0.411
  0.415   0.419   0.421   0.423   0.425   0.430   0.431   0.434
  0.435   0.438   0.446   0.449   0.451   0.456   0.465   0.468
  0.474   0.476   0.486   0.486   0.495   0.502   0.522   0.531
  0.548   0.548   0.558   0.617   0.624   0.639   0.653
 --------------------------------------------------------------
 
          Ground-State Mulliken Net Atomic Charges

     Atom                 Charge (a.u.)
  ----------------------------------------
      1 O                    -0.221321
      2 C                     0.208551
      3 C                    -0.080367
      4 C                    -0.076583
      5 C                     0.212421
      6 O                    -0.180653
      7 C                    -0.057906
      8 C                    -0.053446
      9 O                    -0.181089
     10 C                     0.222120
     11 C                    -0.084162
     12 C                    -0.085235
     13 C                     0.214645
     14 O                    -0.215920
     15 O                    -0.165271
     16 O                    -0.178207
     17 O                    -0.182910
     18 C                    -0.132829
     19 C                     0.025695
     20 C                    -0.141723
     21 C                    -0.145383
     22 C                     0.028539
     23 O                    -0.184800
     24 H                     0.083362
     25 H                     0.110476
     26 H                     0.084373
     27 H                     0.077134
     28 H                     0.071307
     29 H                     0.076557
     30 H                     0.076397
     31 H                     0.085940
     32 O                    -0.197891
     33 C                    -0.144760
     34 C                     0.025581
     35 C                    -0.142581
     36 C                    -0.145440
     37 C                     0.025877
     38 O                    -0.183763
     39 H                     0.083324
     40 H                     0.084964
     41 H                     0.079852
     42 H                     0.089064
     43 H                     0.079062
     44 H                     0.073516
     45 H                     0.079307
     46 H                     0.072870
     47 H                     0.087087
     48 H                     0.111576
     49 H                     0.083722
     50 H                     0.085053
     51 H                     0.088505
     52 H                     0.091026
     53 H                     0.101637
     54 H                     0.083432
     55 H                     0.081606
     56 H                     0.097661
  ----------------------------------------
  Sum of atomic charges =     0.000000

 -----------------------------------------------------------------
                    Cartesian Multipole Moments
 -----------------------------------------------------------------
    Charge (ESU x 10^10)
                 0.0000
    Dipole Moment (Debye)
         X       3.0933      Y      -1.7893      Z      -1.1445
       Tot       3.7523
    Quadrupole Moments (Debye-Ang)
        XX    -177.5043     XY      -7.6644     YY    -152.2278
        XZ       0.8744     YZ       3.3003     ZZ    -156.9871
    Octopole Moments (Debye-Ang^2)
       XXX      58.3605    XXY     -46.6142    XYY     -25.0300
       YYY      39.3041    XXZ     -17.2450    XYZ      -0.3695
       YYZ       8.0039    XZZ      28.9156    YZZ      20.9204
       ZZZ      28.3773
    Hexadecapole Moments (Debye-Ang^3)
      XXXX   -8719.1393   XXXY    -107.3507   XXYY   -1870.7055
      XYYY      -9.3167   YYYY   -2643.2622   XXXZ      80.1057
      XXYZ      16.8132   XYYZ      19.7749   YYYZ      10.2855
      XXZZ   -1856.6899   XYZZ      14.5254   YYZZ    -794.6601
      XZZZ     -61.5114   YZZZ      -8.2697   ZZZZ   -2277.6748
 -----------------------------------------------------------------
 Calculating analytic gradient of the SCF energy
 Gradient of SCF Energy
            1           2           3           4           5           6
    1  -0.0011512   0.0011179   0.0033125  -0.0045051   0.0010062   0.0019840
    2   0.0018322  -0.0031829   0.0043813  -0.0034198  -0.0001500   0.0055708
    3  -0.0020126   0.0030329  -0.0004341  -0.0034700   0.0047874   0.0003687
            7           8           9          10          11          12
    1  -0.0001510   0.0037017  -0.0147303   0.0087216  -0.0099882   0.0107357
    2  -0.0056525  -0.0042557   0.0025107   0.0022788   0.0039613  -0.0052342
    3   0.0038808   0.0019110  -0.0012782  -0.0078839   0.0050718  -0.0001735
           13          14          15          16          17          18
    1  -0.0045241   0.0043144   0.0000616   0.0000898  -0.0000490  -0.0000241
    2   0.0040655  -0.0022333  -0.0000053   0.0000895  -0.0001503   0.0000633
    3  -0.0115304   0.0070811   0.0000958   0.0000068   0.0000864   0.0001134
           19          20          21          22          23          24
    1   0.0002475  -0.0000151   0.0001588  -0.0002265  -0.0001432  -0.0001339
    2   0.0002921   0.0000420  -0.0001476   0.0000896  -0.0000246  -0.0001689
    3  -0.0001194  -0.0002113   0.0000952   0.0004641   0.0000284   0.0001340
           25          26          27          28          29          30
    1   0.0001056  -0.0000255  -0.0000548  -0.0000387   0.0000048   0.0000145
    2   0.0000108   0.0000083  -0.0000532  -0.0000743  -0.0000134   0.0001544
    3  -0.0000753   0.0000582  -0.0000674   0.0000850   0.0000951  -0.0000287
           31          32          33          34          35          36
    1   0.0000277  -0.0000216  -0.0000543  -0.0000304   0.0000575  -0.0000562
    2  -0.0000265   0.0001155  -0.0000004   0.0000048  -0.0000862  -0.0000150
    3  -0.0000015  -0.0000550  -0.0000233  -0.0000269   0.0002847   0.0003449
           37          38          39          40          41          42
    1   0.0004087   0.0001149  -0.0000553  -0.0000387   0.0000964  -0.0000654
    2  -0.0003182   0.0000489  -0.0000873  -0.0000410   0.0000077  -0.0000619
    3  -0.0000622   0.0000811  -0.0001493   0.0000324   0.0000161  -0.0000158
           43          44          45          46          47          48
    1  -0.0000457  -0.0000408  -0.0001328   0.0000674   0.0000239  -0.0000483
    2   0.0000288   0.0000960   0.0000796  -0.0000555   0.0000766  -0.0000147
    3  -0.0000892  -0.0001107  -0.0000307  -0.0001284  -0.0000793   0.0000580
           49          50          51          52          53          54
    1   0.0000089   0.0000238  -0.0000206   0.0000398  -0.0000322   0.0000243
    2  -0.0000184  -0.0000464  -0.0000762   0.0000060   0.0000142  -0.0000634
    3  -0.0000591   0.0000126  -0.0000314   0.0000172   0.0000596  -0.0000131
           55          56
    1  -0.0000946   0.0000271
    2  -0.0000879  -0.0000632
    3   0.0000103  -0.0001523
 Max gradient component =       1.473E-02
 RMS gradient           =       2.608E-03
 Gradient time:  CPU 35.57 s  wall 0.76 s
 Geometry Optimization Parameters
   NAtoms,    NIC,     NZ,  NCons,   NDum,   NFix, NCnnct, MaxDiis
       56     458       0       0       0       0       0       0


** GEOMETRY OPTIMIZATION IN DELOCALIZED INTERNAL COORDINATES **
   Searching for a Minimum

   Optimization Cycle:   1

                       Coordinates (Angstroms)
     ATOM                X               Y               Z
      1  O         0.6931493186   -0.8871699631    1.7303907997
      2  C         1.8355176051   -0.4210321325    1.5076413018
      3  C         2.8634809774   -1.0128471608    0.4944637674
      4  C         2.6323878126   -0.4816379435   -0.9855722660
      5  C         1.7793418918    0.8378285479   -1.1227706479
      6  O         0.3683143991    0.5299423924   -1.1446153798
      7  C        -0.3242738783    1.4239054600   -2.1009148860
      8  C        -1.5186099493    2.3140944761   -1.5777518278
      9  O        -2.7804944003    1.6587406764   -1.1158896167
     10  C        -2.9212885681    0.3995938618   -1.8457419278
     11  C        -2.5657047516   -0.8456066680   -0.9543538979
     12  C        -1.9085020997   -0.5694108636    0.4583010654
     13  C        -2.2972292766    0.8261633499    1.0889603217
     14  O        -3.3203279682    1.0604294650    1.7670057607
     15  O         2.3278082807    0.7864341593    2.0709085349
     16  O        -1.1572866153    1.7347425156    1.1321683436
     17  O        -3.3074527393    0.3458615695   -3.0306934308
     18  C        -1.5850153007    2.9849991792    1.8108545619
     19  C        -3.7580676419   -1.8364475223   -0.5694642789
     20  C        -3.1236879285   -3.2783828586   -0.4638100078
     21  C        -2.2456625738   -3.1116152582    0.8326309680
     22  C        -2.6701456018   -1.6671357574    1.3165805099
     23  O        -4.0682403597   -1.5176866307    0.8388355896
     24  H        -1.8431691623   -1.4148930111   -1.5703296660
     25  H        -0.8080175390   -0.6847663929    0.4657906859
     26  H        -4.6611625291   -1.7535454582   -1.2050169617
     27  H        -3.9156917181   -4.0308172620   -0.3185080363
     28  H        -2.5344686348   -3.5506911679   -1.3539236890
     29  H        -2.4945894740   -3.8678206799    1.5936982592
     30  H        -1.1648674766   -3.1620017821    0.6236205639
     31  H        -2.6182453613   -1.5037583514    2.4097680600
     32  O         2.2291590003    1.9844196452   -1.3334393373
     33  C         1.2424316359    1.4272247327    2.8571029782
     34  C         4.3923184462   -0.6462531134    0.7225758968
     35  C         5.2475689453   -1.7775629022    0.0303993286
     36  C         4.9767349350   -1.4596706220   -1.4873216603
     37  C         4.1281005228   -0.1301484744   -1.3830590017
     38  O         4.6264209959    0.5257474981   -0.1509392283
     39  H         2.7232804594   -2.1089117178    0.5076137531
     40  H         2.1727507092   -1.2590336471   -1.6221393180
     41  H         1.0591828326    0.8787384418    3.8032211048
     42  H         4.6597119580   -0.4113689861    1.7705642876
     43  H         6.3137548710   -1.6585357947    0.2813462793
     44  H         4.9244757465   -2.7898090440    0.3212747019
     45  H         5.9125223654   -1.2770966589   -2.0385503754
     46  H         4.4206095264   -2.2636895652   -1.9960637481
     47  H         4.2148851507    0.5584796760   -2.2453739523
     48  H         0.3034371419    1.4575640193    2.2524266209
     49  H         1.5980403862    2.4476233440    3.0871330712
     50  H        -0.7225093658    3.6741645738    1.7563588847
     51  H        -1.8461940428    2.8029748093    2.8729302821
     52  H        -2.4615251920    3.4420248725    1.3102641470
     53  H        -1.1687214593    2.9202761605   -0.7218676535
     54  H        -1.7617261632    2.9962984265   -2.4253053564
     55  H        -0.6865231016    0.7842331929   -2.9356026520
     56  H         0.4181895697    2.1463213985   -2.5056873635
   Point Group: c1    Number of degrees of freedom:   162


   Energy is  -1510.252640146


 Attempting to Generate Delocalized Internal Coordinates

161 Hessian modes will be used to form the next step
  Hessian Eigenvalues:
     0.002000    0.002000    0.002000    0.002000    0.002000    0.002754
     0.002791    0.003073    0.003321    0.004333    0.004335    0.004416
     0.004924    0.004931    0.006127    0.006796    0.006829    0.007421
     0.007924    0.009773    0.012944    0.021423    0.021610    0.024878
     0.025846    0.030661    0.030796    0.034549    0.035443    0.037665
     0.038902    0.039442    0.040007    0.041628    0.042243    0.044414
     0.044519    0.047646    0.048647    0.050948    0.051372    0.053534
     0.054714    0.054969    0.055011    0.055315    0.056284    0.057607
     0.058090    0.058517    0.060046    0.060467    0.060841    0.063122
     0.063278    0.064517    0.064540    0.069454    0.069919    0.073181
     0.073329    0.091366    0.091548    0.092893    0.093187    0.096495
     0.096598    0.097261    0.098558    0.102241    0.103485    0.110911
     0.111652    0.119734    0.120440    0.121380    0.124275    0.142660
     0.143012    0.157117    0.158489    0.160000    0.160000    0.160000
     0.160000    0.160000    0.160000    0.164725    0.164828    0.217959
     0.220268    0.222047    0.222228    0.225991    0.229223    0.238149
     0.238500    0.239177    0.239497    0.243763    0.243834    0.246250
     0.249441    0.249952    0.250000    0.250000    0.250000    0.250000
     0.250000    0.250000    0.250000    0.250000    0.252484    0.252558
     0.253179    0.253415    0.254635    0.258535    0.268213    0.292197
     0.292482    0.306822    0.308490    0.318435    0.320935    0.323625
     0.323687    0.327217    0.327315    0.328094    0.328746    0.329028
     0.329138    0.329256    0.329439    0.329684    0.329692    0.330672
     0.330956    0.331273    0.331448    0.331567    0.334551    0.334551
     0.334650    0.334873    0.334999    0.335003    0.335301    0.335376
     0.339457    0.339475    0.344555    0.366933    0.371687    0.389890
     0.423971    0.818639    0.834014    0.834060    0.841879

 Minimum Search - Taking Simple RFO Step
 Searching for Lamda that Minimizes Along All modes
 Value Taken    Lamda =  -0.03659938
 Calculated Step too Large.  Step scaled by  0.325355
 Step Taken.  Stepsize is  0.300000

                             Maximum     Tolerance    Cnvgd?
         Gradient           0.019240      0.000300      NO
         Displacement       0.136294      0.001200      NO
         Energy change     *********      0.000001      NO


 New Cartesian Coordinates Obtained by Inverse Iteration

 Displacement from previous Coordinates is:  4.506589
 Adding empirical dispersion correction 
 ----------------------------------------------------------------
 Doing -D3(op) with
 s6 =   1.00000
 s8 =   0.78311
 a1 =   0.30000
 a2 =   4.25000
 n  =  10.00000
 -D3 energy without 3body term =     -0.0736493900 hartrees
 ----------------------------------------------------------------
             Standard Nuclear Orientation (Angstroms)
    I     Atom           X                Y                Z
 ----------------------------------------------------------------
    1      O       0.8676490549    -0.9843182601     1.5876981962
    2      C       2.0016720128    -0.4940974640     1.3742105415
    3      C       3.0413152458    -1.0512224372     0.3534689502
    4      C       2.8155044153    -0.4829239265    -1.1134295898
    5      C       1.9498893964     0.8310981929    -1.2219495238
    6      O       0.5406097888     0.5145533146    -1.2334990426
    7      C      -0.1715150849     1.4450550627    -2.1395486682
    8      C      -1.3572810855     2.3111141789    -1.5593367376
    9      O      -2.6059988621     1.6356022785    -1.0904799581
   10      C      -2.7075971503     0.3529255912    -1.7849455037
   11      C      -2.5204529310    -0.8657504486    -0.8097060851
   12      C      -2.1486097823    -0.5418328568     0.6957115865
   13      C      -2.6494003853     0.8711737997     1.1948992321
   14      O      -3.7960501860     1.1344364295     1.6159671178
   15      O       2.4770112437     0.7055141313     1.9679676618
   16      O      -1.5394875127     1.7847650942     1.4401744480
   17      O      -2.9285928548     0.2635857641    -3.0094160648
   18      C      -2.0942429517     3.0610553420     1.9598257456
   19      C      -3.7752025229    -1.8385590730    -0.6240905073
   20      C      -3.1856559780    -3.2782222301    -0.3551066833
   21      C      -2.5689694077    -3.0712146324     1.0787422071
   22      C      -3.0670660680    -1.6110624489     1.4262873581
   23      O      -4.3463623194    -1.4742744656     0.6872882266
   24      H      -1.7062211650    -1.4597419895    -1.2677985866
   25      H      -1.0720210550    -0.6565236512     0.9240202528
   26      H      -4.5408238645    -1.7729494933    -1.4215307578
   27      H      -3.9973717008    -4.0234347699    -0.3393560007
   28      H      -2.4405141645    -3.5806850502    -1.1080908558
   29      H      -2.9645964982    -3.8016651173     1.8018476579
   30      H      -1.4686125473    -3.1306909427     1.0814868358
   31      H      -3.2244443282    -1.4116802014     2.5032874566
   32      O       2.3892969784     1.9875383285    -1.3977393668
   33      C       1.3817594031     1.3124451017     2.7672372377
   34      C       4.5653349177    -0.6747611230     0.5998532219
   35      C       5.4361217967    -1.7794636719    -0.1157675790
   36      C       5.1713696831    -1.4254860786    -1.6266476061
   37      C       4.3092461647    -0.1072198922    -1.4935718184
   38      O       4.7933638857     0.5214910223    -0.2419666796
   39      H       2.9127363104    -2.1486521927     0.3390984879
   40      H       2.3662786916    -1.2483423328    -1.7715574873
   41      H       1.2031750097     0.7380766283     3.6987796290
   42      H       4.8242411349    -0.4638916059     1.6550757626
   43      H       6.4995570769    -1.6564789853     0.1448793057
   44      H       5.1214354977    -2.8019571817     0.1473393218
   45      H       6.1087061364    -1.2200835236    -2.1671859814
   46      H       4.6260201294    -2.2215302683    -2.1589835642
   47      H       4.3941399666     0.6041009873    -2.3373902114
   48      H       0.4439586425     1.3459493728     2.1608864628
   49      H       1.7236281451     2.3312285473     3.0237878596
   50      H      -1.2360777385     3.7505702017     2.0596662168
   51      H      -2.5748457992     2.9234410093     2.9494974862
   52      H      -2.8427933358     3.4931378165     1.2664665058
   53      H      -0.9974546290     2.9010392830    -0.6962698550
   54      H      -1.6207133796     3.0098942764    -2.3871050144
   55      H      -0.5505267028     0.8342524628    -2.9882540133
   56      H       0.5596558726     2.1841511511    -2.5346029675
 ----------------------------------------------------------------
 Molecular Point Group                 C1    NOp =  1
 Largest Abelian Subgroup              C1    NOp =  1
 Nuclear Repulsion Energy =  3313.2363369832 hartrees
 There are      113 alpha and      113 beta electrons
 Applying Cartesian multipole field
    Component          Value
    ---------          -----
     (2,0,0)        1.00000E-12
     (0,2,0)        2.00000E-11
     (0,0,2)       -3.00000E-11
 Nucleus-field energy     =    -0.0000000064 hartrees
 Requested basis set is STO-3G
 There are 86 shells and 176 basis functions
 A cutoff of  1.0D-12 yielded   2516 shell pairs
 There are     11903 function pairs
 Smallest overlap matrix eigenvalue = 2.13E-01
 Guess MOs from SCF MO coefficient file
 Reading MOs from coefficient file
 Reading MOs from coefficient file
 A restricted hybrid HF-DFT SCF calculation will be
 performed using Pulay DIIS extrapolation
 Exchange:     0.2000 Hartree-Fock + 0.0800 Slater + 0.7200 B88
 Correlation:  0.1900 VWN1RPA + 0.8100 LYP
 Using SG-1 standard quadrature grid
 Dispersion:   Grimme D3
 SCF converges when DIIS error is below 1.0E-08
 Geometry optimization detected.  Setting ReadMinima to 0
 Setting SaveMinima to 0
 using 48 threads for integral computing
 -------------------------------------------------------
 OpenMP Integral computing Module                
 Release: version 1.0, May 2013, Q-Chem Inc. Pittsburgh 
 -------------------------------------------------------
 -------------------------------------------------------
 OpenMP BLAS3 based DFT computing Module                
 Release: version 1.0, May 2013, Q-Chem Inc. Pittsburgh 
 -------------------------------------------------------
 ---------------------------------------
  Cycle       Energy         DIIS Error
 ---------------------------------------
    1   -1509.9916924902      7.25E-03
    2   -1510.2472121616      1.13E-03
    3   -1510.2399789433      1.84E-03
    4   -1510.2537179348      5.69E-04
    5   -1510.2551168068      1.38E-04
    6   -1510.2551876154      6.52E-05
    7   -1510.2552033140      3.01E-05
    8   -1510.2552073190      6.27E-06
    9   -1510.2552075098      1.35E-06
   10   -1510.2552075122      1.24E-06
   11   -1510.2552075191      2.65E-07
   12   -1510.2552075195      6.93E-08
   13   -1510.2552075195      2.76E-08
   14   -1510.2552075196      9.49E-09 Convergence criterion met
 ---------------------------------------
 SCF time:  CPU 102.60 s  wall 2.14 s
 SCF   energy in the final basis set = -1510.25520752
 Total energy in the final basis set = -1510.25520752
 
 --------------------------------------------------------------
 
                    Orbital Energies (a.u.)
 --------------------------------------------------------------
 
 Alpha MOs
 -- Occupied --
-18.942 -18.932 -18.919 -18.914 -18.905 -18.893 -18.892 -18.883
-18.876 -18.853 -10.113 -10.109 -10.105 -10.083 -10.077 -10.076
-10.064 -10.064 -10.057 -10.057 -10.054 -10.051 -10.047 -10.044
-10.034 -10.025 -10.024 -10.024 -10.016 -10.013  -1.020  -1.016
 -1.013  -0.992  -0.974  -0.965  -0.947  -0.940  -0.939  -0.915
 -0.769  -0.756  -0.730  -0.719  -0.713  -0.707  -0.697  -0.659
 -0.652  -0.618  -0.599  -0.586  -0.552  -0.543  -0.539  -0.531
 -0.518  -0.503  -0.485  -0.473  -0.464  -0.459  -0.449  -0.444
 -0.437  -0.434  -0.425  -0.415  -0.414  -0.408  -0.401  -0.399
 -0.395  -0.387  -0.376  -0.370  -0.361  -0.359  -0.351  -0.350
 -0.345  -0.341  -0.337  -0.336  -0.328  -0.326  -0.323  -0.317
 -0.312  -0.310  -0.303  -0.301  -0.293  -0.291  -0.283  -0.276
 -0.268  -0.257  -0.253  -0.244  -0.241  -0.238  -0.227  -0.185
 -0.180  -0.169  -0.165  -0.163  -0.161  -0.156  -0.147  -0.141
 -0.130
 -- Virtual --
  0.070   0.080   0.092   0.117   0.213   0.231   0.241   0.253
  0.263   0.269   0.283   0.287   0.292   0.299   0.320   0.322
  0.329   0.337   0.341   0.342   0.345   0.357   0.364   0.367
  0.377   0.382   0.385   0.397   0.399   0.405   0.408   0.411
  0.415   0.420   0.421   0.425   0.426   0.428   0.432   0.433
  0.434   0.439   0.443   0.448   0.451   0.452   0.460   0.465
  0.469   0.472   0.473   0.485   0.495   0.501   0.521   0.531
  0.547   0.548   0.558   0.619   0.624   0.638   0.657
 --------------------------------------------------------------
 
          Ground-State Mulliken Net Atomic Charges

     Atom                 Charge (a.u.)
  ----------------------------------------
      1 O                    -0.220632
      2 C                     0.209391
      3 C                    -0.079980
      4 C                    -0.076232
      5 C                     0.211062
      6 O                    -0.181613
      7 C                    -0.060180
      8 C                    -0.053170
      9 O                    -0.178849
     10 C                     0.222018
     11 C                    -0.082589
     12 C                    -0.086246
     13 C                     0.213135
     14 O                    -0.218168
     15 O                    -0.164650
     16 O                    -0.181273
     17 O                    -0.188395
     18 C                    -0.131365
     19 C                     0.025681
     20 C                    -0.141716
     21 C                    -0.146392
     22 C                     0.027437
     23 O                    -0.184555
     24 H                     0.086975
     25 H                     0.105286
     26 H                     0.084475
     27 H                     0.076957
     28 H                     0.071717
     29 H                     0.076327
     30 H                     0.078175
     31 H                     0.084057
     32 O                    -0.198916
     33 C                    -0.135594
     34 C                     0.025435
     35 C                    -0.142542
     36 C                    -0.145403
     37 C                     0.025854
     38 O                    -0.183947
     39 H                     0.084321
     40 H                     0.085851
     41 H                     0.084652
     42 H                     0.088644
     43 H                     0.079098
     44 H                     0.073544
     45 H                     0.079342
     46 H                     0.073170
     47 H                     0.087457
     48 H                     0.107196
     49 H                     0.089132
     50 H                     0.082375
     51 H                     0.086698
     52 H                     0.089898
     53 H                     0.098639
     54 H                     0.085167
     55 H                     0.085868
     56 H                     0.097374
  ----------------------------------------
  Sum of atomic charges =     0.000000

 -----------------------------------------------------------------
                    Cartesian Multipole Moments
 -----------------------------------------------------------------
    Charge (ESU x 10^10)
                 0.0000
    Dipole Moment (Debye)
         X       3.3027      Y      -1.7605      Z      -0.6385
       Tot       3.7967
    Quadrupole Moments (Debye-Ang)
        XX    -178.3486     XY      -7.8220     YY    -152.2672
        XZ      -0.2038     YZ       2.8136     ZZ    -155.2110
    Octopole Moments (Debye-Ang^2)
       XXX      71.7130    XXY     -49.2138    XYY     -28.8437
       YYY      41.5566    XXZ     -17.8552    XYZ       2.8309
       YYZ       9.4255    XZZ      20.0954    YZZ      22.5534
       ZZZ      37.7309
    Hexadecapole Moments (Debye-Ang^3)
      XXXX   -9653.8715   XXXY    -110.3310   XXYY   -1996.6979
      XYYY       3.4812   YYYY   -2642.1162   XXXZ     317.9545
      XXYZ      13.1009   XYYZ      87.7666   YYYZ      14.7232
      XXZZ   -1941.8391   XYZZ      20.0265   YYZZ    -797.0055
      XZZZ     148.7410   YZZZ      -8.2746   ZZZZ   -2310.3362
 -----------------------------------------------------------------
 Calculating analytic gradient of the SCF energy
 Gradient of SCF Energy
            1           2           3           4           5           6
    1   0.0013855   0.0033767   0.0026371  -0.0033723   0.0014143   0.0024768
    2   0.0005679   0.0000225   0.0034970  -0.0029601  -0.0001593   0.0056291
    3  -0.0005531   0.0029192  -0.0004297  -0.0023697   0.0024962  -0.0007188
            7           8           9          10          11          12
    1  -0.0006145   0.0036931  -0.0141032   0.0106119  -0.0060758   0.0065648
    2  -0.0055706  -0.0020302   0.0070053   0.0002943   0.0027715  -0.0051226
    3   0.0045994   0.0014762   0.0007280  -0.0079074   0.0008472  -0.0009121
           13          14          15          16          17          18
    1  -0.0063757   0.0030790   0.0003097  -0.0002247  -0.0006634  -0.0029916
    2  -0.0028929  -0.0011703  -0.0018641   0.0038888   0.0007190   0.0035357
    3  -0.0112044   0.0075790  -0.0002912   0.0044657   0.0010694   0.0002540
           19          20          21          22          23          24
    1  -0.0003225   0.0003439   0.0001411  -0.0002659   0.0000036  -0.0012675
    2   0.0003153   0.0002108  -0.0001401   0.0009603  -0.0000717  -0.0015782
    3   0.0011881   0.0000557  -0.0003163   0.0001725  -0.0000237  -0.0007823
           25          26          27          28          29          30
    1  -0.0033892  -0.0000677   0.0000532  -0.0002107  -0.0000089  -0.0001958
    2   0.0008715  -0.0000001   0.0000822  -0.0000568  -0.0000109   0.0002518
    3   0.0019248   0.0002304  -0.0000729  -0.0000399   0.0000268   0.0000732
           31          32          33          34          35          36
    1   0.0000673  -0.0002689   0.0011131  -0.0002296   0.0001164  -0.0000695
    2   0.0000776   0.0000234   0.0001063  -0.0000428   0.0000366  -0.0000953
    3  -0.0001913   0.0007775   0.0042589  -0.0001125   0.0002354   0.0002614
           37          38          39          40          41          42
    1   0.0002610   0.0000782   0.0001831  -0.0001782   0.0012193  -0.0001086
    2  -0.0001158   0.0000481  -0.0001691  -0.0000061   0.0001448  -0.0000281
    3  -0.0001284  -0.0002819  -0.0000324   0.0001803   0.0002478  -0.0000099
           43          44          45          46          47          48
    1  -0.0000175  -0.0000226  -0.0000871   0.0000483   0.0000725   0.0016273
    2  -0.0000002   0.0000609   0.0000780  -0.0000684   0.0000533  -0.0029579
    3  -0.0000948  -0.0000355  -0.0000593  -0.0000762  -0.0000491  -0.0049501
           49          50          51          52          53          54
    1   0.0006218  -0.0003846   0.0001652  -0.0000418  -0.0003506   0.0000861
    2  -0.0005097  -0.0000443  -0.0001272  -0.0001486  -0.0009889  -0.0013288
    3   0.0002023  -0.0000449  -0.0003032   0.0004308  -0.0028029  -0.0012035
           55          56
    1   0.0002774  -0.0001191
    2  -0.0008680  -0.0001249
    3  -0.0002026  -0.0004999
 Max gradient component =       1.410E-02
 RMS gradient           =       2.591E-03
 Gradient time:  CPU 31.65 s  wall 0.66 s
 Geometry Optimization Parameters
   NAtoms,    NIC,     NZ,  NCons,   NDum,   NFix, NCnnct, MaxDiis
       56     458       0       0       0       0       0       0

 Cartesian Hessian Update
 Hessian Updated using BFGS Update


** GEOMETRY OPTIMIZATION IN DELOCALIZED INTERNAL COORDINATES **
   Searching for a Minimum

   Optimization Cycle:   2

                       Coordinates (Angstroms)
     ATOM                X               Y               Z
      1  O         0.8676490549   -0.9843182601    1.5876981962
      2  C         2.0016720128   -0.4940974640    1.3742105415
      3  C         3.0413152458   -1.0512224372    0.3534689502
      4  C         2.8155044153   -0.4829239265   -1.1134295898
      5  C         1.9498893964    0.8310981929   -1.2219495238
      6  O         0.5406097888    0.5145533146   -1.2334990426
      7  C        -0.1715150849    1.4450550627   -2.1395486682
      8  C        -1.3572810855    2.3111141789   -1.5593367376
      9  O        -2.6059988621    1.6356022785   -1.0904799581
     10  C        -2.7075971503    0.3529255912   -1.7849455037
     11  C        -2.5204529310   -0.8657504486   -0.8097060851
     12  C        -2.1486097823   -0.5418328568    0.6957115865
     13  C        -2.6494003853    0.8711737997    1.1948992321
     14  O        -3.7960501860    1.1344364295    1.6159671178
     15  O         2.4770112437    0.7055141313    1.9679676618
     16  O        -1.5394875127    1.7847650942    1.4401744480
     17  O        -2.9285928548    0.2635857641   -3.0094160648
     18  C        -2.0942429517    3.0610553420    1.9598257456
     19  C        -3.7752025229   -1.8385590730   -0.6240905073
     20  C        -3.1856559780   -3.2782222301   -0.3551066833
     21  C        -2.5689694077   -3.0712146324    1.0787422071
     22  C        -3.0670660680   -1.6110624489    1.4262873581
     23  O        -4.3463623194   -1.4742744656    0.6872882266
     24  H        -1.7062211650   -1.4597419895   -1.2677985866
     25  H        -1.0720210550   -0.6565236512    0.9240202528
     26  H        -4.5408238645   -1.7729494933   -1.4215307578
     27  H        -3.9973717008   -4.0234347699   -0.3393560007
     28  H        -2.4405141645   -3.5806850502   -1.1080908558
     29  H        -2.9645964982   -3.8016651173    1.8018476579
     30  H        -1.4686125473   -3.1306909427    1.0814868358
     31  H        -3.2244443282   -1.4116802014    2.5032874566
     32  O         2.3892969784    1.9875383285   -1.3977393668
     33  C         1.3817594031    1.3124451017    2.7672372377
     34  C         4.5653349177   -0.6747611230    0.5998532219
     35  C         5.4361217967   -1.7794636719   -0.1157675790
     36  C         5.1713696831   -1.4254860786   -1.6266476061
     37  C         4.3092461647   -0.1072198922   -1.4935718184
     38  O         4.7933638857    0.5214910223   -0.2419666796
     39  H         2.9127363104   -2.1486521927    0.3390984879
     40  H         2.3662786916   -1.2483423328   -1.7715574873
     41  H         1.2031750097    0.7380766283    3.6987796290
     42  H         4.8242411349   -0.4638916059    1.6550757626
     43  H         6.4995570769   -1.6564789853    0.1448793057
     44  H         5.1214354977   -2.8019571817    0.1473393218
     45  H         6.1087061364   -1.2200835236   -2.1671859814
     46  H         4.6260201294   -2.2215302683   -2.1589835642
     47  H         4.3941399666    0.6041009873   -2.3373902114
     48  H         0.4439586425    1.3459493728    2.1608864628
     49  H         1.7236281451    2.3312285473    3.0237878596
     50  H        -1.2360777385    3.7505702017    2.0596662168
     51  H        -2.5748457992    2.9234410093    2.9494974862
     52  H        -2.8427933358    3.4931378165    1.2664665058
     53  H        -0.9974546290    2.9010392830   -0.6962698550
     54  H        -1.6207133796    3.0098942764   -2.3871050144
     55  H        -0.5505267028    0.8342524628   -2.9882540133
     56  H         0.5596558726    2.1841511511   -2.5346029675
   Point Group: c1    Number of degrees of freedom:   162


   Energy is  -1510.255207520

 Hessian Updated using BFGS Update

149 Hessian modes will be used to form the next step
  Hessian Eigenvalues:
     0.001515    0.002424    0.002742    0.002763    0.003300    0.003541
     0.003759    0.004333    0.004336    0.004831    0.004938    0.006093
     0.006737    0.006826    0.007920    0.008656    0.012942    0.020939
     0.021581    0.023720    0.025638    0.030058    0.030672    0.032638
     0.034406    0.035351    0.036697    0.039291    0.039662    0.041612
     0.042065    0.043533    0.044044    0.045504    0.048471    0.050900
     0.051135    0.052893    0.054567    0.054847    0.054984    0.055207
     0.056127    0.056952    0.057642    0.058452    0.059681    0.060308
     0.060840    0.063119    0.063277    0.064516    0.064534    0.069218
     0.069912    0.073164    0.073305    0.082039    0.091458    0.092327
     0.092888    0.093452    0.096495    0.096988    0.098478    0.100360
     0.102243    0.103534    0.110870    0.112771    0.119817    0.120439
     0.123556    0.128616    0.138823    0.143808    0.157904    0.159059
     0.159997    0.163106    0.164619    0.165168    0.217853    0.219984
     0.222156    0.225939    0.228600    0.237913    0.238177    0.239055
     0.239496    0.239998    0.243744    0.243836    0.246250    0.248624
     0.249367    0.249545    0.249953    0.252460    0.252558    0.253178
     0.253308    0.254552    0.258533    0.268038    0.292154    0.292468
     0.306785    0.308012    0.318418    0.320935    0.323622    0.323687
     0.327217    0.327313    0.328085    0.328185    0.328747    0.329137
     0.329255    0.329439    0.329638    0.329684    0.330608    0.330955
     0.331271    0.331448    0.331567    0.334550    0.334551    0.334649
     0.334872    0.334998    0.335002    0.335301    0.335375    0.338967
     0.339468    0.344080    0.366927    0.371581    0.388462    0.423792
     0.818272    0.833993    0.834037    0.841739    1.100671

 Minimum Search - Taking Simple RFO Step
 Searching for Lamda that Minimizes Along All modes
 Value Taken    Lamda =  -0.03333712
 Calculated Step too Large.  Step scaled by  0.378629
 Step Taken.  Stepsize is  0.300000

                             Maximum     Tolerance    Cnvgd?
         Gradient           0.065665      0.000300      NO
         Displacement       0.151094      0.001200      NO
         Energy change     -0.002567      0.000001      NO


 New Cartesian Coordinates Obtained by Inverse Iteration

 Displacement from previous Coordinates is:  2.781071
 Adding empirical dispersion correction 
 ----------------------------------------------------------------
 Doing -D3(op) with
 s6 =   1.00000
 s8 =   0.78311
 a1 =   0.30000
 a2 =   4.25000
 n  =  10.00000
 -D3 energy without 3body term =     -0.0756206451 hartrees
 ----------------------------------------------------------------
             Standard Nuclear Orientation (Angstroms)
    I     Atom           X                Y                Z
 ----------------------------------------------------------------
    1      O       0.6800187776    -0.9682864964     1.2725783430
    2      C       1.8274178167    -0.4769203071     1.1530799077
    3      C       2.9545935981    -1.0474462443     0.2354435268
    4      C       2.8603594150    -0.4774944715    -1.2429770916
    5      C       2.0128491105     0.8406843354    -1.4017457916
    6      O       0.6025751732     0.5358935178    -1.4151121964
    7      C      -0.1346192085     1.5322977666    -2.2242454584
    8      C      -1.2669760399     2.3508121800    -1.4946043728
    9      O      -2.4553187154     1.6243128488    -0.9551665088
   10      C      -2.5838761713     0.3513897844    -1.6630814139
   11      C      -2.4218007557    -0.8833115999    -0.7035886374
   12      C      -2.1053521043    -0.5820386188     0.8208795423
   13      C      -2.5927121595     0.8356516782     1.3157843395
   14      O      -3.7571909023     1.1410345548     1.6509486893
   15      O       2.2445473466     0.7329795659     1.7703513864
   16      O      -1.4667694183     1.7111978093     1.6170536531
   17      O      -2.8036111741     0.2802047056    -2.8890724027
   18      C      -1.9993315031     3.0079615281     2.1059302302
   19      C      -3.7001254428    -1.8362482305    -0.5727025595
   20      C      -3.1460804184    -3.2890626691    -0.3003258997
   21      C      -2.5811774714    -3.1084273146     1.1580093962
   22      C      -3.0684999102    -1.6437820314     1.5028847084
   23      O      -4.3153153253    -1.4774253620     0.7191896632
   24      H      -1.6061019952    -1.4854521947    -1.1482337695
   25      H      -1.0411916847    -0.7209991699     1.0925629912
   26      H      -4.4352816822    -1.7465464048    -1.3960866650
   27      H      -3.9703173347    -4.0201674239    -0.3235143666
   28      H      -2.3784593725    -3.5957067217    -1.0287350238
   29      H      -3.0163318899    -3.8398819771     1.8569053172
   30      H      -1.4828722666    -3.1872007312     1.2019292260
   31      H      -3.2639341233    -1.4534474125     2.5753223471
   32      O       2.4645539547     1.9993167082    -1.5235262411
   33      C       1.0814541205     1.3522460087     2.4584246041
   34      C       4.4556851510    -0.6790438443     0.6078018100
   35      C       5.3757924690    -1.7908294022    -0.0322211475
   36      C       5.2412516558    -1.4375604606    -1.5612185609
   37      C       4.3809844369    -0.1127073775    -1.5017331490
   38      O       4.7629775968     0.5135394122    -0.2141244458
   39      H       2.8210958111    -2.1440917460     0.2146296752
   40      H       2.4554736101    -1.2398157293    -1.9326961374
   41      H       0.8175440076     0.7908469619     3.3775454515
   42      H       4.6269724124    -0.4669719024     1.6805357704
   43      H       6.4146023545    -1.6749103632     0.3163475715
   44      H       5.0330309329    -2.8107003135     0.2050598064
   45      H       6.2221243388    -1.2402986574    -2.0217484129
   46      H       4.7361280043    -2.2305554761    -2.1359890088
   47      H       4.5398906282     0.5979305990    -2.3352549193
   48      H       0.1996043911     1.3825153788     1.7735407275
   49      H       1.4017720430     2.3736410597     2.7321152480
   50      H      -1.1221847609     3.6654346344     2.2486157772
   51      H      -2.5347855854     2.8918982248     3.0699637155
   52      H      -2.6946164548     3.4653243121     1.3742475467
   53      H      -0.8435288507     2.8913627561    -0.6273578459
   54      H      -1.6020069557     3.0952739765    -2.2538493858
   55      H      -0.5732850162     0.9786029467    -3.0831150176
   56      H       0.5745301473     2.2944564537    -2.6155302794
 ----------------------------------------------------------------
 Molecular Point Group                 C1    NOp =  1
 Largest Abelian Subgroup              C1    NOp =  1
 Nuclear Repulsion Energy =  3341.8243215105 hartrees
 There are      113 alpha and      113 beta electrons
 Applying Cartesian multipole field
    Component          Value
    ---------          -----
     (2,0,0)        1.00000E-12
     (0,2,0)        2.00000E-11
     (0,0,2)       -3.00000E-11
 Nucleus-field energy     =    -0.0000000047 hartrees
 Requested basis set is STO-3G
 There are 86 shells and 176 basis functions
 A cutoff of  1.0D-12 yielded   2539 shell pairs
 There are     12001 function pairs
 Smallest overlap matrix eigenvalue = 2.13E-01
 Guess MOs from SCF MO coefficient file
 Reading MOs from coefficient file
 Reading MOs from coefficient file
 A restricted hybrid HF-DFT SCF calculation will be
 performed using Pulay DIIS extrapolation
 Exchange:     0.2000 Hartree-Fock + 0.0800 Slater + 0.7200 B88
 Correlation:  0.1900 VWN1RPA + 0.8100 LYP
 Using SG-1 standard quadrature grid
 Dispersion:   Grimme D3
 SCF converges when DIIS error is below 1.0E-08
 Geometry optimization detected.  Setting ReadMinima to 0
 Setting SaveMinima to 0
 using 48 threads for integral computing
 -------------------------------------------------------
 OpenMP Integral computing Module                
 Release: version 1.0, May 2013, Q-Chem Inc. Pittsburgh 
 -------------------------------------------------------
 -------------------------------------------------------
 OpenMP BLAS3 based DFT computing Module                
 Release: version 1.0, May 2013, Q-Chem Inc. Pittsburgh 
 -------------------------------------------------------
 ---------------------------------------
  Cycle       Energy         DIIS Error
 ---------------------------------------
    1   -1510.2300915148      4.25E-03
    2   -1510.2585033147      4.43E-04
    3   -1510.2576551268      6.77E-04
    4   -1510.2595410929      2.26E-04
    5   -1510.2597491034      6.15E-05
    6   -1510.2597630975      2.69E-05
    7   -1510.2597658579      1.06E-05
    8   -1510.2597663270      2.57E-06
    9   -1510.2597663594      4.97E-07
   10   -1510.2597663606      2.45E-07
   11   -1510.2597663608      1.56E-07
   12   -1510.2597663610      3.34E-08
   13   -1510.2597663610      1.06E-08
   14   -1510.2597663611      3.29E-09 Convergence criterion met
 ---------------------------------------
 SCF time:  CPU 106.96 s  wall 2.23 s
 SCF   energy in the final basis set = -1510.25976636
 Total energy in the final basis set = -1510.25976636
 
 --------------------------------------------------------------
 
                    Orbital Energies (a.u.)
 --------------------------------------------------------------
 
 Alpha MOs
 -- Occupied --
-18.939 -18.934 -18.926 -18.920 -18.901 -18.892 -18.892 -18.881
-18.880 -18.859 -10.111 -10.109 -10.108 -10.087 -10.078 -10.077
-10.064 -10.064 -10.059 -10.054 -10.048 -10.047 -10.044 -10.038
-10.031 -10.025 -10.024 -10.014 -10.013 -10.011  -1.021  -1.015
 -1.012  -0.998  -0.974  -0.963  -0.947  -0.940  -0.939  -0.922
 -0.770  -0.753  -0.731  -0.719  -0.711  -0.706  -0.695  -0.657
 -0.653  -0.618  -0.597  -0.587  -0.552  -0.543  -0.537  -0.531
 -0.518  -0.503  -0.485  -0.478  -0.465  -0.460  -0.451  -0.443
 -0.438  -0.436  -0.424  -0.415  -0.414  -0.407  -0.405  -0.397
 -0.394  -0.385  -0.376  -0.370  -0.363  -0.359  -0.354  -0.351
 -0.346  -0.338  -0.336  -0.334  -0.326  -0.322  -0.321  -0.317
 -0.311  -0.309  -0.304  -0.299  -0.292  -0.291  -0.285  -0.278
 -0.267  -0.256  -0.253  -0.242  -0.238  -0.236  -0.225  -0.186
 -0.177  -0.170  -0.168  -0.166  -0.161  -0.158  -0.147  -0.141
 -0.131
 -- Virtual --
  0.073   0.084   0.091   0.115   0.212   0.230   0.242   0.254
  0.266   0.268   0.283   0.289   0.294   0.302   0.319   0.322
  0.326   0.335   0.343   0.344   0.347   0.360   0.364   0.367
  0.378   0.383   0.388   0.398   0.402   0.405   0.408   0.411
  0.416   0.421   0.423   0.425   0.427   0.429   0.431   0.434
  0.439   0.441   0.447   0.448   0.454   0.459   0.464   0.468
  0.470   0.474   0.486   0.496   0.499   0.507   0.528   0.533
  0.548   0.558   0.560   0.622   0.627   0.639   0.669
 --------------------------------------------------------------
 
          Ground-State Mulliken Net Atomic Charges

     Atom                 Charge (a.u.)
  ----------------------------------------
      1 O                    -0.221130
      2 C                     0.214527
      3 C                    -0.079561
      4 C                    -0.076519
      5 C                     0.210392
      6 O                    -0.181815
      7 C                    -0.060196
      8 C                    -0.052565
      9 O                    -0.178919
     10 C                     0.221118
     11 C                    -0.082060
     12 C                    -0.099244
     13 C                     0.216102
     14 O                    -0.214463
     15 O                    -0.165300
     16 O                    -0.176281
     17 O                    -0.192202
     18 C                    -0.129524
     19 C                     0.025494
     20 C                    -0.141796
     21 C                    -0.146417
     22 C                     0.026008
     23 O                    -0.186534
     24 H                     0.088099
     25 H                     0.119869
     26 H                     0.083390
     27 H                     0.076290
     28 H                     0.071492
     29 H                     0.075352
     30 H                     0.077575
     31 H                     0.081265
     32 O                    -0.200265
     33 C                    -0.151597
     34 C                     0.025666
     35 C                    -0.142413
     36 C                    -0.145340
     37 C                     0.025868
     38 O                    -0.183940
     39 H                     0.084511
     40 H                     0.085893
     41 H                     0.077099
     42 H                     0.088849
     43 H                     0.079192
     44 H                     0.073474
     45 H                     0.079308
     46 H                     0.073303
     47 H                     0.087946
     48 H                     0.124340
     49 H                     0.080395
     50 H                     0.084700
     51 H                     0.088946
     52 H                     0.092271
     53 H                     0.095432
     54 H                     0.085652
     55 H                     0.090597
     56 H                     0.097664
  ----------------------------------------
  Sum of atomic charges =    -0.000000

 -----------------------------------------------------------------
                    Cartesian Multipole Moments
 -----------------------------------------------------------------
    Charge (ESU x 10^10)
                -0.0000
    Dipole Moment (Debye)
         X       3.1276      Y      -1.5632      Z      -0.6055
       Tot       3.5486
    Quadrupole Moments (Debye-Ang)
        XX    -178.2606     XY      -8.9982     YY    -151.7264
        XZ      -1.2533     YZ       2.1414     ZZ    -155.2179
    Octopole Moments (Debye-Ang^2)
       XXX      68.6051    XXY     -47.1270    XYY     -30.7587
       YYY      44.0556    XXZ     -18.8250    XYZ       2.1509
       YYZ      10.5312    XZZ      13.2486    YZZ      21.5243
       ZZZ      34.7144
    Hexadecapole Moments (Debye-Ang^3)
      XXXX   -9384.1346   XXXY    -134.8315   XXYY   -1962.9255
      XYYY     -21.7044   YYYY   -2663.3286   XXXZ     441.7721
      XXYZ      16.5228   XYYZ     129.4720   YYYZ      32.0022
      XXZZ   -1880.3605   XYZZ       4.2082   YYZZ    -787.9845
      XZZZ     276.0711   YZZZ       2.9108   ZZZZ   -2251.0098
 -----------------------------------------------------------------
 Calculating analytic gradient of the SCF energy
 Gradient of SCF Energy
            1           2           3           4           5           6
    1  -0.0040777  -0.0011245   0.0027579  -0.0018272   0.0020154   0.0004257
    2   0.0054965  -0.0066363   0.0029232  -0.0017745  -0.0024690   0.0060136
    3  -0.0021786  -0.0004604  -0.0009155   0.0012994  -0.0036268   0.0010164
            7           8           9          10          11          12
    1  -0.0015147   0.0044244  -0.0127890   0.0089279  -0.0012477   0.0101006
    2  -0.0052555  -0.0010256   0.0087548   0.0001713   0.0005732  -0.0044279
    3   0.0026856   0.0023030   0.0027543  -0.0081282  -0.0023508  -0.0017435
           13          14          15          16          17          18
    1  -0.0010511  -0.0011306  -0.0011788   0.0165938  -0.0010844  -0.0045775
    2   0.0026702  -0.0021541   0.0026907  -0.0014995   0.0005651   0.0018898
    3  -0.0045733   0.0052366   0.0015101   0.0087636   0.0017129  -0.0001134
           19          20          21          22          23          24
    1   0.0003613   0.0004115   0.0000607  -0.0005217   0.0009278  -0.0020577
    2   0.0007471  -0.0000045   0.0000753  -0.0008574   0.0002595  -0.0027191
    3   0.0024007   0.0000142  -0.0005227   0.0000095   0.0004532  -0.0012197
           25          26          27          28          29          30
    1  -0.0039548  -0.0003435   0.0000164  -0.0002093  -0.0000074  -0.0001365
    2   0.0002165   0.0002024   0.0001303  -0.0000931   0.0000331   0.0001062
    3   0.0040151   0.0004306  -0.0000109  -0.0001627  -0.0000115   0.0002936
           31          32          33          34          35          36
    1   0.0000384   0.0002953  -0.0093120   0.0001149   0.0005005  -0.0004138
    2   0.0003198   0.0004067   0.0010315  -0.0003859   0.0002205  -0.0001361
    3  -0.0003271   0.0037817   0.0031442  -0.0004983   0.0000005  -0.0002903
           37          38          39          40          41          42
    1   0.0006275  -0.0000221   0.0002042  -0.0006498   0.0001894  -0.0002280
    2   0.0004009  -0.0001285  -0.0001261  -0.0000925  -0.0000961   0.0000899
    3  -0.0007773  -0.0008883   0.0004189   0.0007871   0.0006517  -0.0000285
           43          44          45          46          47          48
    1   0.0000835   0.0000186  -0.0000251  -0.0000123   0.0001572   0.0018135
    2  -0.0001109  -0.0000046   0.0001026  -0.0000345   0.0000737  -0.0031966
    3  -0.0000078   0.0001456  -0.0000919   0.0000451   0.0000668  -0.0094384
           49          50          51          52          53          54
    1  -0.0003964  -0.0001683  -0.0001032  -0.0002931  -0.0015682   0.0013082
    2   0.0003835  -0.0000368   0.0004005   0.0004463  -0.0014665  -0.0015953
    3  -0.0002625  -0.0001366  -0.0001105   0.0006594  -0.0020625  -0.0021223
           55          56
    1   0.0009448  -0.0012931
    2  -0.0017684   0.0007007
    3  -0.0004463  -0.0010932
 Max gradient component =       1.659E-02
 RMS gradient           =       3.017E-03
 Gradient time:  CPU 32.35 s  wall 0.68 s
 Geometry Optimization Parameters
   NAtoms,    NIC,     NZ,  NCons,   NDum,   NFix, NCnnct, MaxDiis
       56     458       0       0       0       0       0       0

 Cartesian Hessian Update
 Hessian Updated using BFGS Update


** GEOMETRY OPTIMIZATION IN DELOCALIZED INTERNAL COORDINATES **
   Searching for a Minimum

   Optimization Cycle:   3

                       Coordinates (Angstroms)
     ATOM                X               Y               Z
      1  O         0.6800187776   -0.9682864964    1.2725783430
      2  C         1.8274178167   -0.4769203071    1.1530799077
      3  C         2.9545935981   -1.0474462443    0.2354435268
      4  C         2.8603594150   -0.4774944715   -1.2429770916
      5  C         2.0128491105    0.8406843354   -1.4017457916
      6  O         0.6025751732    0.5358935178   -1.4151121964
      7  C        -0.1346192085    1.5322977666   -2.2242454584
      8  C        -1.2669760399    2.3508121800   -1.4946043728
      9  O        -2.4553187154    1.6243128488   -0.9551665088
     10  C        -2.5838761713    0.3513897844   -1.6630814139
     11  C        -2.4218007557   -0.8833115999   -0.7035886374
     12  C        -2.1053521043   -0.5820386188    0.8208795423
     13  C        -2.5927121595    0.8356516782    1.3157843395
     14  O        -3.7571909023    1.1410345548    1.6509486893
     15  O         2.2445473466    0.7329795659    1.7703513864
     16  O        -1.4667694183    1.7111978093    1.6170536531
     17  O        -2.8036111741    0.2802047056   -2.8890724027
     18  C        -1.9993315031    3.0079615281    2.1059302302
     19  C        -3.7001254428   -1.8362482305   -0.5727025595
     20  C        -3.1460804184   -3.2890626691   -0.3003258997
     21  C        -2.5811774714   -3.1084273146    1.1580093962
     22  C        -3.0684999102   -1.6437820314    1.5028847084
     23  O        -4.3153153253   -1.4774253620    0.7191896632
     24  H        -1.6061019952   -1.4854521947   -1.1482337695
     25  H        -1.0411916847   -0.7209991699    1.0925629912
     26  H        -4.4352816822   -1.7465464048   -1.3960866650
     27  H        -3.9703173347   -4.0201674239   -0.3235143666
     28  H        -2.3784593725   -3.5957067217   -1.0287350238
     29  H        -3.0163318899   -3.8398819771    1.8569053172
     30  H        -1.4828722666   -3.1872007312    1.2019292260
     31  H        -3.2639341233   -1.4534474125    2.5753223471
     32  O         2.4645539547    1.9993167082   -1.5235262411
     33  C         1.0814541205    1.3522460087    2.4584246041
     34  C         4.4556851510   -0.6790438443    0.6078018100
     35  C         5.3757924690   -1.7908294022   -0.0322211475
     36  C         5.2412516558   -1.4375604606   -1.5612185609
     37  C         4.3809844369   -0.1127073775   -1.5017331490
     38  O         4.7629775968    0.5135394122   -0.2141244458
     39  H         2.8210958111   -2.1440917460    0.2146296752
     40  H         2.4554736101   -1.2398157293   -1.9326961374
     41  H         0.8175440076    0.7908469619    3.3775454515
     42  H         4.6269724124   -0.4669719024    1.6805357704
     43  H         6.4146023545   -1.6749103632    0.3163475715
     44  H         5.0330309329   -2.8107003135    0.2050598064
     45  H         6.2221243388   -1.2402986574   -2.0217484129
     46  H         4.7361280043   -2.2305554761   -2.1359890088
     47  H         4.5398906282    0.5979305990   -2.3352549193
     48  H         0.1996043911    1.3825153788    1.7735407275
     49  H         1.4017720430    2.3736410597    2.7321152480
     50  H        -1.1221847609    3.6654346344    2.2486157772
     51  H        -2.5347855854    2.8918982248    3.0699637155
     52  H        -2.6946164548    3.4653243121    1.3742475467
     53  H        -0.8435288507    2.8913627561   -0.6273578459
     54  H        -1.6020069557    3.0952739765   -2.2538493858
     55  H        -0.5732850162    0.9786029467   -3.0831150176
     56  H         0.5745301473    2.2944564537   -2.6155302794
   Point Group: c1    Number of degrees of freedom:   162


   Energy is  -1510.259766361

 Hessian Updated using BFGS Update

152 Hessian modes will be used to form the next step
  Hessian Eigenvalues:
     0.001968    0.002357    0.002408    0.002701    0.002807    0.003306
     0.003684    0.004324    0.004335    0.004605    0.004852    0.005607
     0.006555    0.006738    0.007297    0.007918    0.011244    0.016192
     0.020917    0.021692    0.023722    0.026144    0.028978    0.030841
     0.031989    0.034397    0.035764    0.036124    0.039319    0.039631
     0.041627    0.042119    0.043251    0.045082    0.046089    0.049497
     0.050938    0.051666    0.053979    0.054719    0.054941    0.055156
     0.055886    0.056095    0.056648    0.057645    0.059081    0.059665
     0.060285    0.061335    0.063118    0.063281    0.064518    0.064531
     0.069143    0.069950    0.073173    0.073331    0.077913    0.091432
     0.092616    0.093265    0.093539    0.096495    0.097964    0.098588
     0.099934    0.102243    0.103674    0.111373    0.113344    0.119844
     0.120464    0.124824    0.131291    0.139372    0.145704    0.157855
     0.159983    0.159998    0.161932    0.164390    0.164883    0.167065
     0.218017    0.220045    0.222384    0.226021    0.229990    0.237761
     0.238145    0.238992    0.239493    0.240706    0.243748    0.243832
     0.246243    0.247440    0.248624    0.249459    0.249953    0.252437
     0.252557    0.253175    0.253307    0.254540    0.255444    0.258626
     0.268059    0.292161    0.292554    0.306769    0.308005    0.318432
     0.320935    0.323619    0.323687    0.327216    0.327314    0.328092
     0.328435    0.328746    0.329140    0.329255    0.329439    0.329684
     0.329696    0.330657    0.330955    0.331272    0.331449    0.331567
     0.334551    0.334552    0.334650    0.334873    0.334999    0.335002
     0.335301    0.335376    0.339189    0.339455    0.343812    0.366937
     0.371442    0.388551    0.423918    0.818521    0.833991    0.834020
     0.841853    2.990571

 Minimum Search - Taking Simple RFO Step
 Searching for Lamda that Minimizes Along All modes
 Value Taken    Lamda =  -0.03212511
 Calculated Step too Large.  Step scaled by  0.466293
 Step Taken.  Stepsize is  0.300000

                             Maximum     Tolerance    Cnvgd?
         Gradient           0.090776      0.000300      NO
         Displacement       0.118887      0.001200      NO
         Energy change     -0.004559      0.000001      NO


 New Cartesian Coordinates Obtained by Inverse Iteration

 Displacement from previous Coordinates is:  2.860082
 Adding empirical dispersion correction 
 ----------------------------------------------------------------
 Doing -D3(op) with
 s6 =   1.00000
 s8 =   0.78311
 a1 =   0.30000
 a2 =   4.25000
 n  =  10.00000
 -D3 energy without 3body term =     -0.0753319789 hartrees
 ----------------------------------------------------------------
             Standard Nuclear Orientation (Angstroms)
    I     Atom           X                Y                Z
 ----------------------------------------------------------------
    1      O       0.6460615608    -0.6682928006     1.4164262780
    2      C       1.8109790376    -0.2531345135     1.2077821424
    3      C       2.8645516114    -0.9449025303     0.2808419568
    4      C       2.7800543312    -0.4372561887    -1.2215744383
    5      C       1.9876204293     0.9054301514    -1.4186265350
    6      O       0.5730763807     0.6333000057    -1.4374762654
    7      C      -0.1637921264     1.6690021567    -2.1952819856
    8      C      -1.3021975384     2.3741910141    -1.3756250439
    9      O      -2.4246849810     1.5292832966    -0.8778034583
   10      C      -2.5361392726     0.2884314255    -1.6443608413
   11      C      -2.3785333245    -0.9754019314    -0.7290449045
   12      C      -2.1151581770    -0.6941845380     0.8027242496
   13      C      -2.5907776780     0.7336598645     1.2629411560
   14      O      -3.7591290564     1.0939692594     1.5209313705
   15      O       2.3653428538     0.9272383118     1.7779629040
   16      O      -1.4382864304     1.5737146516     1.5417465706
   17      O      -2.7404699259     0.2631514295    -2.8752918767
   18      C      -1.9010570370     2.9119436985     1.9750666959
   19      C      -3.6621844754    -1.9284934373    -0.6565966905
   20      C      -3.1201356006    -3.3856795607    -0.3848327669
   21      C      -2.6055948721    -3.2230078162     1.0950754733
   22      C      -3.1027300153    -1.7611220230     1.4414884499
   23      O      -4.3212247464    -1.5863429284     0.6180969523
   24      H      -1.5466337178    -1.5643380429    -1.1605202215
   25      H      -1.0561648400    -0.8392225452     1.1013354401
   26      H      -4.3696322427    -1.8227715101    -1.5021901507
   27      H      -3.9438419652    -4.1153434757    -0.4452375026
   28      H      -2.3278343664    -3.6843069620    -1.0899161462
   29      H      -3.0649946782    -3.9622176324     1.7698112093
   30      H      -1.5093569767    -3.3048209764     1.1747652318
   31      H      -3.3343582408    -1.5832465511     2.5090615297
   32      O       2.4756463973     2.0437410504    -1.5841743866
   33      C       1.3538599426     1.6507919400     2.5965297818
   34      C       4.3952109155    -0.6561480268     0.6055131868
   35      C       5.2329386398    -1.8467572032    -0.0056509607
   36      C       5.0899446469    -1.5454649358    -1.5452324444
   37      C       4.3112640906    -0.1697920280    -1.5232986127
   38      O       4.7559225621     0.4822948383    -0.2695557043
   39      H       2.6627318255    -2.0305542095     0.3147203063
   40      H       2.3233919067    -1.2057564622    -1.8710328643
   41      H       1.1589599799     1.1129256521     3.5462899178
   42      H       4.6027720783    -0.4107882535     1.6647140141
   43      H       6.2838019458    -1.7805504485     0.3190605001
   44      H       4.8344243805    -2.8337489713     0.2791818676
   45      H       6.0715068688    -1.4265531911    -2.0306370381
   46      H       4.5265387833    -2.3281423524    -2.0783332820
   47      H       4.4934480216     0.4964786171    -2.3879814324
   48      H       0.3889125058     1.7859087658     2.0548064164
   49      H       1.8056418874     2.6332462784     2.8238702525
   50      H      -0.9894701349     3.5251185316     2.1001832449
   51      H      -2.4489470255     2.8633887802     2.9381616518
   52      H      -2.5641289654     3.3771507296     1.2185020368
   53      H      -0.8844729299     2.8490331540    -0.4647861944
   54      H      -1.6891580183     3.1730479515    -2.0501577571
   55      H      -0.6020431228     1.1671163679    -3.0848134224
   56      H       0.5227035088     2.4742631777    -2.5374335975
 ----------------------------------------------------------------
 Molecular Point Group                 C1    NOp =  1
 Largest Abelian Subgroup              C1    NOp =  1
 Nuclear Repulsion Energy =  3346.8882275104 hartrees
 There are      113 alpha and      113 beta electrons
 Applying Cartesian multipole field
    Component          Value
    ---------          -----
     (2,0,0)        1.00000E-12
     (0,2,0)        2.00000E-11
     (0,0,2)       -3.00000E-11
 Nucleus-field energy     =    -0.0000000024 hartrees
 Requested basis set is STO-3G
 There are 86 shells and 176 basis functions
 A cutoff of  1.0D-12 yielded   2548 shell pairs
 There are     12091 function pairs
 Smallest overlap matrix eigenvalue = 2.13E-01
 Guess MOs from SCF MO coefficient file
 Reading MOs from coefficient file
 Reading MOs from coefficient file
 A restricted hybrid HF-DFT SCF calculation will be
 performed using Pulay DIIS extrapolation
[...]
      6  O         1.0228391561    0.6011432431   -2.1164572073
      7  C         0.1043645331    1.6922458594   -2.5187698127
      8  C        -0.7536692601    2.2490992943   -1.3180697393
      9  O        -1.1490103835    1.2026199284   -0.3529197098
     10  C        -1.9356425762    0.1526567384   -0.9493942267
     11  C        -2.0715402893   -0.9797022200    0.1197867771
     12  C        -2.7302458644   -0.5016484930    1.4838555815
     13  C        -3.0714066665    1.0263391169    1.4910306917
     14  O        -3.9436213568    1.6248784336    0.8258630695
     15  O         1.9397305648    0.3989065218    0.8269564783
     16  O        -2.1814693074    1.6752700095    2.4123930114
     17  O        -2.3610495020    0.1821910146   -2.1210671119
     18  C        -2.3956445634    3.1391076008    2.3717804813
     19  C        -3.0963889159   -2.0872225310   -0.3458210577
     20  C        -2.8996530990   -3.3615151831    0.5645748342
     21  C        -3.5760232475   -2.8845832329    1.9039516156
     22  C        -4.0261891355   -1.4209876964    1.5152626726
     23  O        -4.4056830712   -1.5423825212    0.0901289222
     24  H        -1.0416956893   -1.3703923897    0.3042197986
     25  H        -2.0596095778   -0.7056421234    2.3366173326
     26  H        -3.0988937991   -2.2687465485   -1.4380800222
     27  H        -3.4223787911   -4.2305463770    0.1343318898
     28  H        -1.8349098662   -3.6141348754    0.6925410359
     29  H        -4.4537312725   -3.5015117710    2.1550593849
     30  H        -2.8815346092   -2.8940713471    2.7590853787
     31  H        -4.8682783665   -1.0116908865    2.1063046787
     32  O         2.5750935411    2.3305527946   -1.6260945971
     33  C         0.8195942727    0.7933036490    1.7196999774
     34  C         4.2798290099   -1.3047951245    0.2031277655
     35  C         5.4122582521   -1.9540842394   -0.6889757282
     36  C         5.7810507083   -0.7543434371   -1.6393591858
     37  C         4.7454536211    0.3353303991   -1.1596606104
     38  O         4.6766718141    0.1160681987    0.3038106287
     39  H         2.7154055798   -2.1947468590   -1.1537687789
     40  H         3.3719254856   -0.5198233512   -2.6991624749
     41  H         0.5978077261   -0.0009461036    2.4589256706
     42  H         4.1623454638   -1.7488024366    1.2107576630
     43  H         6.2683781663   -2.2557454700   -0.0649831972
     44  H         5.0483864626   -2.8367486926   -1.2389466056
     45  H         6.8123392966   -0.4072751530   -1.4673674695
     46  H         5.6636960453   -1.0020934821   -2.7064228926
     47  H         5.0056534209    1.3885597635   -1.3818288244
     48  H        -0.0868477213    1.0054665799    1.1055425459
     49  H         1.1582766820    1.7058694593    2.2414804856
     50  H        -1.7063899314    3.5716474777    3.1200608170
     51  H        -3.4404606874    3.4099770451    2.6268343032
     52  H        -2.1606014682    3.5522979275    1.3694296178
     53  H        -0.1549990691    2.9674951528   -0.7231888422
     54  H        -1.6472885874    2.7679591185   -1.7299855185
     55  H        -0.5749904596    1.2421483904   -3.2694473182
     56  H         0.6694892728    2.5369828280   -2.9669824175
   Point Group: c1    Number of degrees of freedom:   162


   Energy is  -1510.299889496

 Hessian Updated using BFGS Update

162 Hessian modes will be used to form the next step
  Hessian Eigenvalues:
     0.001402    0.002483    0.002780    0.003210    0.004287    0.004574
     0.004992    0.006024    0.006876    0.008243    0.012606    0.016641
     0.018607    0.020220    0.021817    0.021986    0.025092    0.026319
     0.029521    0.031249    0.031571    0.032712    0.033915    0.034201
     0.036155    0.037210    0.038892    0.040484    0.042156    0.042408
     0.043805    0.047396    0.048375    0.049698    0.050689    0.051300
     0.051868    0.053065    0.054379    0.055538    0.055616    0.056133
     0.056396    0.057332    0.058985    0.060166    0.060888    0.061800
     0.063150    0.063485    0.064294    0.064544    0.064709    0.066633
     0.069395    0.070091    0.073183    0.073699    0.085674    0.088765
     0.092636    0.092946    0.096559    0.098207    0.100647    0.101193
     0.102119    0.104031    0.106128    0.107708    0.115507    0.119592
     0.120000    0.130332    0.133921    0.138023    0.144483    0.149901
     0.158813    0.160033    0.160159    0.160893    0.162178    0.164855
     0.167020    0.170722    0.194016    0.201951    0.209232    0.219694
     0.230634    0.234864    0.236357    0.237369    0.238489    0.239866
     0.240427    0.241940    0.244116    0.244266    0.245754    0.248172
     0.250535    0.250997    0.253059    0.253362    0.254203    0.255351
     0.259113    0.264101    0.264721    0.271209    0.275785    0.292133
     0.294828    0.296274    0.306548    0.307327    0.320938    0.323516
     0.324947    0.326109    0.327351    0.327745    0.328114    0.328250
     0.328843    0.329336    0.329474    0.329690    0.330053    0.330957
     0.331366    0.331586    0.331674    0.332973    0.334540    0.334624
     0.334662    0.334936    0.334996    0.335233    0.335363    0.335460
     0.337092    0.340569    0.344502    0.352495    0.362148    0.376889
     0.405837    0.419594    0.482497    0.561655    0.702625    0.799325
     0.829683    0.837117    0.838438    0.853243    1.126410    5.978710

 Minimum Search - Taking Simple RFO Step
 Searching for Lamda that Minimizes Along All modes
 Value Taken    Lamda =   0.00000000
 Step Taken.  Stepsize is  0.006036

                             Maximum     Tolerance    Cnvgd?
         Gradient           0.000192      0.000300     YES
         Displacement       0.001916      0.001200      NO
         Energy change     -0.000001      0.000001     YES

 Final energy is   -1510.29988949600     


 ******************************
 **  OPTIMIZATION CONVERGED  **
 ******************************

                       Coordinates (Angstroms)
     ATOM                X               Y               Z
      1  O         0.7449915343   -1.6357212126    0.5338576693
      2  C         1.7196525846   -0.8890391775    0.2729333619
      3  C         2.9350335582   -1.2392293711   -0.6464377152
      4  C         3.3108141896   -0.0963043195   -1.6794096493
      5  C         2.3129408033    1.1158391349   -1.7474791648
      6  O         1.0228391561    0.6011432431   -2.1164572073
      7  C         0.1043645331    1.6922458594   -2.5187698127
      8  C        -0.7536692601    2.2490992943   -1.3180697393
      9  O        -1.1490103835    1.2026199284   -0.3529197098
     10  C        -1.9356425762    0.1526567384   -0.9493942267
     11  C        -2.0715402893   -0.9797022200    0.1197867771
     12  C        -2.7302458644   -0.5016484930    1.4838555815
     13  C        -3.0714066665    1.0263391169    1.4910306917
     14  O        -3.9436213568    1.6248784336    0.8258630695
     15  O         1.9397305648    0.3989065218    0.8269564783
     16  O        -2.1814693074    1.6752700095    2.4123930114
     17  O        -2.3610495020    0.1821910146   -2.1210671119
     18  C        -2.3956445634    3.1391076008    2.3717804813
     19  C        -3.0963889159   -2.0872225310   -0.3458210577
     20  C        -2.8996530990   -3.3615151831    0.5645748342
     21  C        -3.5760232475   -2.8845832329    1.9039516156
     22  C        -4.0261891355   -1.4209876964    1.5152626726
     23  O        -4.4056830712   -1.5423825212    0.0901289222
     24  H        -1.0416956893   -1.3703923897    0.3042197986
     25  H        -2.0596095778   -0.7056421234    2.3366173326
     26  H        -3.0988937991   -2.2687465485   -1.4380800222
     27  H        -3.4223787911   -4.2305463770    0.1343318898
     28  H        -1.8349098662   -3.6141348754    0.6925410359
     29  H        -4.4537312725   -3.5015117710    2.1550593849
     30  H        -2.8815346092   -2.8940713471    2.7590853787
     31  H        -4.8682783665   -1.0116908865    2.1063046787
     32  O         2.5750935411    2.3305527946   -1.6260945971
     33  C         0.8195942727    0.7933036490    1.7196999774
     34  C         4.2798290099   -1.3047951245    0.2031277655
     35  C         5.4122582521   -1.9540842394   -0.6889757282
     36  C         5.7810507083   -0.7543434371   -1.6393591858
     37  C         4.7454536211    0.3353303991   -1.1596606104
     38  O         4.6766718141    0.1160681987    0.3038106287
     39  H         2.7154055798   -2.1947468590   -1.1537687789
     40  H         3.3719254856   -0.5198233512   -2.6991624749
     41  H         0.5978077261   -0.0009461036    2.4589256706
     42  H         4.1623454638   -1.7488024366    1.2107576630
     43  H         6.2683781663   -2.2557454700   -0.0649831972
     44  H         5.0483864626   -2.8367486926   -1.2389466056
     45  H         6.8123392966   -0.4072751530   -1.4673674695
     46  H         5.6636960453   -1.0020934821   -2.7064228926
     47  H         5.0056534209    1.3885597635   -1.3818288244
     48  H        -0.0868477213    1.0054665799    1.1055425459
     49  H         1.1582766820    1.7058694593    2.2414804856
     50  H        -1.7063899314    3.5716474777    3.1200608170
     51  H        -3.4404606874    3.4099770451    2.6268343032
     52  H        -2.1606014682    3.5522979275    1.3694296178
     53  H        -0.1549990691    2.9674951528   -0.7231888422
     54  H        -1.6472885874    2.7679591185   -1.7299855185
     55  H        -0.5749904596    1.2421483904   -3.2694473182
     56  H         0.6694892728    2.5369828280   -2.9669824175

Z-matrix Print:
$molecule
0 1
O 
C  1 1.441178
O  2 1.246860 1 123.910102
C  1 1.477474 2 113.060833 3 -7.022630 0
H  4 1.108324 1 104.655965 2 -179.378993 0
H  4 1.112405 1 110.934917 2 62.869907 0
C  2 1.563283 1 106.983861 3 177.831715 0
H  7 1.116796 2 106.629656 1 -64.091159 0
C  4 1.577336 1 113.126876 2 -59.520723 0
H  9 1.107984 4 109.002917 1 80.927946 0
H  9 1.110784 4 108.387186 1 -158.954765 0
O  9 1.481876 4 112.981589 1 -35.836949 0
C  12 1.437157 9 111.247238 4 -91.666460 0
O  13 1.248594 12 124.183918 9 8.053453 0
C  13 1.571520 12 107.751242 9 -166.397192 0
H  15 1.105893 13 106.890081 12 63.060154 0
C  7 1.579147 2 111.270720 1 171.418399 0
H  17 1.107243 7 114.035661 2 34.250038 0
O  17 1.483629 7 103.210780 2 -85.496884 0
C  19 1.479783 17 94.979373 7 -57.032420 0
H  20 1.107235 19 110.448834 17 179.848745 0
C  17 1.578400 7 108.376489 2 164.960961 0
H  22 1.101620 17 110.638324 7 -166.973855 0
H  22 1.101758 17 111.873483 7 -45.427520 0
C  22 1.574443 17 101.102571 7 74.734802 0
H  25 1.101662 22 112.762117 17 -120.462067 0
H  25 1.101829 22 111.498446 17 116.938432 0
C  15 1.585724 13 115.701130 12 -59.478316 0
H  28 1.103918 15 111.816758 13 115.506559 0
C  28 1.563658 15 113.940427 13 -7.340353 0
O  30 1.255221 28 126.337101 15 133.600315 0
O  30 1.419218 28 108.193891 15 -49.556839 0
C  32 1.485680 30 111.012371 28 -179.767676 0
H  33 1.104417 32 105.785439 30 169.871920 0
H  33 1.107464 32 111.204702 30 50.717821 0
H  33 1.115276 32 109.413125 30 -70.937694 0
C  15 1.585761 13 112.253748 12 -175.152146 0
H  37 1.107409 15 113.934552 13 -28.028162 0
O  37 1.481403 15 103.975076 13 92.298058 0
C  39 1.478673 37 95.015101 15 55.482324 0
H  40 1.107368 39 110.597290 37 179.370510 0
C  37 1.577961 15 107.826758 13 -158.587014 0
H  42 1.101632 37 110.448178 15 169.444115 0
H  42 1.101716 37 112.322535 15 47.821028 0
C  42 1.574362 37 100.893938 15 -72.612890 0
H  45 1.101502 42 111.629457 37 -120.066104 0
H  45 1.101802 42 112.738408 37 117.284767 0
C  7 1.588431 2 113.914908 1 57.733055 0
H  48 1.103888 7 110.845157 2 -122.987442 0
C  48 1.565627 7 112.831576 2 -1.703208 0
O  50 1.249582 48 128.107329 7 68.738710 0
O  50 1.435969 48 107.995384 7 -110.720083 0
C  52 1.479980 50 109.857895 48 175.506772 0
H  53 1.105480 52 106.152713 50 178.344937 0
H  53 1.109082 52 111.813302 50 58.815737 0
H  53 1.109360 52 111.255596 50 -62.609584 0
$end

 
 --------------------------------------------------------------
 
                    Orbital Energies (a.u.)
 --------------------------------------------------------------
 
 Alpha MOs
 -- Occupied --
-18.942 -18.939 -18.935 -18.929 -18.890 -18.884 -18.882 -18.879
-18.878 -18.868 -10.106 -10.105 -10.104 -10.093 -10.080 -10.075
-10.064 -10.062 -10.060 -10.053 -10.049 -10.043 -10.042 -10.040
-10.030 -10.023 -10.022 -10.020 -10.013 -10.011  -1.022  -1.015
 -1.010  -1.004  -0.972  -0.962  -0.946  -0.940  -0.938  -0.931
 -0.767  -0.757  -0.729  -0.721  -0.711  -0.704  -0.695  -0.660
 -0.654  -0.622  -0.599  -0.583  -0.550  -0.542  -0.538  -0.530
 -0.514  -0.504  -0.484  -0.471  -0.469  -0.459  -0.452  -0.442
 -0.436  -0.432  -0.425  -0.418  -0.413  -0.409  -0.406  -0.405
 -0.395  -0.378  -0.375  -0.365  -0.362  -0.361  -0.355  -0.351
 -0.344  -0.342  -0.335  -0.334  -0.327  -0.325  -0.323  -0.313
 -0.308  -0.306  -0.301  -0.295  -0.294  -0.291  -0.280  -0.274
 -0.270  -0.262  -0.253  -0.248  -0.243  -0.236  -0.226  -0.193
 -0.179  -0.174  -0.172  -0.163  -0.157  -0.155  -0.146  -0.145
 -0.136
 -- Virtual --
  0.085   0.095   0.102   0.109   0.210   0.236   0.247   0.257
  0.266   0.275   0.284   0.292   0.304   0.308   0.324   0.326
  0.335   0.337   0.345   0.351   0.356   0.358   0.362   0.369
  0.380   0.381   0.391   0.396   0.405   0.407   0.408   0.411
  0.413   0.420   0.425   0.426   0.427   0.432   0.434   0.435
  0.436   0.441   0.444   0.446   0.449   0.458   0.462   0.465
  0.469   0.473   0.487   0.495   0.499   0.504   0.522   0.536
  0.550   0.556   0.559   0.639   0.642   0.651   0.662
 --------------------------------------------------------------
 
          Ground-State Mulliken Net Atomic Charges

     Atom                 Charge (a.u.)
  ----------------------------------------
      1 O                    -0.223832
      2 C                     0.217378
      3 C                    -0.078200
      4 C                    -0.077478
      5 C                     0.215418
      6 O                    -0.177356
      7 C                    -0.055757
      8 C                    -0.049201
      9 O                    -0.177675
     10 C                     0.219124
     11 C                    -0.094672
     12 C                    -0.080656
     13 C                     0.207426
     14 O                    -0.215728
     15 O                    -0.164237
     16 O                    -0.171528
     17 O                    -0.205840
     18 C                    -0.128773
     19 C                     0.023453
     20 C                    -0.144179
     21 C                    -0.143370
     22 C                     0.025371
     23 O                    -0.188651
     24 H                     0.115027
     25 H                     0.084884
     26 H                     0.087274
     27 H                     0.075756
     28 H                     0.077881
     29 H                     0.076149
     30 H                     0.072998
     31 H                     0.081904
     32 O                    -0.211492
     33 C                    -0.146793
     34 C                     0.026326
     35 C                    -0.144278
     36 C                    -0.143510
     37 C                     0.024723
     38 O                    -0.184863
     39 H                     0.085807
     40 H                     0.084840
     41 H                     0.081965
     42 H                     0.082658
     43 H                     0.078556
     44 H                     0.073994
     45 H                     0.078639
     46 H                     0.073265
     47 H                     0.090599
     48 H                     0.115375
     49 H                     0.085576
     50 H                     0.088514
     51 H                     0.089328
     52 H                     0.085463
     53 H                     0.094267
     54 H                     0.092980
     55 H                     0.101197
     56 H                     0.093953
  ----------------------------------------
  Sum of atomic charges =     0.000000

 -----------------------------------------------------------------
                    Cartesian Multipole Moments
 -----------------------------------------------------------------
    Charge (ESU x 10^10)
                 0.0000
    Dipole Moment (Debye)
         X       2.5894      Y      -0.6146      Z       0.2720
       Tot       2.6752
    Quadrupole Moments (Debye-Ang)
        XX    -170.5956     XY      -7.8346     YY    -152.6560
        XZ     -12.6493     YZ      -0.1171     ZZ    -153.1412
    Octopole Moments (Debye-Ang^2)
       XXX      57.5243    XXY     -28.2129    XYY     -32.8062
       YYY      56.7483    XXZ      10.5225    XYZ       4.2154
       YYZ      16.0592    XZZ     -10.0431    YZZ      24.2867
       ZZZ      24.6714
    Hexadecapole Moments (Debye-Ang^3)
      XXXX   -9858.4305   XXXY    -120.7416   XXYY   -2061.7366
      XYYY     -69.4887   YYYY   -2787.3464   XXXZ     781.0875
      XXYZ      27.8363   XYYZ     334.5160   YYYZ     157.1602
      XXZZ   -1908.3469   XYZZ     -29.1793   YYZZ    -781.2468
      XZZZ     982.0219   YZZZ     101.9128   ZZZZ   -2162.9053
 -----------------------------------------------------------------
Archival summary:
1\1\vega02.cac.cornell.edu\OPT\ProcedureUnspecified\STO-3G\102026\jj585\MonJan1514:57:592018MonJan1514:57:592018\0\\#,OPT,ProcedureUnspecified,STO-3G,\\0,1\O\C,1,1.44118\O,2,1.24686,1,123.91\C,1,1.47747,2,113.061,3,-7.02263,0\H,4,1.10832,1,104.656,2,-179.379,0\H,4,1.11241,1,110.935,2,62.8699,0\C,2,1.56328,1,106.984,3,177.832,0\H,7,1.1168,2,106.63,1,-64.0912,0\C,4,1.57734,1,113.127,2,-59.5207,0\H,9,1.10798,4,109.003,1,80.9279,0\H,9,1.11078,4,108.387,1,-158.955,0\O,9,1.48188,4,112.982,1,-35.8369,0\C,12,1.43716,9,111.247,4,-91.6665,0\O,13,1.24859,12,124.184,9,8.05345,0\C,13,1.57152,12,107.751,9,-166.397,0\H,15,1.10589,13,106.89,12,63.0602,0\C,7,1.57915,2,111.271,1,171.418,0\H,17,1.10724,7,114.036,2,34.25,0\O,17,1.48363,7,103.211,2,-85.4969,0\C,19,1.47978,17,94.9794,7,-57.0324,0\H,20,1.10723,19,110.449,17,179.849,0\C,17,1.5784,7,108.376,2,164.961,0\H,22,1.10162,17,110.638,7,-166.974,0\H,22,1.10176,17,111.873,7,-45.4275,0\C,22,1.57444,17,101.103,7,74.7348,0\H,25,1.10166,22,112.762,17,-120.462,0\H,25,1.10183,22,111.498,17,116.938,0\C,15,1.58572,13,115.701,12,-59.4783,0\H,28,1.10392,15,111.817,13,115.507,0\C,28,1.56366,15,113.94,13,-7.34035,0\O,30,1.25522,28,126.337,15,133.6,0\O,30,1.41922,28,108.194,15,-49.5568,0\C,32,1.48568,30,111.012,28,-179.768,0\H,33,1.10442,32,105.785,30,169.872,0\H,33,1.10746,32,111.205,30,50.7178,0\H,33,1.11528,32,109.413,30,-70.9377,0\C,15,1.58576,13,112.254,12,-175.152,0\H,37,1.10741,15,113.935,13,-28.0282,0\O,37,1.4814,15,103.975,13,92.2981,0\C,39,1.47867,37,95.0151,15,55.4823,0\H,40,1.10737,39,110.597,37,179.371,0\C,37,1.57796,15,107.827,13,-158.587,0\H,42,1.10163,37,110.448,15,169.444,0\H,42,1.10172,37,112.323,15,47.821,0\C,42,1.57436,37,100.894,15,-72.6129,0\H,45,1.1015,42,111.629,37,-120.066,0\H,45,1.1018,42,112.738,37,117.285,0\C,7,1.58843,2,113.915,1,57.7331,0\H,48,1.10389,7,110.845,2,-122.987,0\C,48,1.56563,7,112.832,2,-1.70321,0\O,50,1.24958,48,128.107,7,68.7387,0\O,50,1.43597,48,107.995,7,-110.72,0\C,52,1.47998,50,109.858,48,175.507,0\H,53,1.10548,52,106.153,50,178.345,0\H,53,1.10908,52,111.813,50,58.8157,0\H,53,1.10936,52,111.256,50,-62.6096,0\\\@

 Total job time:  117.81s(wall), 5609.41s(cpu) 
 Mon Jan 15 14:57:59 2018

        *************************************************************
        *                                                           *
        *  Thank you very much for using Q-Chem.  Have a nice day.  *
        *                                                           *
        *************************************************************


0 sent ACK to 0 
now end server 0 ... 
