mFile = /opt/software/qchem/qchem-5.0.1//bin/mpi/machines
Process 0 of 1 is on vega02.cac.cornell.edu - thread support 0
initial socket setup ...start
initial socket setup ...done 
now start server 0 ... 
vega02.cac.cornell.edu 10.84.3
Q-Chem Developer Version! Running on 10.84.3.*
                  Welcome to Q-Chem
     A Quantum Leap Into The Future Of Chemistry


 Q-Chem 5.0, Q-Chem, Inc., Pleasanton, CA (2017)

 Yihan Shao,  Zhengting Gan,  E. Epifanovsky,  A. T. B. Gilbert,  M. Wormit,  
 J. Kussmann,  A. W. Lange,  A. Behn,  Jia Deng,  Xintian Feng,  D. Ghosh,  
 M. Goldey,  P. R. Horn,  L. D. Jacobson,  I. Kaliman,  T. Kus,  A. Landau,  
 Jie Liu,  E. I. Proynov,  R. M. Richard,  R. P. Steele,  E. J. Sundstrom,  
 H. L. Woodcock III,  P. M. Zimmerman,  D. Zuev,  B. Albrecht,  E. Alguire,  
 S. A. Baeppler,  Z. Benda,  Y. A. Bernard,  E. J. Berquist,  K. B. Bravaya,  
 D. Casanova,  Chun-Min Chang,  Yunqing Chen,  A. Chien,  K. D. Closser,  
 M. P. Coons,  S. Dasgupta,  M. Diedenhofen,  Hainam Do,  R. G. Edgar,  
 Po-Tung Fang,  S. Fatehi,  Qingguo Feng,  Qinghui Ge,  A. Ghysels,  
 J. Gomes,  J. Gonthier,  A. Gunina,  M. W. D. Hanson-Heine,  
 P. H. P. Harbach,  A. W. Hauser,  J. E. Herr,  E. G. Hohenstein,  
 Z. C. Holden,  Kerwin Hui,  T.-C. Jagau,  Hyunjun Ji,  B. Kaduk,  
 K. Khistyaev,  Jaehoon Kim,  P. Klunzinger,  K. Koh,  D. Kosenkov,  
 T. Kowalczyk,  C. M. Krauter,  A. Kunitsa,  Ka Un Lao,  A. Laurent,  
 K. V. Lawler,  Joonho Lee,  D. Lefrancois,  S. Lehtola,  D. S. Levine,  
 Yi-Pei Li,  You-Sheng Lin,  Fenglai Liu,  E. Livshits,  A. Luenser,  
 P. Manohar,  E. Mansoor,  S. F. Manzer,  Shan-Ping Mao,  Yuezhi Mao,  
 N. Mardirossian,  A. V. Marenich,  L. A. Martinez-Martinez,  S. A. Maurer,  
 N. J. Mayhall,  S. C. McKenzie,  J.-M. Mewes,  A. F. Morrison,  K. Nanda,  
 T. S. Nguyen-Beck,  R. Olivares-Amaya,  J. A. Parkhill,  T. M. Perrine,  
 F. Plasser,  S. Prager,  A. Prociuk,  D. R. Rehn,  F. Rob,  M. Schneider,  
 N. Sergueev,  S. M. Sharada,  S. Sharma,  D. W. Small,  T. Stauch,  
 T. Stein,  Yu-Chuan Su,  A. J. W. Thom,  T. Tsuchimochi,  L. Vogt,  
 O. Vydrov,  M. A. Watson,  J. Wenzel,  M. de Wergifosse,  T. A. Wesolowski,  
 A. White,  J. Witte,  A. Yamada,  Jun Yang,  K. Yao,  S. Yeganeh,  
 S. R. Yost,  Zhi-Qiang You,  A. Zech,  Igor Ying Zhang,  Xing Zhang,  
 Yan Zhao,  Ying Zhu,  B. R. Brooks,  G. K. L. Chan,  C. J. Cramer,  
 M. S. Gordon,  W. J. Hehre,  A. Klamt,  M. W. Schmidt,  C. D. Sherrill,  
 D. G. Truhlar,  A. Aspuru-Guzik,  R. Baer,  A. T. Bell,  N. A. Besley,  
 Jeng-Da Chai,  A. Dreuw,  B. D. Dunietz,  T. R. Furlani,  Chao-Ping Hsu,  
 Yousung Jung,  Jing Kong,  D. S. Lambrecht,  WanZhen Liang,  C. Ochsenfeld,  
 V. A. Rassolov,  L. V. Slipchenko,  J. E. Subotnik,  T. Van Voorhis,  
 J. M. Herbert,  A. I. Krylov,  P. M. W. Gill,  M. Head-Gordon

 Contributors to earlier versions of Q-Chem not listed above: 
 R. D. Adamson,  B. Austin,  J. Baker,  G. J. O. Beran,  K. Brandhorst,  
 S. T. Brown,  E. F. C. Byrd,  A. K. Chakraborty,  C.-L. Cheng,  
 Siu Hung Chien,  D. M. Chipman,  D. L. Crittenden,  H. Dachsel,  
 R. A. DiStasio Jr.,  R. J. Doerksen,  A. D. Dutoi,  L. Fusti-Molnar,  
 W. A. Goddard III,  A. Golubeva-Zadorozhnaya,  S. R. Gwaltney,  G. Hawkins,  
 A. Heyden,  S. Hirata,  G. Kedziora,  F. J. Keil,  C. Kelley,  Jihan Kim,  
 R. A. King,  R. Z. Khaliullin,  P. P. Korambath,  W. Kurlancheek,  
 A. M. Lee,  M. S. Lee,  S. V. Levchenko,  Ching Yeh Lin,  D. Liotard,  
 R. C. Lochan,  I. Lotan,  P. E. Maslen,  N. Nair,  D. P. O'Neill,  
 D. Neuhauser,  E. Neuscamman,  C. M. Oana,  R. Olson,  B. Peters,  
 R. Peverati,  P. A. Pieniazek,  Y. M. Rhee,  J. Ritchie,  M. A. Rohrdanz,  
 E. Rosta,  N. J. Russ,  H. F. Schaefer III,  N. E. Schultz,  N. Shenvi,  
 A. C. Simmonett,  A. Sodt,  D. Stuck,  K. S. Thanthiriwatte,  V. Vanovschi,  
 Tao Wang,  A. Warshel,  C. F. Williams,  Q. Wu,  X. Xu,  W. Zhang

 Please cite Q-Chem as follows:
 Y. Shao et al., Mol. Phys. 113, 184-215 (2015)
 DOI: 10.1080/00268976.2014.952696

 Q-Chem 5.0.1 for Intel X86 EM64T Linux

 Parts of Q-Chem use Armadillo 5.200.1 (Boston Tea Smuggler).
 http://arma.sourceforge.net/

 Q-Chem begins on Mon Jan 15 15:05:41 2018  

Host: vega02.cac.cornell.edu
0

     Scratch files written to /scratch/jj585/SOT1001/0830c.save//
 Parallel job on  1  processors

Checking the input file for inconsistencies... 	...done.

--------------------------------------------------------------
User input:
--------------------------------------------------------------
$molecule
0  1
O -3.94934 -3.66094 2.70899
C -3.26408 -4.56952 2.26188
C -3.36658 -6.02376 2.66595
C -3.18715 -7.07505 1.5585
C -2.74922 -6.56083 0.20502
O -2.79973 -5.19606 0.18862
C -3.78507 -4.6583 1.07697
C -3.4867 -3.19092 1.36666
O -4.71328 -2.44725 1.43972
C -5.52476 -2.76168 2.47981
C -4.79077 -2.83449 3.79762
C -5.3369 -1.90912 4.89475
C -6.71511 -1.33027 4.64538
O -7.18319 -0.34854 5.20363
O -1.89382 -4.31094 2.68075
O -7.64449 -2.12646 4.05679
O -6.58891 -3.3211 2.2527
C -8.92855 -1.73445 3.72954
C -5.15584 -4.13405 4.7414
C -3.95601 -4.38776 5.6568
C -4.14321 -3.27144 6.65507
C -5.47903 -2.72605 6.16897
O -6.15143 -3.81728 5.6703
H -3.77477 -2.24298 4.04276
H -4.75329 -0.971 5.13022
H -5.50169 -4.9905 4.15805
H -4.10867 -5.36516 6.16723
H -2.97538 -4.32581 5.16489
H -4.23845 -3.71268 7.67184
H -3.36092 -2.48098 6.64357
H -6.00963 -2.17258 6.97684
O -2.37926 -7.23783 -0.74102
C -0.71773 -4.16131 1.95596
C -2.27869 -6.6194 3.65262
C -2.79863 -7.8745 4.36044
C -2.71031 -8.88037 3.23989
C -2.11441 -8.00637 2.13691
O -1.27062 -7.12822 2.81919
H -4.32102 -6.21862 3.16159
H -4.12139 -7.64535 1.35391
H -0.26247 -3.18523 2.22199
H -1.90509 -5.9348 4.43089
H -2.05733 -8.15999 5.14119
H -3.79893 -7.76078 4.8302
H -1.97747 -9.66755 3.52669
H -3.67258 -9.35104 2.94452
H -1.63177 -8.64417 1.36399
H -0.8634 -4.16481 0.86286
H -0.00216 -4.96078 2.23189
H -9.45342 -2.57903 3.23833
H -8.8908 -0.88098 3.01722
H -9.49126 -1.43868 4.64002
H -2.58873 -2.46596 1.58383
H -3.15312 -2.87108 0.33686
H -4.87087 -5.12222 0.88893
H -4.51759 -4.40182 0.23592
$end

$opt
CONSTRAINT
tors           1           2           3           4    +142.105
tors           3           4           5           6      -9.474
tors           4           5           6           7     -28.421
tors           5           6           7           8    +161.053
tors           6           7           8           9    +142.105
tors           7           8           9          10     +66.316
tors           8           9          10          11     +47.368
tors           9          10          11          12    +123.158
tors          11          12          13          14    -161.053
ENDCONSTRAINT
$end

$rem
JOBTYPE                   OPT
METHOD                    B3LYP
DFT_D                     d3_op
BASIS                     STO-3G
GEOM_OPT_MAX_CYCLES       100
GEOM_OPT_TOL_GRADIENT     300
GEOM_OPT_TOL_DISPLACEMENT 1200
GEOM_OPT_TOL_ENERGY       100
SYMMETRY                  False
THRESH                    12
SCF_CONVERGENCE           8
MAX_SUB_FILE_NUM          128
MEM_STATIC                400
MEM_TOTAL                 4000
$end
--------------------------------------------------------------
 Adding empirical dispersion correction 
 ----------------------------------------------------------------
 Doing -D3(op) with
 s6 =   1.00000
 s8 =   0.78311
 a1 =   0.30000
 a2 =   4.25000
 n  =  10.00000
 -D3 energy without 3body term =     -0.0865984289 hartrees
 ----------------------------------------------------------------
             Standard Nuclear Orientation (Angstroms)
    I     Atom           X                Y                Z
 ----------------------------------------------------------------
    1      O       0.2034175377    -0.6260177971     0.5776599061
    2      C      -1.0141140913    -0.5716977253     0.4793120628
    3      C      -1.7769859141     0.3393237741    -0.4569887449
    4      C      -3.0412425458    -0.2328500503    -1.1188977835
    5      C      -3.5007045496    -1.5901925752    -0.6345126671
    6      O      -2.5499648472    -2.1391612588     0.1779802717
    7      C      -1.2233249526    -1.6980342206    -0.1297208522
    8      C      -0.2968713214    -1.9522147207     1.0548571149
    9      O       0.9945591389    -2.3700736013     0.5853013131
   10      C       1.6958382447    -1.4346604207    -0.1019853961
   11      C       1.7166207643    -0.0909781834     0.5870370595
   12      C       3.1178844952     0.4612511539     0.8866444131
   13      C       4.2630337755    -0.2104827698     0.1558077795
   14      O       5.4401884667    -0.1570138524     0.4813590806
   15      O      -1.5187687618    -0.0699519190     1.7495494305
   16      O       4.0630792985    -0.5882139102    -1.1331612975
   17      O       1.8834427790    -1.5969152934    -1.3000767140
   18      C       4.9923369309    -1.2435358412    -1.9184051486
   19      C       1.4353845445     1.2084966253    -0.3851380262
   20      C       0.8857167441     2.3313348772     0.4974816666
   21      C       2.1555149399     2.7779971488     1.1800228979
   22      C       3.1577033654     1.9108987490     0.4304114923
   23      O       2.6345195245     1.7699758875    -0.8337071167
   24      H       1.5877024456     0.0675330754     1.7704591937
   25      H       3.4874457928     0.4077284225     1.9527943331
   26      H       0.8361147818     0.9527821773    -1.2620085525
   27      H       0.5196528064     3.1471552372    -0.1655333816
   28      H       0.1264451194     2.0185442983     1.2276303509
   29      H       2.3189840859     3.8565092993     0.9616791148
   30      H       2.2040001148     2.5889997818     2.2749503333
   31      H       4.1820818844     2.3461285563     0.4721607733
   32      O      -4.5645625204    -2.1292447724    -0.8949354574
   33      C      -2.4318406975    -0.5966247676     2.6549845302
   34      C      -2.4611894764     1.6406445135     0.1348213335
   35      C      -2.7103402224     2.6836393930    -0.9591203255
   36      C      -3.8926946861     2.0673779495    -1.6644336866
   37      C      -4.1060866649     0.8244476537    -0.8012269712
   38      O      -3.7604119099     1.2419275679     0.4851844988
   39      H      -1.1225972282     0.7109420643    -1.2496175590
   40      H      -2.9323311279    -0.3495162816    -2.2209099564
   41      H      -1.9450830928    -0.6576925500     3.6500240044
   42      H      -1.9182166701     2.1441566161     0.9506732852
   43      H      -3.0517943126     3.6224926962    -0.4666120800
   44      H      -1.8285188392     2.9054387644    -1.5974015119
   45      H      -4.7656170482     2.7494032108    -1.5557637703
   46      H      -3.7349359527     1.8253198527    -2.7374002744
   47      H      -5.1441685748     0.4457417921    -0.9281259653
   48      H      -2.7785787879    -1.6119259446     2.3999633047
   49      H      -3.3067521490     0.0774772380     2.7412776853
   50      H       4.5483343264    -1.4489558393    -2.9137721507
   51      H       5.2650776447    -2.2135503332    -1.4473210010
   52      H       5.9024670196    -0.6209430261    -2.0493160937
   53      H      -0.2734330508    -1.8895631049     2.2272927651
   54      H      -0.6951408974    -2.9573753123     1.3790404150
   55      H      -0.9420193050    -1.8650813706    -1.2797229523
   56      H      -0.9309407263    -2.6790811059    -0.6413761231
 ----------------------------------------------------------------
 Molecular Point Group                 C1    NOp =  1
 Largest Abelian Subgroup              C1    NOp =  1
 Nuclear Repulsion Energy =  3598.8396130973 hartrees
 There are      113 alpha and      113 beta electrons
 Requested basis set is STO-3G
 There are 86 shells and 176 basis functions

 Total QAlloc Memory Limit   4000 MB
 Mega-Array Size       392 MB
 MEM_STATIC part       400 MB
 A cutoff of  1.0D-12 yielded   2726 shell pairs
 There are     12725 function pairs
 
 -------------------------------------------------------
 OpenMP Integral Computing Module                       
 Release: version 1.0, May 2013, Q-Chem Inc. Pittsburgh 
 -------------------------------------------------------
 Integral Job Info:
 Integral job number is                      11
 Integral operator is                         1
 short-range coefficients                     0
 long-range coefficients              100000000
 Omega coefficients                           0
 if combine SR and LR in K                    0
 Integral screening is                        0
 Integral computing path is                   2
 max size of driver memory is            800000
 size of driver memory is                 45569
 size of scratch memory is              1046100
 max col of scratch BK array                289
 max len of scratch array in speh3           22
 max len of scratch index in speh4            8
 max int batch size is                      520
 min int batch size is                       52
 fixed nKL is                                52
 max L of basis functions is                  1
 order of int derivative is                   0
 number of shells is                         86
 number of basis is                         176
 number of cartesian basis is               176
 number of contracted shell pairs          2726
 number of primitive shell pairs          14105
 maxK2 (contraction) of shell pair            9
 max number of K2 of shell pair               1
 max number of CS2 of shell pair            413
 max number of PS2 of shell pair           1632
 mem total for path MDJ                   61866
 -------------------------------------------------------
 Smallest overlap matrix eigenvalue = 1.47E-01

 Scale SEOQF with 1.000000e-02/1.000000e-01/1.000000e-01

 Standard Electronic Orientation quadrupole field applied
 Nucleus-field energy     =     0.0000000177 hartrees
 Guess from superposition of atomic densities
 Warning:  Energy on first SCF cycle will be non-variational
 A restricted hybrid HF-DFT SCF calculation will be
 performed using Pulay DIIS extrapolation
 Exchange:     0.2000 Hartree-Fock + 0.0800 Slater + 0.7200 B88
 Correlation:  0.1900 VWN1RPA + 0.8100 LYP
 Using SG-1 standard quadrature grid
 Dispersion:   Grimme D3
 SCF converges when DIIS error is below 1.0E-08
 using 48 threads for integral computing
 -------------------------------------------------------
 OpenMP Integral computing Module                
 Release: version 1.0, May 2013, Q-Chem Inc. Pittsburgh 
 -------------------------------------------------------
 -------------------------------------------------------
 OpenMP BLAS3 based DFT computing Module                
 Release: version 1.0, May 2013, Q-Chem Inc. Pittsburgh 
 -------------------------------------------------------
 ---------------------------------------
  Cycle       Energy         DIIS Error
 ---------------------------------------
    1   -1510.5892198735      8.80E-02
    2   -1508.5184590860      1.11E-02
    3   -1500.6258130767      3.51E-02
    4   -1506.6240918665      1.58E-02
    5   -1509.0809158349      3.31E-03
    6   -1509.1334603777      1.74E-03
    7   -1509.1433459006      9.49E-04
    8   -1509.1476933153      2.77E-04
    9   -1509.1479942475      1.46E-04
   10   -1509.1480970793      7.06E-05
   11   -1509.1481210695      2.66E-05
   12   -1509.1481240423      9.56E-06
   13   -1509.1481243821      5.30E-06
   14   -1509.1481245003      8.54E-07
   15   -1509.1481245036      3.83E-07
   16   -1509.1481245044      1.74E-07
   17   -1509.1481245046      3.80E-08
   18   -1509.1481245046      1.96E-08
   19   -1509.1481245047      3.89E-09 Convergence criterion met
 ---------------------------------------
 SCF time:  CPU 178.19 s  wall 3.76 s
 SCF   energy in the final basis set = -1509.14812450
 Total energy in the final basis set = -1509.14812450
 
 --------------------------------------------------------------
 
                    Orbital Energies (a.u.)
 --------------------------------------------------------------
 
 Alpha MOs
 -- Occupied --
-18.981 -18.926 -18.921 -18.910 -18.895 -18.889 -18.885 -18.876
-18.861 -18.807 -10.217 -10.177 -10.159 -10.149 -10.102 -10.082
-10.075 -10.069 -10.062 -10.053 -10.053 -10.045 -10.043 -10.039
-10.029 -10.025 -10.021 -10.004 -10.001  -9.972  -1.221  -1.097
 -1.040  -1.032  -1.022  -1.009  -1.005  -0.980  -0.942  -0.904
 -0.874  -0.811  -0.767  -0.761  -0.741  -0.738  -0.723  -0.696
 -0.689  -0.674  -0.652  -0.625  -0.624  -0.589  -0.566  -0.550
 -0.541  -0.540  -0.532  -0.516  -0.507  -0.502  -0.492  -0.482
 -0.469  -0.461  -0.452  -0.441  -0.440  -0.437  -0.427  -0.417
 -0.408  -0.402  -0.400  -0.389  -0.384  -0.379  -0.368  -0.364
 -0.356  -0.342  -0.339  -0.333  -0.324  -0.317  -0.317  -0.316
 -0.307  -0.299  -0.299  -0.294  -0.289  -0.282  -0.277  -0.262
 -0.249  -0.242  -0.229  -0.225  -0.215  -0.201  -0.194  -0.183
 -0.176  -0.165  -0.160  -0.146  -0.141  -0.128  -0.123  -0.111
 -0.084
 -- Virtual --
  0.015   0.064   0.075   0.117   0.150   0.216   0.245   0.258
  0.283   0.287   0.298   0.312   0.316   0.327   0.334   0.347
  0.356   0.361   0.365   0.368   0.371   0.376   0.383   0.388
  0.396   0.399   0.407   0.417   0.421   0.425   0.427   0.430
  0.431   0.441   0.446   0.447   0.450   0.452   0.459   0.460
  0.461   0.468   0.478   0.485   0.490   0.492   0.502   0.510
  0.514   0.518   0.530   0.545   0.559   0.563   0.576   0.586
  0.597   0.604   0.631   0.659   0.684   0.721   0.737
 --------------------------------------------------------------
 
          Ground-State Mulliken Net Atomic Charges

     Atom                 Charge (a.u.)
  ----------------------------------------
      1 O                    -0.211926
      2 C                     0.210618
      3 C                    -0.078113
      4 C                    -0.106825
      5 C                     0.234610
      6 O                    -0.187226
      7 C                    -0.076780
      8 C                     0.072027
      9 O                    -0.244756
     10 C                     0.237077
     11 C                     0.006408
     12 C                    -0.093943
     13 C                     0.218609
     14 O                    -0.260009
     15 O                    -0.216059
     16 O                    -0.211488
     17 O                    -0.224895
     18 C                    -0.094961
     19 C                     0.031761
     20 C                    -0.149022
     21 C                    -0.144411
     22 C                     0.037935
     23 O                    -0.214444
     24 H                     0.039310
     25 H                     0.054694
     26 H                     0.060228
     27 H                     0.067463
     28 H                     0.076023
     29 H                     0.070892
     30 H                     0.070822
     31 H                     0.077804
     32 O                    -0.194642
     33 C                    -0.121931
     34 C                     0.041505
     35 C                    -0.145676
     36 C                    -0.143404
     37 C                     0.040804
     38 O                    -0.216890
     39 H                     0.079727
     40 H                     0.081058
     41 H                     0.079580
     42 H                     0.091355
     43 H                     0.076733
     44 H                     0.073654
     45 H                     0.077130
     46 H                     0.071480
     47 H                     0.088919
     48 H                     0.087598
     49 H                     0.090589
     50 H                     0.088421
     51 H                     0.077300
     52 H                     0.080881
     53 H                     0.078609
     54 H                     0.031849
     55 H                     0.176347
     56 H                     0.257585
  ----------------------------------------
  Sum of atomic charges =     0.000000

 -----------------------------------------------------------------
                    Cartesian Multipole Moments
 -----------------------------------------------------------------
    Charge (ESU x 10^10)
                 0.0000
    Dipole Moment (Debye)
         X      -5.1772      Y      -0.6251      Z      -1.2326
       Tot       5.3585
    Quadrupole Moments (Debye-Ang)
        XX    -191.5099     XY      -2.3029     YY    -159.5934
        XZ       1.8220     YZ       2.2833     ZZ    -156.8278
    Octopole Moments (Debye-Ang^2)
       XXX     -38.8998    XXY      18.9677    XYY      13.4003
       YYY     -17.4879    XXZ     -25.8352    XYZ      16.7953
       YYZ      -5.7523    XZZ      -4.7728    YZZ     -19.9719
       ZZZ       4.4669
    Hexadecapole Moments (Debye-Ang^3)
      XXXX   -9324.2083   XXXY    -189.6920   XXYY   -1873.4334
      XYYY      -6.0559   YYYY   -2577.2995   XXXZ    -242.5780
      XXYZ      -9.7902   XYYZ     -10.6407   YYYZ      38.2064
      XXZZ   -1593.8883   XYZZ      10.3017   YYZZ    -654.4705
      XZZZ     -57.4448   YZZZ       7.6020   ZZZZ   -1281.5566
 -----------------------------------------------------------------
 Calculating analytic gradient of the SCF energy
 Gradient of SCF Energy
            1           2           3           4           5           6
    1  -0.0731901   0.2831579   0.0144121  -0.0032644  -0.0045262   0.0255488
    2  -0.1320322  -0.3353735  -0.1006522   0.0097458  -0.0328163   0.0749749
    3  -0.0001507  -0.0111734   0.0459092   0.0544016   0.0133203  -0.0376946
            7           8           9          10          11          12
    1   0.1726275  -0.1783670  -0.0484816  -0.0216095  -0.1518871  -0.1044904
    2   0.2702595   0.2513980   0.1888172  -0.0273494  -0.1263610   0.0248313
    3   0.2153812  -0.2656964  -0.0313075   0.0083697  -0.0944321  -0.0361345
           13          14          15          16          17          18
    1  -0.0359233  -0.0747420  -0.0219991   0.1184730  -0.0194941  -0.0464887
    2  -0.0109605   0.0033107  -0.0488526  -0.0163198   0.0214657   0.0216353
    3   0.0132326  -0.0539008  -0.0178307   0.0388781   0.0618806   0.0063223
           19          20          21          22          23          24
    1   0.0741751   0.0475064  -0.0095500  -0.0758259  -0.0133501   0.0367027
    2   0.0383869  -0.0150780  -0.0350859  -0.0283930  -0.0057143   0.0206376
    3   0.0146315  -0.0011561  -0.0360490  -0.0543980   0.0938300   0.0435718
           25          26          27          28          29          30
    1   0.0165616   0.0096567   0.0059686   0.0054029  -0.0050035   0.0040983
    2   0.0036064   0.0028946   0.0070615  -0.0003628   0.0082115  -0.0052043
    3   0.0122520   0.0075436  -0.0093387   0.0051981  -0.0089473   0.0083628
           31          32          33          34          35          36
    1   0.0024420   0.0440867   0.0271030  -0.0692330  -0.0250592   0.0279332
    2   0.0028746   0.0268777   0.0306287  -0.0249190  -0.0427360  -0.0174807
    3   0.0082445   0.0032146  -0.0227825  -0.0243034   0.0094771   0.0433596
           37          38          39          40          41          42
    1   0.0578140   0.0396449  -0.0103352  -0.0031752   0.0007054   0.0006981
    2   0.0236901   0.0003223   0.0062673  -0.0061316   0.0005533   0.0108169
    3   0.0462319  -0.0778095   0.0069531  -0.0047493  -0.0052112  -0.0100840
           43          44          45          46          47          48
    1  -0.0105383   0.0062390  -0.0035234   0.0018521  -0.0031475   0.0058835
    2   0.0052874   0.0020130   0.0094939  -0.0035030   0.0037001   0.0048584
    3   0.0045112  -0.0045420   0.0076542  -0.0072853  -0.0114661   0.0014541
           49          50          51          52          53          54
    1   0.0061393   0.0029834  -0.0080559  -0.0075627  -0.0136550   0.0243567
    2  -0.0000620  -0.0022505   0.0023851   0.0042814  -0.0682871   0.0361334
    3   0.0005295  -0.0015093   0.0045790   0.0029528   0.0137296   0.0444333
           55          56
    1   0.0102873  -0.0299818
    2  -0.0874652   0.0559704
    3   0.0326165  -0.0450743
 Max gradient component =       3.354E-01
 RMS gradient           =       6.828E-02
 Gradient time:  CPU 37.12 s  wall 0.79 s
 Geometry Optimization Parameters
   NAtoms,    NIC,     NZ,  NCons,   NDum,   NFix, NCnnct, MaxDiis
       56     656       0       9       0       0       0       0


** CONSTRAINED OPTIMIZATION IN DELOCALIZED INTERNAL COORDINATES **
   Searching for a Minimum

   Optimization Cycle:   1

                       Coordinates (Angstroms)
     ATOM                X               Y               Z
      1  O         0.2034175377   -0.6260177971    0.5776599061
      2  C        -1.0141140913   -0.5716977253    0.4793120628
      3  C        -1.7769859141    0.3393237741   -0.4569887449
      4  C        -3.0412425458   -0.2328500503   -1.1188977835
      5  C        -3.5007045496   -1.5901925752   -0.6345126671
      6  O        -2.5499648472   -2.1391612588    0.1779802717
      7  C        -1.2233249526   -1.6980342206   -0.1297208522
      8  C        -0.2968713214   -1.9522147207    1.0548571149
      9  O         0.9945591389   -2.3700736013    0.5853013131
     10  C         1.6958382447   -1.4346604207   -0.1019853961
     11  C         1.7166207643   -0.0909781834    0.5870370595
     12  C         3.1178844952    0.4612511539    0.8866444131
     13  C         4.2630337755   -0.2104827698    0.1558077795
     14  O         5.4401884667   -0.1570138524    0.4813590806
     15  O        -1.5187687618   -0.0699519190    1.7495494305
     16  O         4.0630792985   -0.5882139102   -1.1331612975
     17  O         1.8834427790   -1.5969152934   -1.3000767140
     18  C         4.9923369309   -1.2435358412   -1.9184051486
     19  C         1.4353845445    1.2084966253   -0.3851380262
     20  C         0.8857167441    2.3313348772    0.4974816666
     21  C         2.1555149399    2.7779971488    1.1800228979
     22  C         3.1577033654    1.9108987490    0.4304114923
     23  O         2.6345195245    1.7699758875   -0.8337071167
     24  H         1.5877024456    0.0675330754    1.7704591937
     25  H         3.4874457928    0.4077284225    1.9527943331
     26  H         0.8361147818    0.9527821773   -1.2620085525
     27  H         0.5196528064    3.1471552372   -0.1655333816
     28  H         0.1264451194    2.0185442983    1.2276303509
     29  H         2.3189840859    3.8565092993    0.9616791148
     30  H         2.2040001148    2.5889997818    2.2749503333
     31  H         4.1820818844    2.3461285563    0.4721607733
     32  O        -4.5645625204   -2.1292447724   -0.8949354574
     33  C        -2.4318406975   -0.5966247676    2.6549845302
     34  C        -2.4611894764    1.6406445135    0.1348213335
     35  C        -2.7103402224    2.6836393930   -0.9591203255
     36  C        -3.8926946861    2.0673779495   -1.6644336866
     37  C        -4.1060866649    0.8244476537   -0.8012269712
     38  O        -3.7604119099    1.2419275679    0.4851844988
     39  H        -1.1225972282    0.7109420643   -1.2496175590
     40  H        -2.9323311279   -0.3495162816   -2.2209099564
     41  H        -1.9450830928   -0.6576925500    3.6500240044
     42  H        -1.9182166701    2.1441566161    0.9506732852
     43  H        -3.0517943126    3.6224926962   -0.4666120800
     44  H        -1.8285188392    2.9054387644   -1.5974015119
     45  H        -4.7656170482    2.7494032108   -1.5557637703
     46  H        -3.7349359527    1.8253198527   -2.7374002744
     47  H        -5.1441685748    0.4457417921   -0.9281259653
     48  H        -2.7785787879   -1.6119259446    2.3999633047
     49  H        -3.3067521490    0.0774772380    2.7412776853
     50  H         4.5483343264   -1.4489558393   -2.9137721507
     51  H         5.2650776447   -2.2135503332   -1.4473210010
     52  H         5.9024670196   -0.6209430261   -2.0493160937
     53  H        -0.2734330508   -1.8895631049    2.2272927651
     54  H        -0.6951408974   -2.9573753123    1.3790404150
     55  H        -0.9420193050   -1.8650813706   -1.2797229523
     56  H        -0.9309407263   -2.6790811059   -0.6413761231
   Point Group: c1    Number of degrees of freedom:   162


   Energy is  -1509.148124505

              Constraints and their Current Values
                                        Value     Constraint
   Dihedral:        1   2   3   4      142.105      142.105
   Dihedral:        3   4   5   6       -9.474       -9.474
   Dihedral:        4   5   6   7      -28.421      -28.421
   Dihedral:        5   6   7   8      161.053      161.053
   Dihedral:        6   7   8   9      142.105      142.105
   Dihedral:        7   8   9  10       66.315       66.316
   Dihedral:        8   9  10  11       47.369       47.368
   Dihedral:        9  10  11  12      123.158      123.158
   Dihedral:       11  12  13  14     -161.052     -161.053

 Attempting to Generate Delocalized Internal Coordinates

   Using Lagrange Multiplier Algorithm


169 Hessian modes will be used to form the next step
  Hessian Eigenvalues:
    -0.977753   -0.977753   -0.977753   -0.977753   -0.977753   -0.977753
    -0.977753   -0.977753    0.045000    0.045000    0.045000    0.045000
     0.045008    0.045754    0.046426    0.046740    0.048354    0.048574
     0.049723    0.050708    0.053004    0.055531    0.057268    0.057506
     0.058627    0.060455    0.060467    0.061991    0.062090    0.063875
     0.065476    0.066808    0.067400    0.067708    0.068096    0.070379
     0.070770    0.071003    0.073043    0.074585    0.076856    0.078163
     0.079226    0.081323    0.081949    0.082446    0.083150    0.083545
     0.084698    0.085028    0.085620    0.086496    0.086932    0.087301
     0.087490    0.088237    0.088323    0.088630    0.089049    0.089267
     0.089622    0.090184    0.093778    0.093840    0.094820    0.095722
     0.097143    0.100067    0.104495    0.109435    0.110433    0.110973
     0.111449    0.111694    0.111849    0.114463    0.115960    0.116149
     0.118400    0.119787    0.121639    0.127600    0.132466    0.134796
     0.153532    0.159419    0.160000    0.160000    0.160000    0.160000
     0.160000    0.160000    0.162868    0.169319    0.172016    0.172935
     0.192465    0.196306    0.202559    0.221168    0.235609    0.244301
     0.245975    0.249867    0.249942    0.250000    0.250000    0.250000
     0.254421    0.260893    0.265986    0.266269    0.266371    0.274032
     0.279054    0.279931    0.282896    0.292100    0.295575    0.297993
     0.299052    0.304568    0.306047    0.306935    0.308028    0.308145
     0.321986    0.322024    0.322313    0.322664    0.322754    0.323401
     0.323566    0.323613    0.323706    0.324746    0.324998    0.325526
     0.326638    0.326961    0.328288    0.333777    0.334841    0.338108
     0.344716    0.345327    0.345983    0.374699    0.375534    0.380146
     0.388691    0.394745    0.405880    0.461574    0.473941    0.484279
     0.487614    0.533584    0.938505    0.942789    0.950589    1.022753
     1.022753    1.022753    1.022753    1.022753    1.022753    1.022753
     1.022753

 Minimum Search - Taking P-RFO Step
 Searching for Lamda that Maximizes Along the Constraint modes Only
 Value Taken    Lamda =   0.04793180


 ********************************************
 ** ERROR IN DETERMINING Lamda IN CONFormD **
 ********************************************


 ** Scaling Hessian by  2.130302 **


169 Hessian modes will be used to form the next step
  Hessian Eigenvalues:
    -0.977753   -0.977753   -0.953216   -0.953216   -0.953216   -0.953216
    -0.953216   -0.953216    0.095864    0.095864    0.095864    0.095864
     0.095880    0.097470    0.098902    0.099570    0.103009    0.103478
     0.105924    0.108023    0.112914    0.118299    0.121997    0.122505
     0.124893    0.128786    0.128813    0.132060    0.132270    0.136073
     0.139484    0.142321    0.143583    0.144238    0.145065    0.149929
     0.150762    0.151257    0.155605    0.158888    0.163727    0.166512
     0.168775    0.173243    0.174576    0.175635    0.177135    0.177977
     0.180433    0.181135    0.182396    0.184263    0.185192    0.185977
     0.186380    0.187972    0.188155    0.188809    0.189702    0.190166
     0.190922    0.192119    0.199775    0.199908    0.201995    0.203916
     0.206944    0.213173    0.222605    0.233130    0.235255    0.236406
     0.237419    0.237942    0.238271    0.243840    0.247029    0.247433
     0.252229    0.255183    0.259127    0.271826    0.282193    0.287156
     0.327070    0.339611    0.340848    0.340848    0.340848    0.340848
     0.340848    0.340848    0.346957    0.360700    0.366447    0.368404
     0.410008    0.418192    0.431511    0.471155    0.501918    0.520435
     0.524001    0.532292    0.532452    0.532576    0.532576    0.532576
     0.541994    0.555781    0.566631    0.567234    0.567451    0.583770
     0.594470    0.596337    0.602654    0.622261    0.629665    0.634815
     0.637071    0.648821    0.651972    0.653864    0.656193    0.656442
     0.685928    0.686009    0.686623    0.687371    0.687564    0.688943
     0.689292    0.689393    0.689593    0.691808    0.692344    0.693468
     0.695837    0.696525    0.699352    0.711047    0.713312    0.720272
     0.734349    0.735650    0.737049    0.798223    0.800000    0.809826
     0.828030    0.840927    0.864648    0.983293    1.009638    1.022753
     1.022753    1.031660    1.038765    1.049080    1.049080    1.049080
     1.049080    1.049080    1.049080    1.136694    1.999299    2.008425
     2.025041

 Minimum Search - Taking P-RFO Step
 Searching for Lamda that Maximizes Along the Constraint modes Only
 Value Taken    Lamda =   0.04784727
 Searching for Lamda that Minimizes Along All other modes
 Value Taken    Lamda =  -0.36724639
 Calculated Step too Large.  Step scaled by  0.511063
 Step Taken.  Stepsize is  0.300000

                             Maximum     Tolerance    Cnvgd?
         Gradient            0.197498       0.000300      NO
         Displacement        0.156783       0.001200      NO
         Energy change     *********       0.000001      NO


 New Cartesian Coordinates Obtained by Inverse Iteration

 Displacement from previous Coordinates is:  0.830757
 Adding empirical dispersion correction 
 ----------------------------------------------------------------
 Doing -D3(op) with
 s6 =   1.00000
 s8 =   0.78311
 a1 =   0.30000
 a2 =   4.25000
 n  =  10.00000
 -D3 energy without 3body term =     -0.0854993864 hartrees
 ----------------------------------------------------------------
             Standard Nuclear Orientation (Angstroms)
    I     Atom           X                Y                Z
 ----------------------------------------------------------------
    1      O       0.2019049342    -0.6275120544     0.5850270205
    2      C      -1.0433294918    -0.5662857661     0.4823308517
    3      C      -1.8179908628     0.3601928584    -0.4697496840
    4      C      -3.1030767960    -0.2232919732    -1.1212076312
    5      C      -3.5616776196    -1.5974579679    -0.6264965684
    6      O      -2.5984028774    -2.1529702677     0.1855487305
    7      C      -1.2582399448    -1.7117623179    -0.1299089062
    8      C      -0.3014334436    -1.9916204529     1.0772431294
    9      O       1.0063454830    -2.4175236115     0.6015071314
   10      C       1.7267550426    -1.4616348515    -0.0959812041
   11      C       1.7541173457    -0.0884647176     0.5939810865
   12      C       3.1893551202     0.4687813228     0.8887259063
   13      C       4.3510567409    -0.2021774458     0.1586320068
   14      O       5.5342618635    -0.1347344174     0.4964098976
   15      O      -1.5539631381    -0.0612275223     1.7618850704
   16      O       4.1300899544    -0.5871147830    -1.1362031227
   17      O       1.9203249444    -1.6365838541    -1.2991039679
   18      C       5.0848502637    -1.2424739347    -1.9108637369
   19      C       1.4640164604     1.2041197924    -0.3909392556
   20      C       0.9126123199     2.3342858996     0.4965896255
   21      C       2.1982763103     2.7937550148     1.1724939211
   22      C       3.2135283286     1.9243730909     0.4181079026
   23      O       2.6714834087     1.7695830609    -0.8544764612
   24      H       1.6172645469     0.0702457452     1.7636248305
   25      H       3.5585726924     0.4198580592     1.9504886897
   26      H       0.8591159174     0.9397173983    -1.2650413849
   27      H       0.5363825583     3.1439271720    -0.1645251435
   28      H       0.1579544108     2.0206316315     1.2312012855
   29      H       2.3546320587     3.8699276145     0.9491847387
   30      H       2.2541255780     2.6121882077     2.2659162214
   31      H       4.2346323676     2.3657423591     0.4490465595
   32      O      -4.6322357604    -2.1424891412    -0.8737620824
   33      C      -2.4814438673    -0.6237598231     2.6480777240
   34      C      -2.4944573681     1.6653339227     0.1336473667
   35      C      -2.7520353543     2.7096872862    -0.9707379290
   36      C      -3.9541049860     2.0905065239    -1.6687738940
   37      C      -4.1683824060     0.8435158466    -0.7928385358
   38      O      -3.8036288329     1.2670773439     0.5008918560
   39      H      -1.1660361403     0.7304904837    -1.2680671299
   40      H      -3.0045397074    -0.3419819180    -2.2226751835
   41      H      -2.0127706557    -0.7018538483     3.6518166450
   42      H      -1.9413157701     2.1621399733     0.9475203314
   43      H      -3.0814774073     3.6511672246    -0.4806739091
   44      H      -1.8764541197     2.9236301647    -1.6167173993
   45      H      -4.8223392385     2.7742462257    -1.5577826400
   46      H      -3.8073528084     1.8436873838    -2.7400831329
   47      H      -5.2076597599     0.4654421604    -0.9041457930
   48      H      -2.8139969439    -1.6380449786     2.3645009169
   49      H      -3.3684130405     0.0365288803     2.7338929248
   50      H       4.6467538857    -1.4632909101    -2.9053924848
   51      H       5.3744931211    -2.2049900873    -1.4332392985
   52      H       5.9899354895    -0.6118624617    -2.0471648198
   53      H      -0.2764590019    -1.9266370180     2.2466798491
   54      H      -0.7029107047    -3.0054303033     1.3964176051
   55      H      -0.9794516389    -1.8613729892    -1.2881361258
   56      H      -0.9589458134    -2.7041134022    -0.6375335503
 ----------------------------------------------------------------
 Molecular Point Group                 C1    NOp =  1
 Largest Abelian Subgroup              C1    NOp =  1
 Nuclear Repulsion Energy =  3556.4268317661 hartrees
 There are      113 alpha and      113 beta electrons
 Applying Cartesian multipole field
    Component          Value
    ---------          -----
     (2,0,0)        1.00000E-12
     (0,2,0)        2.00000E-11
     (0,0,2)       -3.00000E-11
 Nucleus-field energy     =     0.0000000186 hartrees
 Requested basis set is STO-3G
 There are 86 shells and 176 basis functions
 A cutoff of  1.0D-12 yielded   2702 shell pairs
 There are     12629 function pairs
 Smallest overlap matrix eigenvalue = 1.59E-01
 Guess MOs from SCF MO coefficient file
 Reading MOs from coefficient file
 Reading MOs from coefficient file
 A restricted hybrid HF-DFT SCF calculation will be
 performed using Pulay DIIS extrapolation
 Exchange:     0.2000 Hartree-Fock + 0.0800 Slater + 0.7200 B88
 Correlation:  0.1900 VWN1RPA + 0.8100 LYP
 Using SG-1 standard quadrature grid
 Dispersion:   Grimme D3
 SCF converges when DIIS error is below 1.0E-08
 Geometry optimization detected.  Setting ReadMinima to 0
 Setting SaveMinima to 0
 using 48 threads for integral computing
 -------------------------------------------------------
 OpenMP Integral computing Module                
 Release: version 1.0, May 2013, Q-Chem Inc. Pittsburgh 
 -------------------------------------------------------
 -------------------------------------------------------
 OpenMP BLAS3 based DFT computing Module                
 Release: version 1.0, May 2013, Q-Chem Inc. Pittsburgh 
 -------------------------------------------------------
 ---------------------------------------
  Cycle       Energy         DIIS Error
 ---------------------------------------
    1   -1509.1809206819      2.86E-03
    2   -1509.2944436443      6.61E-04
    3   -1509.2910658314      1.08E-03
    4   -1509.2965721691      2.09E-04
    5   -1509.2967484358      5.03E-05
    6   -1509.2967582968      2.08E-05
    7   -1509.2967602879      4.53E-06
    8   -1509.2967603810      1.86E-06
    9   -1509.2967603924      1.08E-06
   10   -1509.2967603977      2.75E-07
   11   -1509.2967603982      7.81E-08
   12   -1509.2967603980      3.27E-08
   13   -1509.2967603982      1.27E-08
   14   -1509.2967603984      7.07E-09 Convergence criterion met
 ---------------------------------------
 SCF time:  CPU 123.20 s  wall 2.57 s
 SCF   energy in the final basis set = -1509.29676040
 Total energy in the final basis set = -1509.29676040
 
 --------------------------------------------------------------
 
                    Orbital Energies (a.u.)
 --------------------------------------------------------------
 
 Alpha MOs
 -- Occupied --
-18.976 -18.919 -18.917 -18.908 -18.895 -18.893 -18.884 -18.874
-18.865 -18.812 -10.203 -10.169 -10.148 -10.145 -10.099 -10.080
-10.071 -10.067 -10.062 -10.053 -10.051 -10.045 -10.045 -10.038
-10.029 -10.024 -10.021 -10.005 -10.003  -9.975  -1.184  -1.084
 -1.029  -1.019  -1.011  -1.002  -0.999  -0.973  -0.934  -0.904
 -0.856  -0.800  -0.757  -0.754  -0.733  -0.729  -0.715  -0.689
 -0.682  -0.665  -0.650  -0.618  -0.616  -0.582  -0.556  -0.547
 -0.538  -0.536  -0.527  -0.513  -0.500  -0.489  -0.483  -0.477
 -0.466  -0.455  -0.448  -0.437  -0.435  -0.432  -0.424  -0.414
 -0.405  -0.400  -0.398  -0.385  -0.380  -0.375  -0.366  -0.361
 -0.352  -0.341  -0.336  -0.330  -0.323  -0.317  -0.316  -0.314
 -0.307  -0.301  -0.299  -0.292  -0.288  -0.280  -0.277  -0.262
 -0.248  -0.242  -0.226  -0.224  -0.216  -0.203  -0.193  -0.183
 -0.177  -0.163  -0.158  -0.147  -0.141  -0.131  -0.125  -0.116
 -0.090
 -- Virtual --
  0.010   0.068   0.075   0.113   0.144   0.212   0.243   0.252
  0.277   0.283   0.294   0.303   0.309   0.319   0.333   0.340
  0.347   0.351   0.355   0.358   0.365   0.368   0.376   0.384
  0.392   0.397   0.402   0.409   0.413   0.417   0.422   0.425
  0.426   0.433   0.437   0.440   0.444   0.448   0.452   0.454
  0.456   0.463   0.467   0.475   0.481   0.484   0.489   0.497
  0.501   0.512   0.516   0.532   0.540   0.557   0.565   0.571
  0.583   0.589   0.613   0.643   0.667   0.694   0.711
 --------------------------------------------------------------
 
          Ground-State Mulliken Net Atomic Charges

     Atom                 Charge (a.u.)
  ----------------------------------------
      1 O                    -0.208664
      2 C                     0.206732
      3 C                    -0.078625
      4 C                    -0.104575
      5 C                     0.229702
      6 O                    -0.185655
      7 C                    -0.075704
      8 C                     0.062679
      9 O                    -0.236943
     10 C                     0.230724
     11 C                     0.001498
     12 C                    -0.096239
     13 C                     0.212647
     14 O                    -0.254701
     15 O                    -0.211742
     16 O                    -0.204808
     17 O                    -0.218224
     18 C                    -0.098952
     19 C                     0.032141
     20 C                    -0.148344
     21 C                    -0.144575
     22 C                     0.034807
     23 O                    -0.209740
     24 H                     0.049129
     25 H                     0.056379
     26 H                     0.061989
     27 H                     0.068057
     28 H                     0.076328
     29 H                     0.071413
     30 H                     0.071150
     31 H                     0.078648
     32 O                    -0.192929
     33 C                    -0.124474
     34 C                     0.038886
     35 C                    -0.145942
     36 C                    -0.143691
     37 C                     0.037938
     38 O                    -0.212600
     39 H                     0.077476
     40 H                     0.080272
     41 H                     0.078661
     42 H                     0.090959
     43 H                     0.076737
     44 H                     0.073526
     45 H                     0.077257
     46 H                     0.071756
     47 H                     0.088675
     48 H                     0.087841
     49 H                     0.090086
     50 H                     0.088873
     51 H                     0.077906
     52 H                     0.081236
     53 H                     0.078094
     54 H                     0.037317
     55 H                     0.168508
     56 H                     0.251101
  ----------------------------------------
  Sum of atomic charges =     0.000000

 -----------------------------------------------------------------
                    Cartesian Multipole Moments
 -----------------------------------------------------------------
    Charge (ESU x 10^10)
                 0.0000
    Dipole Moment (Debye)
         X      -4.9486      Y      -0.5566      Z      -1.2107
       Tot       5.1249
    Quadrupole Moments (Debye-Ang)
        XX    -190.9443     XY      -2.2906     YY    -159.4447
        XZ       2.0047     YZ       2.0206     ZZ    -156.7054
    Octopole Moments (Debye-Ang^2)
       XXX     -36.4688    XXY      18.6141    XYY      13.6865
       YYY     -17.0146    XXZ     -28.2965    XYZ      17.6120
       YYZ      -5.3013    XZZ      -4.8760    YZZ     -20.4399
       ZZZ       3.6405
    Hexadecapole Moments (Debye-Ang^3)
      XXXX   -9627.2920   XXXY    -204.4390   XXYY   -1929.5483
      XYYY      -3.9279   YYYY   -2620.5380   XXXZ    -251.0993
      XXYZ      -6.9025   XYYZ      -9.3250   YYYZ      44.0758
      XXZZ   -1638.8624   XYZZ      10.9068   YYZZ    -660.8320
      XZZZ     -56.0554   YZZZ      13.9109   ZZZZ   -1282.8542
 -----------------------------------------------------------------
 Calculating analytic gradient of the SCF energy
 Gradient of SCF Energy
            1           2           3           4           5           6
    1  -0.0377138   0.2359450   0.0126273  -0.0040194  -0.0058512   0.0211480
    2  -0.0955583  -0.2989801  -0.0841359   0.0108967  -0.0328080   0.0649696
    3  -0.0035384  -0.0062814   0.0363446   0.0438837   0.0121299  -0.0284310
            7           8           9          10          11          12
    1   0.1590189  -0.1773950  -0.0406893  -0.0081132  -0.1495836  -0.0861006
    2   0.2479146   0.2139004   0.1499927  -0.0265680  -0.1082146   0.0259932
    3   0.1943501  -0.2331388  -0.0230485   0.0022279  -0.0792720  -0.0259315
           13          14          15          16          17          18
    1  -0.0377729  -0.0524563  -0.0217940   0.1034183  -0.0178880  -0.0426685
    2  -0.0125926   0.0048703  -0.0396456  -0.0125592   0.0175065   0.0187097
    3   0.0113703  -0.0418024  -0.0139555   0.0299972   0.0428393   0.0053020
           19          20          21          22          23          24
    1   0.0612717   0.0352296  -0.0068746  -0.0582456  -0.0094858   0.0330640
    2   0.0334524  -0.0126432  -0.0268587  -0.0230915  -0.0027858   0.0190343
    3   0.0081890  -0.0013928  -0.0267552  -0.0449073   0.0760104   0.0423370
           25          26          27          28          29          30
    1   0.0169220   0.0083937   0.0055784   0.0050231  -0.0049168   0.0042441
    2   0.0030118   0.0025215   0.0055723   0.0001846   0.0064734  -0.0043549
    3   0.0087736   0.0056039  -0.0082027   0.0045099  -0.0079322   0.0064954
           31          32          33          34          35          36
    1   0.0023275   0.0333699   0.0239560  -0.0575529  -0.0178557   0.0212778
    2   0.0020725   0.0204899   0.0290781  -0.0201078  -0.0332567  -0.0142936
    3   0.0086784   0.0009757  -0.0187727  -0.0176067   0.0078194   0.0327243
           37          38          39          40          41          42
    1   0.0458623   0.0314863  -0.0091568  -0.0033082   0.0004157   0.0008809
    2   0.0187462  -0.0001639   0.0070353  -0.0058823   0.0001148   0.0099917
    3   0.0390309  -0.0640527   0.0063642  -0.0037163  -0.0036138  -0.0093360
           43          44          45          46          47          48
    1  -0.0089616   0.0050046  -0.0024692   0.0009621  -0.0025943   0.0045965
    2   0.0039673   0.0021790   0.0079257  -0.0028889   0.0031153   0.0032813
    3   0.0039232  -0.0033758   0.0066698  -0.0058529  -0.0111186   0.0017949
           49          50          51          52          53          54
    1   0.0045137   0.0027898  -0.0063134  -0.0055520  -0.0124903   0.0226227
    2   0.0000312  -0.0022173   0.0011936   0.0036517  -0.0673450   0.0280859
    3   0.0010855  -0.0016763   0.0036726   0.0019889   0.0145666   0.0467636
           55          56
    1   0.0134907  -0.0276175
    2  -0.0840264   0.0450146
    3   0.0254295  -0.0481404
 Max gradient component =       2.990E-01
 RMS gradient           =       5.949E-02
 Gradient time:  CPU 37.99 s  wall 0.80 s
 Geometry Optimization Parameters
   NAtoms,    NIC,     NZ,  NCons,   NDum,   NFix, NCnnct, MaxDiis
       56     656       0       9       0       0       0       0

 Cartesian Hessian Update
 Hessian Updated using BFGS Update


** CONSTRAINED OPTIMIZATION IN DELOCALIZED INTERNAL COORDINATES **
   Searching for a Minimum

   Optimization Cycle:   2

                       Coordinates (Angstroms)
     ATOM                X               Y               Z
      1  O         0.2019049342   -0.6275120544    0.5850270205
      2  C        -1.0433294918   -0.5662857661    0.4823308517
      3  C        -1.8179908628    0.3601928584   -0.4697496840
      4  C        -3.1030767960   -0.2232919732   -1.1212076312
      5  C        -3.5616776196   -1.5974579679   -0.6264965684
      6  O        -2.5984028774   -2.1529702677    0.1855487305
      7  C        -1.2582399448   -1.7117623179   -0.1299089062
      8  C        -0.3014334436   -1.9916204529    1.0772431294
      9  O         1.0063454830   -2.4175236115    0.6015071314
     10  C         1.7267550426   -1.4616348515   -0.0959812041
     11  C         1.7541173457   -0.0884647176    0.5939810865
     12  C         3.1893551202    0.4687813228    0.8887259063
     13  C         4.3510567409   -0.2021774458    0.1586320068
     14  O         5.5342618635   -0.1347344174    0.4964098976
     15  O        -1.5539631381   -0.0612275223    1.7618850704
     16  O         4.1300899544   -0.5871147830   -1.1362031227
     17  O         1.9203249444   -1.6365838541   -1.2991039679
     18  C         5.0848502637   -1.2424739347   -1.9108637369
     19  C         1.4640164604    1.2041197924   -0.3909392556
     20  C         0.9126123199    2.3342858996    0.4965896255
     21  C         2.1982763103    2.7937550148    1.1724939211
     22  C         3.2135283286    1.9243730909    0.4181079026
     23  O         2.6714834087    1.7695830609   -0.8544764612
     24  H         1.6172645469    0.0702457452    1.7636248305
     25  H         3.5585726924    0.4198580592    1.9504886897
     26  H         0.8591159174    0.9397173983   -1.2650413849
     27  H         0.5363825583    3.1439271720   -0.1645251435
     28  H         0.1579544108    2.0206316315    1.2312012855
     29  H         2.3546320587    3.8699276145    0.9491847387
     30  H         2.2541255780    2.6121882077    2.2659162214
     31  H         4.2346323676    2.3657423591    0.4490465595
     32  O        -4.6322357604   -2.1424891412   -0.8737620824
     33  C        -2.4814438673   -0.6237598231    2.6480777240
     34  C        -2.4944573681    1.6653339227    0.1336473667
     35  C        -2.7520353543    2.7096872862   -0.9707379290
     36  C        -3.9541049860    2.0905065239   -1.6687738940
     37  C        -4.1683824060    0.8435158466   -0.7928385358
     38  O        -3.8036288329    1.2670773439    0.5008918560
     39  H        -1.1660361403    0.7304904837   -1.2680671299
     40  H        -3.0045397074   -0.3419819180   -2.2226751835
     41  H        -2.0127706557   -0.7018538483    3.6518166450
     42  H        -1.9413157701    2.1621399733    0.9475203314
     43  H        -3.0814774073    3.6511672246   -0.4806739091
     44  H        -1.8764541197    2.9236301647   -1.6167173993
     45  H        -4.8223392385    2.7742462257   -1.5577826400
     46  H        -3.8073528084    1.8436873838   -2.7400831329
     47  H        -5.2076597599    0.4654421604   -0.9041457930
     48  H        -2.8139969439   -1.6380449786    2.3645009169
     49  H        -3.3684130405    0.0365288803    2.7338929248
     50  H         4.6467538857   -1.4632909101   -2.9053924848
     51  H         5.3744931211   -2.2049900873   -1.4332392985
     52  H         5.9899354895   -0.6118624617   -2.0471648198
     53  H        -0.2764590019   -1.9266370180    2.2466798491
     54  H        -0.7029107047   -3.0054303033    1.3964176051
     55  H        -0.9794516389   -1.8613729892   -1.2881361258
     56  H        -0.9589458134   -2.7041134022   -0.6375335503
   Point Group: c1    Number of degrees of freedom:   162


   Energy is  -1509.296760398

              Constraints and their Current Values
                                        Value     Constraint
   Dihedral:        1   2   3   4      142.627      142.105
   Dihedral:        3   4   5   6       -9.268       -9.474
   Dihedral:        4   5   6   7      -28.421      -28.421
   Dihedral:        5   6   7   8      161.623      161.053
   Dihedral:        6   7   8   9      142.163      142.105
   Dihedral:        7   8   9  10       66.007       66.316
   Dihedral:        8   9  10  11       47.036       47.368
   Dihedral:        9  10  11  12      123.500      123.158
   Dihedral:       11  12  13  14     -161.112     -161.053
 Hessian Updated using BFGS Update

   Using Lagrange Multiplier Algorithm


162 Hessian modes will be used to form the next step
  Hessian Eigenvalues:
    -0.977753   -0.977428   -0.953252   -0.953216   -0.953216   -0.953216
    -0.953216   -0.933998    0.095854    0.095864    0.095876    0.097464
     0.098735    0.099570    0.103005    0.103479    0.105689    0.107983
     0.112896    0.118139    0.121168    0.122375    0.124842    0.128433
     0.128801    0.129643    0.132080    0.136147    0.139395    0.142342
     0.142413    0.144209    0.145037    0.149954    0.150776    0.151043
     0.155605    0.158759    0.163726    0.166506    0.168707    0.172737
     0.174399    0.175225    0.177142    0.177261    0.178472    0.180467
     0.181226    0.183637    0.185214    0.185569    0.186374    0.187893
     0.188152    0.188772    0.189712    0.189895    0.190872    0.191944
     0.198519    0.199810    0.202017    0.203914    0.206944    0.209303
     0.222789    0.230640    0.233433    0.236337    0.237407    0.237853
     0.238319    0.243846    0.247029    0.247434    0.252278    0.255164
     0.259095    0.270947    0.281983    0.287337    0.310992    0.327838
     0.340766    0.341222    0.343191    0.352459    0.365242    0.367478
     0.382985    0.411013    0.431575    0.469356    0.482072    0.509326
     0.520783    0.526481    0.532431    0.532482    0.532781    0.543469
     0.554641    0.566357    0.567060    0.568108    0.583329    0.593624
     0.596622    0.602706    0.612293    0.623613    0.630210    0.637083
     0.640349    0.651953    0.654196    0.656173    0.659508    0.685875
     0.686006    0.686611    0.687324    0.687530    0.688902    0.689325
     0.689387    0.689565    0.691776    0.692316    0.693510    0.695854
     0.696533    0.699363    0.711059    0.713306    0.720276    0.734162
     0.735476    0.737723    0.774480    0.799351    0.801627    0.811177
     0.832070    0.857750    0.929630    1.008691    1.022753    1.023293
     1.027722    1.037925    1.049077    1.049080    1.049080    1.049080
     1.049080    1.107108    1.135373    1.996716    2.005462    2.023082

 Minimum Search - Taking P-RFO Step
 Searching for Lamda that Maximizes Along the Constraint modes Only
 Value Taken    Lamda =   0.00437461
 Searching for Lamda that Minimizes Along All other modes
 Value Taken    Lamda =  -0.33344996
 Calculated Step too Large.  Step scaled by  0.418652
 Step Taken.  Stepsize is  0.300000

                             Maximum     Tolerance    Cnvgd?
         Gradient            0.155738       0.000300      NO
         Displacement        0.089133       0.001200      NO
         Energy change     -0.148636       0.000001      NO


 New Cartesian Coordinates Obtained by Inverse Iteration

 Displacement from previous Coordinates is:  0.767840
 Adding empirical dispersion correction 
 ----------------------------------------------------------------
 Doing -D3(op) with
 s6 =   1.00000
 s8 =   0.78311
 a1 =   0.30000
 a2 =   4.25000
 n  =  10.00000
 -D3 energy without 3body term =     -0.0845979227 hartrees
 ----------------------------------------------------------------
             Standard Nuclear Orientation (Angstroms)
    I     Atom           X                Y                Z
 ----------------------------------------------------------------
    1      O       0.2050495077    -0.6201949355     0.5916219800
    2      C      -1.0703197652    -0.5517032435     0.4818308779
    3      C      -1.8581379288     0.3906990201    -0.4769906912
    4      C      -3.1492976884    -0.2152002093    -1.1247076696
    5      C      -3.6061311177    -1.6065912382    -0.6239561504
    6      O      -2.6270782107    -2.1680179238     0.1853157233
    7      C      -1.2852432149    -1.7249026851    -0.1387765501
    8      C      -0.2940415200    -2.0162212176     1.0983149586
    9      O       1.0287678738    -2.4579085299     0.6286805441
   10      C       1.7618053303    -1.4755844262    -0.0839015529
   11      C       1.7965106900    -0.0749702684     0.6024749411
   12      C       3.2580161915     0.4825960672     0.8922529975
   13      C       4.4252637488    -0.1997551645     0.1610468733
   14      O       5.6168619565    -0.1328379266     0.5012337249
   15      O      -1.5899213086    -0.0483832508     1.7686588770
   16      O       4.1703770880    -0.5953345614    -1.1362670681
   17      O       1.9633561838    -1.6634148207    -1.2905730403
   18      C       5.1458758353    -1.2647260767    -1.8973007998
   19      C       1.4965389402     1.2049243418    -0.3942954561
   20      C       0.9437285173     2.3433404117     0.4956760584
   21      C       2.2438030572     2.8157594830     1.1634606635
   22      C       3.2699551763     1.9426705098     0.4055380431
   23      O       2.7106487594     1.7735807504    -0.8763106390
   24      H       1.6540286136     0.0858932881     1.7536467832
   25      H       3.6250453503     0.4392860512     1.9504106815
   26      H       0.8856362540     0.9299248361    -1.2645717663
   27      H       0.5570229374     3.1457550016    -0.1645803951
   28      H       0.1941745302     2.0295991325     1.2358722795
   29      H       2.3940764151     3.8892723479     0.9340806151
   30      H       2.3060723060     2.6423183032     2.2556599817
   31      H       4.2881192295     2.3887812618     0.4243351304
   32      O      -4.6805462563    -2.1606959553    -0.8626992253
   33      C      -2.5315386702    -0.6609428696     2.6262191388
   34      C      -2.5331055313     1.6906521376     0.1398279943
   35      C      -2.8019870592     2.7372029870    -0.9713792185
   36      C      -4.0153859452     2.1086898921    -1.6667659540
   37      C      -4.2240660269     0.8533447075    -0.7840920785
   38      O      -3.8494205435     1.2820593492     0.5203550205
   39      H      -1.2090506675     0.7658671919    -1.2787139382
   40      H      -3.0565261315    -0.3315268320    -2.2257025550
   41      H      -2.0836915141    -0.7594332512     3.6384776851
   42      H      -1.9754331578     2.1819104085     0.9548861527
   43      H      -3.1275188631     3.6777126412    -0.4821390997
   44      H      -1.9325103815     2.9508674906    -1.6224318258
   45      H      -4.8840569065     2.7879096726    -1.5540765470
   46      H      -3.8735329958     1.8613434373    -2.7366092827
   47      H      -5.2612385930     0.4688357982    -0.8845017275
   48      H      -2.8395017716    -1.6730027114     2.3045808278
   49      H      -3.4346694415    -0.0211345099     2.7103692489
   50      H       4.7113000422    -1.5032796884    -2.8888278902
   51      H       5.4424449465    -2.2179297260    -1.4052311550
   52      H       6.0503428722    -0.6341360631    -2.0419482133
   53      H      -0.2719380899    -1.9403846065     2.2623851271
   54      H      -0.6968598334    -3.0372394895     1.4109136623
   55      H      -1.0107713107    -1.8592020409    -1.3023848952
   56      H      -0.9729862616    -2.7240224700    -0.6392223561
 ----------------------------------------------------------------
 Molecular Point Group                 C1    NOp =  1
 Largest Abelian Subgroup              C1    NOp =  1
 Nuclear Repulsion Energy =  3520.0950260166 hartrees
 There are      113 alpha and      113 beta electrons
 Applying Cartesian multipole field
    Component          Value
    ---------          -----
     (2,0,0)        1.00000E-12
     (0,2,0)        2.00000E-11
     (0,0,2)       -3.00000E-11
 Nucleus-field energy     =     0.0000000197 hartrees
 Requested basis set is STO-3G
 There are 86 shells and 176 basis functions
 A cutoff of  1.0D-12 yielded   2680 shell pairs
 There are     12520 function pairs
 Smallest overlap matrix eigenvalue = 1.73E-01
 Guess MOs from SCF MO coefficient file
 Reading MOs from coefficient file
 Reading MOs from coefficient file
 A restricted hybrid HF-DFT SCF calculation will be
 performed using Pulay DIIS extrapolation
 Exchange:     0.2000 Hartree-Fock + 0.0800 Slater + 0.7200 B88
 Correlation:  0.1900 VWN1RPA + 0.8100 LYP
 Using SG-1 standard quadrature grid
 Dispersion:   Grimme D3
 SCF converges when DIIS error is below 1.0E-08
 Geometry optimization detected.  Setting ReadMinima to 0
 Setting SaveMinima to 0
 using 48 threads for integral computing
 -------------------------------------------------------
 OpenMP Integral computing Module                
 Release: version 1.0, May 2013, Q-Chem Inc. Pittsburgh 
 -------------------------------------------------------
 -------------------------------------------------------
 OpenMP BLAS3 based DFT computing Module                
 Release: version 1.0, May 2013, Q-Chem Inc. Pittsburgh 
 -------------------------------------------------------
 ---------------------------------------
  Cycle       Energy         DIIS Error
 ---------------------------------------
    1   -1509.3131078406      2.75E-03
    2   -1509.4212515128      6.39E-04
    3   -1509.4182062503      1.03E-03
    4   -1509.4232340753      2.17E-04
    5   -1509.4234277768      5.13E-05
    6   -1509.4234376241      2.32E-05
    7   -1509.4234401115      4.98E-06
    8   -1509.4234402380      1.57E-06
    9   -1509.4234402490      7.74E-07
   10   -1509.4234402513      4.06E-07
   11   -1509.4234402521      9.66E-08
   12   -1509.4234402521      3.75E-08
   13   -1509.4234402522      1.22E-08
   14   -1509.4234402523      6.22E-09 Convergence criterion met
 ---------------------------------------
 SCF time:  CPU 115.33 s  wall 2.41 s
 SCF   energy in the final basis set = -1509.42344025
 Total energy in the final basis set = -1509.42344025
 
 --------------------------------------------------------------
 
                    Orbital Energies (a.u.)
 --------------------------------------------------------------
 
 Alpha MOs
 -- Occupied --
-18.972 -18.919 -18.911 -18.905 -18.897 -18.897 -18.883 -18.873
-18.869 -18.816 -10.189 -10.159 -10.141 -10.137 -10.096 -10.078
-10.068 -10.066 -10.063 -10.052 -10.050 -10.047 -10.046 -10.038
-10.028 -10.024 -10.021 -10.007 -10.004  -9.978  -1.149  -1.072
 -1.018  -1.009  -1.002  -0.995  -0.993  -0.966  -0.925  -0.903
 -0.837  -0.792  -0.752  -0.748  -0.728  -0.721  -0.708  -0.681
 -0.674  -0.656  -0.648  -0.613  -0.607  -0.576  -0.549  -0.544
 -0.536  -0.532  -0.525  -0.511  -0.493  -0.479  -0.475  -0.472
 -0.462  -0.449  -0.443  -0.434  -0.432  -0.427  -0.421  -0.411
 -0.401  -0.399  -0.395  -0.382  -0.376  -0.370  -0.364  -0.357
 -0.348  -0.340  -0.333  -0.328  -0.322  -0.317  -0.316  -0.312
 -0.309  -0.301  -0.298  -0.290  -0.287  -0.280  -0.276  -0.263
 -0.248  -0.243  -0.226  -0.223  -0.216  -0.207  -0.194  -0.183
 -0.177  -0.161  -0.157  -0.149  -0.142  -0.133  -0.127  -0.120
 -0.095
 -- Virtual --
  0.008   0.070   0.078   0.112   0.138   0.215   0.242   0.248
  0.273   0.279   0.290   0.293   0.300   0.312   0.326   0.333
  0.339   0.340   0.348   0.350   0.360   0.365   0.371   0.381
  0.387   0.391   0.400   0.402   0.407   0.410   0.417   0.420
  0.423   0.425   0.430   0.433   0.437   0.445   0.446   0.451
  0.454   0.457   0.461   0.467   0.475   0.477   0.479   0.487
  0.494   0.501   0.507   0.519   0.524   0.550   0.554   0.557
  0.566   0.580   0.596   0.630   0.653   0.657   0.692
 --------------------------------------------------------------
 
          Ground-State Mulliken Net Atomic Charges

     Atom                 Charge (a.u.)
  ----------------------------------------
      1 O                    -0.202718
      2 C                     0.202027
      3 C                    -0.078009
      4 C                    -0.102663
      5 C                     0.225636
      6 O                    -0.185631
      7 C                    -0.073384
      8 C                     0.052269
      9 O                    -0.228203
     10 C                     0.223717
     11 C                    -0.005558
     12 C                    -0.097457
     13 C                     0.207030
     14 O                    -0.249249
     15 O                    -0.206503
     16 O                    -0.197015
     17 O                    -0.211523
     18 C                    -0.103618
     19 C                     0.032310
     20 C                    -0.147662
     21 C                    -0.144805
     22 C                     0.031712
     23 O                    -0.204983
     24 H                     0.058868
     25 H                     0.058309
     26 H                     0.063763
     27 H                     0.068732
     28 H                     0.076506
     29 H                     0.072131
     30 H                     0.071567
     31 H                     0.079341
     32 O                    -0.190889
     33 C                    -0.127925
     34 C                     0.036627
     35 C                    -0.146164
     36 C                    -0.144029
     37 C                     0.034968
     38 O                    -0.208161
     39 H                     0.076014
     40 H                     0.079990
     41 H                     0.077946
     42 H                     0.090740
     43 H                     0.076853
     44 H                     0.073592
     45 H                     0.077472
     46 H                     0.072079
     47 H                     0.088265
     48 H                     0.089076
     49 H                     0.089804
     50 H                     0.089232
     51 H                     0.078676
     52 H                     0.081877
     53 H                     0.075890
     54 H                     0.043956
     55 H                     0.158718
     56 H                     0.240457
  ----------------------------------------
  Sum of atomic charges =     0.000000

 -----------------------------------------------------------------
                    Cartesian Multipole Moments
 -----------------------------------------------------------------
    Charge (ESU x 10^10)
                -0.0000
    Dipole Moment (Debye)
         X      -4.6877      Y      -0.3973      Z      -1.1744
       Tot       4.8489
    Quadrupole Moments (Debye-Ang)
        XX    -190.2125     XY      -2.2967     YY    -159.3987
        XZ       2.2418     YZ       1.8463     ZZ    -156.6499
    Octopole Moments (Debye-Ang^2)
       XXX     -35.0045    XXY      18.6666    XYY      14.0565
       YYY     -16.4224    XXZ     -29.7890    XYZ      18.7698
       YYZ      -4.9393    XZZ      -4.8975    YZZ     -20.8652
       ZZZ       2.5069
    Hexadecapole Moments (Debye-Ang^3)
      XXXX   -9890.5507   XXXY    -209.5979   XXYY   -1979.8004
      XYYY      -0.4064   YYYY   -2665.6719   XXXZ    -257.1000
      XXYZ      -4.5083   XYYZ      -9.9003   YYYZ      47.2496
      XXZZ   -1678.1104   XYZZ      12.1379   YYZZ    -666.3742
      XZZZ     -56.4531   YZZZ      17.9820   ZZZZ   -1278.3929
 -----------------------------------------------------------------
 Calculating analytic gradient of the SCF energy
 Gradient of SCF Energy
            1           2           3           4           5           6
    1  -0.0039861   0.1945048   0.0074416  -0.0012753  -0.0071024   0.0237704
    2  -0.0634838  -0.2537617  -0.0670979   0.0094992  -0.0309935   0.0576029
    3  -0.0055471   0.0020753   0.0303734   0.0341922   0.0106125  -0.0201926
            7           8           9          10          11          12
    1   0.1405338  -0.1766024  -0.0356096   0.0036070  -0.1458880  -0.0728401
    2   0.2144149   0.1795884   0.1119593  -0.0223349  -0.0911584   0.0253459
    3   0.1749836  -0.2068644  -0.0149204  -0.0013198  -0.0640720  -0.0171306
           13          14          15          16          17          18
    1  -0.0389565  -0.0338378  -0.0197184   0.0854346  -0.0143456  -0.0371403
    2  -0.0143642   0.0066045  -0.0295156  -0.0099412   0.0145270   0.0155107
    3   0.0105622  -0.0314308  -0.0124713   0.0223095   0.0261156   0.0038744
           19          20          21          22          23          24
    1   0.0510804   0.0249703  -0.0047879  -0.0437980  -0.0066100   0.0322773
    2   0.0285442  -0.0104869  -0.0196158  -0.0182041  -0.0004321   0.0176666
    3   0.0041890  -0.0013641  -0.0187357  -0.0356771   0.0584750   0.0376033
           25          26          27          28          29          30
    1   0.0165651   0.0071820   0.0052246   0.0045688  -0.0048137   0.0042203
    2   0.0024269   0.0020407   0.0041150   0.0005455   0.0048295  -0.0036155
    3   0.0056015   0.0036831  -0.0071301   0.0040228  -0.0069912   0.0047661
           31          32          33          34          35          36
    1   0.0020056   0.0227024   0.0200407  -0.0464829  -0.0113811   0.0158002
    2   0.0014095   0.0140530   0.0266106  -0.0165777  -0.0252649  -0.0111802
    3   0.0087968  -0.0010553  -0.0152330  -0.0133285   0.0059491   0.0236628
           37          38          39          40          41          42
    1   0.0352723   0.0245846  -0.0079226  -0.0032677   0.0002741   0.0008540
    2   0.0145827   0.0001716   0.0075645  -0.0056405  -0.0002882   0.0093054
    3   0.0329031  -0.0498864   0.0056193  -0.0029088  -0.0023187  -0.0084417
           43          44          45          46          47          48
    1  -0.0075331   0.0037882  -0.0014293   0.0002838  -0.0019984   0.0032447
    2   0.0026104   0.0023731   0.0065025  -0.0023513   0.0025667   0.0017025
    3   0.0033761  -0.0024087   0.0058378  -0.0044545  -0.0106448   0.0019994
           49          50          51          52          53          54
    1   0.0030142   0.0025829  -0.0047716  -0.0038546  -0.0117673   0.0224583
    2   0.0000712  -0.0021628   0.0003677   0.0030651  -0.0646552   0.0208107
    3   0.0014924  -0.0016903   0.0028572   0.0011894   0.0141650   0.0474138
           55          56
    1   0.0172530  -0.0278192
    2  -0.0831642   0.0373024
    3   0.0205627  -0.0530459
 Max gradient component =       2.538E-01
 RMS gradient           =       5.119E-02
 Gradient time:  CPU 36.91 s  wall 0.78 s
 Geometry Optimization Parameters
   NAtoms,    NIC,     NZ,  NCons,   NDum,   NFix, NCnnct, MaxDiis
       56     656       0       9       0       0       0       0

 Cartesian Hessian Update
 Hessian Updated using BFGS Update


** CONSTRAINED OPTIMIZATION IN DELOCALIZED INTERNAL COORDINATES **
   Searching for a Minimum

   Optimization Cycle:   3

                       Coordinates (Angstroms)
     ATOM                X               Y               Z
      1  O         0.2050495077   -0.6201949355    0.5916219800
      2  C        -1.0703197652   -0.5517032435    0.4818308779
      3  C        -1.8581379288    0.3906990201   -0.4769906912
      4  C        -3.1492976884   -0.2152002093   -1.1247076696
      5  C        -3.6061311177   -1.6065912382   -0.6239561504
      6  O        -2.6270782107   -2.1680179238    0.1853157233
      7  C        -1.2852432149   -1.7249026851   -0.1387765501
      8  C        -0.2940415200   -2.0162212176    1.0983149586
      9  O         1.0287678738   -2.4579085299    0.6286805441
     10  C         1.7618053303   -1.4755844262   -0.0839015529
     11  C         1.7965106900   -0.0749702684    0.6024749411
     12  C         3.2580161915    0.4825960672    0.8922529975
     13  C         4.4252637488   -0.1997551645    0.1610468733
     14  O         5.6168619565   -0.1328379266    0.5012337249
     15  O        -1.5899213086   -0.0483832508    1.7686588770
     16  O         4.1703770880   -0.5953345614   -1.1362670681
     17  O         1.9633561838   -1.6634148207   -1.2905730403
     18  C         5.1458758353   -1.2647260767   -1.8973007998
     19  C         1.4965389402    1.2049243418   -0.3942954561
     20  C         0.9437285173    2.3433404117    0.4956760584
     21  C         2.2438030572    2.8157594830    1.1634606635
     22  C         3.2699551763    1.9426705098    0.4055380431
     23  O         2.7106487594    1.7735807504   -0.8763106390
     24  H         1.6540286136    0.0858932881    1.7536467832
     25  H         3.6250453503    0.4392860512    1.9504106815
     26  H         0.8856362540    0.9299248361   -1.2645717663
     27  H         0.5570229374    3.1457550016   -0.1645803951
     28  H         0.1941745302    2.0295991325    1.2358722795
     29  H         2.3940764151    3.8892723479    0.9340806151
     30  H         2.3060723060    2.6423183032    2.2556599817
     31  H         4.2881192295    2.3887812618    0.4243351304
     32  O        -4.6805462563   -2.1606959553   -0.8626992253
     33  C        -2.5315386702   -0.6609428696    2.6262191388
     34  C        -2.5331055313    1.6906521376    0.1398279943
     35  C        -2.8019870592    2.7372029870   -0.9713792185
     36  C        -4.0153859452    2.1086898921   -1.6667659540
     37  C        -4.2240660269    0.8533447075   -0.7840920785
     38  O        -3.8494205435    1.2820593492    0.5203550205
     39  H        -1.2090506675    0.7658671919   -1.2787139382
     40  H        -3.0565261315   -0.3315268320   -2.2257025550
     41  H        -2.0836915141   -0.7594332512    3.6384776851
     42  H        -1.9754331578    2.1819104085    0.9548861527
     43  H        -3.1275188631    3.6777126412   -0.4821390997
     44  H        -1.9325103815    2.9508674906   -1.6224318258
     45  H        -4.8840569065    2.7879096726   -1.5540765470
     46  H        -3.8735329958    1.8613434373   -2.7366092827
     47  H        -5.2612385930    0.4688357982   -0.8845017275
     48  H        -2.8395017716   -1.6730027114    2.3045808278
     49  H        -3.4346694415   -0.0211345099    2.7103692489
     50  H         4.7113000422   -1.5032796884   -2.8888278902
     51  H         5.4424449465   -2.2179297260   -1.4052311550
     52  H         6.0503428722   -0.6341360631   -2.0419482133
     53  H        -0.2719380899   -1.9403846065    2.2623851271
     54  H        -0.6968598334   -3.0372394895    1.4109136623
     55  H        -1.0107713107   -1.8592020409   -1.3023848952
     56  H        -0.9729862616   -2.7240224700   -0.6392223561
   Point Group: c1    Number of degrees of freedom:   162


   Energy is  -1509.423440252

              Constraints and their Current Values
                                        Value     Constraint
   Dihedral:        1   2   3   4      142.576      142.105
   Dihedral:        3   4   5   6       -9.801       -9.474
   Dihedral:        4   5   6   7      -28.421      -28.421
   Dihedral:        5   6   7   8      161.554      161.053
   Dihedral:        6   7   8   9      141.732      142.105
   Dihedral:        7   8   9  10       66.033       66.316
   Dihedral:        8   9  10  11       47.257       47.368
   Dihedral:        9  10  11  12      123.303      123.158
   Dihedral:       11  12  13  14     -161.084     -161.053
 Hessian Updated using BFGS Update

   Using Lagrange Multiplier Algorithm


164 Hessian modes will be used to form the next step
  Hessian Eigenvalues:
    -0.977754   -0.977398   -0.953417   -0.953216   -0.953216   -0.952600
    -0.906317    0.095818    0.095864    0.095869    0.095875    0.097470
     0.098931    0.099571    0.102990    0.103444    0.105648    0.108016
     0.112849    0.117643    0.119625    0.122372    0.124744    0.126640
     0.128795    0.129019    0.132079    0.136080    0.139511    0.142249
     0.142344    0.144198    0.145027    0.150139    0.150829    0.151185
     0.155557    0.158831    0.163714    0.166460    0.168771    0.172556
     0.174119    0.174836    0.175905    0.177262    0.178157    0.180453
     0.181213    0.183696    0.185228    0.185609    0.186374    0.187870
     0.188150    0.188748    0.189696    0.189851    0.190838    0.191864
     0.197806    0.199811    0.202016    0.203901    0.206938    0.207779
     0.222698    0.225078    0.233362    0.236373    0.237419    0.237901
     0.238319    0.243850    0.247029    0.247434    0.252351    0.255207
     0.259167    0.270083    0.282511    0.288017    0.291255    0.327799
     0.340774    0.340851    0.341392    0.343069    0.351471    0.364195
     0.367974    0.379323    0.410992    0.431809    0.470305    0.486420
     0.509429    0.520821    0.526519    0.532430    0.532484    0.532601
     0.533292    0.543736    0.554944    0.566479    0.567035    0.568161
     0.584102    0.594366    0.596482    0.602676    0.613899    0.624114
     0.630529    0.637161    0.641832    0.651953    0.654251    0.656142
     0.663603    0.685873    0.686007    0.686606    0.687323    0.687531
     0.688901    0.689362    0.689386    0.689578    0.691777    0.692314
     0.693558    0.695884    0.696546    0.699393    0.711133    0.713304
     0.720278    0.733981    0.735382    0.737182    0.761696    0.799508
     0.801420    0.811149    0.831912    0.857300    0.924227    1.008600
     1.022753    1.023219    1.027659    1.037623    1.048934    1.049080
     1.049080    1.049080    1.050129    1.133084    1.178107    2.001334
     2.009365    2.023442
**WARNING** Hessian does not have the Desired Local Structure

 Minimum Search - Taking P-RFO Step
 Searching for Lamda that Maximizes Along the Constraint modes Only
 Value Taken    Lamda =  -0.00078009


 ********************************************
 ** ERROR IN DETERMINING Lamda IN CONFormD **
 ********************************************



 New Cartesian Coordinates Obtained by Inverse Iteration

 Displacement from previous Coordinates is:  0.000000
 Adding empirical dispersion correction 
 ----------------------------------------------------------------
 Doing -D3(op) with
 s6 =   1.00000
 s8 =   0.78311
[...]
 --------------------------------------------------------------
 
          Ground-State Mulliken Net Atomic Charges

     Atom                 Charge (a.u.)
  ----------------------------------------
      1 O                    -0.203577
      2 C                     0.172090
      3 C                    -0.075239
      4 C                    -0.091039
      5 C                     0.212314
      6 O                    -0.161979
      7 C                    -0.062883
      8 C                     0.038875
      9 O                    -0.186238
     10 C                     0.225640
     11 C                    -0.099884
     12 C                    -0.081432
     13 C                     0.207124
     14 O                    -0.216111
     15 O                    -0.182050
     16 O                    -0.166148
     17 O                    -0.180324
     18 C                    -0.124526
     19 C                     0.021670
     20 C                    -0.147004
     21 C                    -0.140351
     22 C                     0.026626
     23 O                    -0.183777
     24 H                     0.109743
     25 H                     0.084973
     26 H                     0.075392
     27 H                     0.075081
     28 H                     0.072464
     29 H                     0.078852
     30 H                     0.075593
     31 H                     0.086043
     32 O                    -0.195497
     33 C                    -0.136975
     34 C                     0.024422
     35 C                    -0.145675
     36 C                    -0.144802
     37 C                     0.024969
     38 O                    -0.188061
     39 H                     0.077817
     40 H                     0.081316
     41 H                     0.092237
     42 H                     0.093083
     43 H                     0.078619
     44 H                     0.072570
     45 H                     0.079724
     46 H                     0.072788
     47 H                     0.090444
     48 H                     0.083946
     49 H                     0.076521
     50 H                     0.095088
     51 H                     0.089561
     52 H                     0.091017
     53 H                     0.084230
     54 H                     0.071731
     55 H                     0.080371
     56 H                     0.090639
  ----------------------------------------
  Sum of atomic charges =    -0.000000

 -----------------------------------------------------------------
                    Cartesian Multipole Moments
 -----------------------------------------------------------------
    Charge (ESU x 10^10)
                -0.0000
    Dipole Moment (Debye)
         X       0.3908      Y       0.4737      Z       0.0187
       Tot       0.6144
    Quadrupole Moments (Debye-Ang)
        XX    -191.8223     XY      -5.8916     YY    -152.9473
        XZ       9.7723     YZ      -7.5629     ZZ    -165.2679
    Octopole Moments (Debye-Ang^2)
       XXX     200.2120    XXY       2.4237    XYY      16.5936
       YYY     -52.7090    XXZ       6.6306    XYZ     -11.5026
       YYZ      11.3356    XZZ      -5.9725    YZZ     -30.8540
       ZZZ      27.5728
    Hexadecapole Moments (Debye-Ang^3)
      XXXX  -11108.7078   XXXY    -512.5485   XXYY   -2268.7690
      XYYY     -39.1812   YYYY   -3181.9360   XXXZ     104.1687
      XXYZ     -60.6740   XYYZ      46.8039   YYYZ     282.4182
      XXZZ   -2134.4970   XYZZ     -11.0272   YYZZ    -778.2623
      XZZZ     191.0792   YZZZ     283.3317   ZZZZ   -1511.5724
 -----------------------------------------------------------------
 Calculating analytic gradient of the SCF energy
 Gradient of SCF Energy
            1           2           3           4           5           6
    1  -0.0008995   0.0004686  -0.0005214   0.0003606   0.0003462  -0.0046255
    2   0.0049759  -0.0022309   0.0029274  -0.0034727  -0.0062458  -0.0002524
    3   0.0008055  -0.0003635   0.0013832   0.0000514  -0.0037766  -0.0009616
            7           8           9          10          11          12
    1   0.0041188   0.0035771  -0.0054599   0.0107073  -0.0043045  -0.0005115
    2   0.0129221  -0.0092251   0.0038942  -0.0037851  -0.0009358   0.0008671
    3   0.0082407  -0.0043384  -0.0076984   0.0070811   0.0028680  -0.0008155
           13          14          15          16          17          18
    1   0.0006717  -0.0011549   0.0023525   0.0009506  -0.0021591  -0.0007673
    2   0.0002650  -0.0008476  -0.0036975   0.0000342   0.0030833   0.0001679
    3  -0.0037599   0.0022925   0.0026739  -0.0003175   0.0004814  -0.0007994
           19          20          21          22          23          24
    1  -0.0008470   0.0005026  -0.0002755   0.0012782   0.0007480   0.0011685
    2  -0.0015129   0.0009910   0.0001731  -0.0004874   0.0008303  -0.0028473
    3   0.0004261  -0.0000267   0.0004357  -0.0017124  -0.0001916   0.0014241
           25          26          27          28          29          30
    1  -0.0007696  -0.0008266  -0.0003257   0.0002074   0.0001365  -0.0002144
    2   0.0007123   0.0003349   0.0003205  -0.0005939  -0.0003736   0.0010013
    3  -0.0002626   0.0000231   0.0002539   0.0003175  -0.0007831   0.0001470
           31          32          33          34          35          36
    1   0.0007141  -0.0008569   0.0022917   0.0006698  -0.0007187   0.0007667
    2  -0.0007265   0.0002941  -0.0029867  -0.0003494   0.0004378  -0.0002487
    3  -0.0002794  -0.0007124  -0.0028559   0.0005160   0.0000823  -0.0003433
           37          38          39          40          41          42
    1  -0.0001684  -0.0002113   0.0002241   0.0002842  -0.0002756  -0.0004976
    2   0.0007727   0.0000081  -0.0008308   0.0009167  -0.0002276  -0.0000045
    3   0.0003347  -0.0004891   0.0002660  -0.0004443  -0.0008323   0.0001169
           43          44          45          46          47          48
    1   0.0003021  -0.0004438  -0.0003671   0.0000769   0.0002661  -0.0063425
    2   0.0002006  -0.0003399  -0.0001022   0.0001764  -0.0000406   0.0016551
    3  -0.0001360  -0.0000150   0.0002274   0.0001071  -0.0000908   0.0004218
           49          50          51          52          53          54
    1   0.0024591   0.0000770  -0.0000931   0.0004567  -0.0004156  -0.0023545
    2   0.0045948  -0.0004150  -0.0000617   0.0002193   0.0012821  -0.0018753
    3   0.0012513  -0.0000763   0.0005314  -0.0002383   0.0026225  -0.0012450
           55          56
    1  -0.0000740   0.0002984
    2   0.0006319   0.0000266
    3   0.0000774  -0.0018943
 Max gradient component =       1.292E-02
 RMS gradient           =       2.478E-03
 Gradient time:  CPU 31.90 s  wall 0.67 s
 Geometry Optimization Parameters
   NAtoms,    NIC,     NZ,  NCons,   NDum,   NFix, NCnnct, MaxDiis
       56     656       0       9       0       0       0       0

 Cartesian Hessian Update
 Hessian Updated using BFGS Update
**WARNING** Hereditary positive definiteness endangered
**WARNING** Small Scalar Product
 Hessian Update Skipped this cycle


** CONSTRAINED OPTIMIZATION IN CARTESIAN COORDINATES **
   Searching for a Minimum

   Optimization Cycle: 100

                       Coordinates (Angstroms)
     ATOM                X               Y               Z
      1  O        -0.2787522695   -1.0997195266    0.5700333639
      2  C        -1.7713400661   -1.0107540801    0.7087628677
      3  C        -2.2657283102    0.3372088953    0.0160153550
      4  C        -3.6459566571    0.2259318118   -0.7685833683
      5  C        -4.5529710191   -1.0606359321   -0.5735593250
      6  O        -3.9988379507   -2.1708955483    0.1458639180
      7  C        -2.5292604008   -2.1930455684   -0.0085384238
      8  C         0.1993865335   -2.2889079981   -0.2178776227
      9  O         1.6512165981   -2.3397934197   -0.3172105758
     10  C         2.3296135301   -1.1963134391   -0.9284998316
     11  C         1.8830362382    0.2308258628   -0.4168361101
     12  C         3.0571198109    1.1140078880    0.1618531347
     13  C         4.2806472286    0.4001873225    0.8323241365
     14  O         5.0958223563    0.9445417704    1.6111866411
     15  O        -2.0934283931   -0.8886263562    2.1329205216
     16  O         4.3215001009   -0.9874365343    0.5024295186
     17  O         3.1531099439   -1.4199694509   -1.8348499302
     18  C         5.4681859969   -1.6504744121    1.1591809458
     19  C         1.5420786755    1.0865478524   -1.7085246914
     20  C         1.0743676377    2.5420872093   -1.2815321732
     21  C         2.4534452069    3.2675912495   -1.0629825495
     22  C         3.4216572934    2.0248221608   -1.1111953097
     23  O         2.8967064975    1.2885518384   -2.2826320128
     24  H         1.0339078464    0.0741216704    0.2794411710
     25  H         2.6435929970    1.7775769417    0.9441866655
     26  H         0.8791636628    0.5818970152   -2.4385903348
     27  H         0.4725777220    3.0204314580   -2.0703368684
     28  H         0.4797098300    2.5051206951   -0.3547422225
     29  H         2.6800731897    3.9457054484   -1.9024832520
     30  H         2.5030759968    3.8340605963   -0.1183949047
     31  H         4.4998854947    2.2442937892   -1.2401757656
     32  O        -5.7534873789   -1.1058981817   -0.9164395959
     33  C        -1.6130367011   -2.0682115989    2.8674671860
     34  C        -2.5802541103    1.5236416919    1.0229575934
     35  C        -2.4983892815    2.8835025665    0.2231843741
     36  C        -3.8081028409    2.8064774494   -0.6412556321
     37  C        -4.4347405883    1.4516731810   -0.1293672380
     38  O        -4.0310744137    1.3842116840    1.2934570155
     39  H        -1.4662467092    0.6220249675   -0.6911811127
     40  H        -3.4914910867    0.3764805428   -1.8535901758
     41  H        -1.8195261340   -1.8612106477    3.9325159000
     42  H        -2.0058239696    1.4808187774    1.9672138235
     43  H        -2.5166857388    3.7392365196    0.9165481670
     44  H        -1.5920618430    2.9509606233   -0.3959733959
     45  H        -4.4888349359    3.6457242539   -0.4263629075
     46  H        -3.6020631479    2.7866051141   -1.7232275638
     47  H        -5.5339819248    1.3662516898   -0.2326945326
     48  H        -0.5299932880   -2.2157108573    2.7317343106
     49  H        -2.1438884970   -2.9926082556    2.5843096500
     50  H         5.4089551533   -2.7153517825    0.8659419310
     51  H         5.4125182315   -1.5628505034    2.2643918892
     52  H         6.4340875051   -1.2238269630    0.8175028689
     53  H        -0.0667262261   -3.2304127472    0.3246317207
     54  H        -0.2735962611   -2.3109831347   -1.2381992070
     55  H        -2.2735722436   -2.1566155019   -1.0881137647
     56  H        -2.2172732435   -3.1807482684    0.3770645791
   Point Group: c1    Number of degrees of freedom:   162


   Energy is  -1510.249501843

              Constraints and their Current Values
                                        Value     Constraint
   Dihedral:        1   2   3   4      142.088      142.105
   Dihedral:        3   4   5   6       -9.413       -9.474
   Dihedral:        4   5   6   7      -28.344      -28.421
   Dihedral:        5   6   7   8      160.527      161.053
   Dihedral:        6   7   8   9      -35.868      142.105
   Dihedral:        7   8   9  10     -115.324       66.316
   Dihedral:        8   9  10  11       47.385       47.368
   Dihedral:        9  10  11  12      123.125      123.158
   Dihedral:       11  12  13  14     -161.107     -161.053

   Using Penalty Function Algorithm


 Translations and Rotations Projected Out of Hessian

162 Hessian modes will be used to form the next step
  Hessian Eigenvalues:
 ************************ -714.080658 -294.538201   -3.791565    0.002931
     0.006088    0.006773    0.010503    0.019612    0.027636    0.036286
     0.040618    0.048205    0.057376    0.074462    0.080646    0.097025
     0.103063    0.132342    0.150781    0.204423    0.213694    0.253545
     0.282317    0.314923    0.376722    0.396983    0.474250    0.542860
     0.584314    0.620426    0.692872    0.758287    0.775535    0.789315
     0.853191    0.863055    0.878247    0.894952    0.899305    0.928721
     0.932064    0.940578    0.955627    0.959554    0.966784    0.972919
     0.977054    0.984057    0.986882    0.987285    0.988133    0.990800
     0.992187    0.992776    0.994135    0.995332    0.996341    0.997287
     0.997859    0.998357    0.998657    0.998938    0.998989    0.999010
     0.999222    0.999282    0.999499    0.999529    0.999664    0.999705
     0.999754    0.999797    0.999819    0.999842    0.999901    0.999916
     0.999932    0.999947    0.999952    0.999959    0.999969    0.999983
     0.999985    0.999985    0.999986    0.999990    0.999996    0.999997
     0.999998    1.000000    1.000000    1.000001    1.000002    1.000003
     1.000003    1.000005    1.000009    1.000013    1.000016    1.000021
     1.000026    1.000031    1.000051    1.000057    1.000076    1.000087
     1.000112    1.000163    1.000176    1.000195    1.000221    1.000313
     1.000389    1.000524    1.000702    1.001031    1.001099    1.001398
     1.001755    1.002466    1.003117    1.004158    1.004577    1.006535
     1.009042    1.011861    1.014164    1.015733    1.021228    1.024931
     1.033541    1.043521    1.057521    1.074231    1.085042    1.098821
     1.133563    1.196858    1.220665    1.280070    1.353233    1.460487
     1.604884    1.814265    2.090193    2.333007    2.476292    2.982725
     3.829943    4.016856    5.287309    8.210076   15.933835   42.378634
  2399.901538 2918.050059 4274.53622441621.35623295207.732686************
**WARNING** Magnitude of eigenvalue   1 too large.  Replaced by   -25.000000
**WARNING** Magnitude of eigenvalue   2 too large.  Replaced by   -25.000000
**WARNING** Magnitude of eigenvalue   3 too large.  Replaced by   -25.000000
**WARNING** Magnitude of eigenvalue   4 too large.  Replaced by   -25.000000
**WARNING** Magnitude of eigenvalue 162 too large.  Replaced by    25.000000
**WARNING** Magnitude of eigenvalue 161 too large.  Replaced by    25.000000
**WARNING** Magnitude of eigenvalue 160 too large.  Replaced by    25.000000
**WARNING** Magnitude of eigenvalue 159 too large.  Replaced by    25.000000
**WARNING** Magnitude of eigenvalue 158 too large.  Replaced by    25.000000
**WARNING** Magnitude of eigenvalue 157 too large.  Replaced by    25.000000
**WARNING** Magnitude of eigenvalue 156 too large.  Replaced by    25.000000
**WARNING** Hessian does not have the Desired Local Structure

 Minimum Search - Taking Simple RFO Step
 Searching for Lamda that Minimizes Along All modes


 ****************************************
 ** UNABLE TO DETERMINE Lamda IN FormD **
 ****************************************


 Step Taken.  Stepsize is  0.000000

                             Maximum     Tolerance    Cnvgd?
         Gradient           ********      0.000300      NO
         Displacement       0.000000      0.001200     YES
         Energy change      0.000000      0.000001     YES

 Adding empirical dispersion correction 
 ----------------------------------------------------------------
 Doing -D3(op) with
 s6 =   1.00000
 s8 =   0.78311
 a1 =   0.30000
 a2 =   4.25000
 n  =  10.00000
 -D3 energy without 3body term =     -0.0736921553 hartrees
 ----------------------------------------------------------------
             Standard Nuclear Orientation (Angstroms)
    I     Atom           X                Y                Z
 ----------------------------------------------------------------
    1      O      -0.2787522695    -1.0997195266     0.5700333639
    2      C      -1.7713400661    -1.0107540801     0.7087628677
    3      C      -2.2657283102     0.3372088953     0.0160153550
    4      C      -3.6459566571     0.2259318118    -0.7685833683
    5      C      -4.5529710191    -1.0606359321    -0.5735593250
    6      O      -3.9988379507    -2.1708955483     0.1458639180
    7      C      -2.5292604008    -2.1930455684    -0.0085384238
    8      C       0.1993865335    -2.2889079981    -0.2178776227
    9      O       1.6512165981    -2.3397934197    -0.3172105758
   10      C       2.3296135301    -1.1963134391    -0.9284998316
   11      C       1.8830362382     0.2308258628    -0.4168361101
   12      C       3.0571198109     1.1140078880     0.1618531347
   13      C       4.2806472286     0.4001873225     0.8323241365
   14      O       5.0958223563     0.9445417704     1.6111866411
   15      O      -2.0934283931    -0.8886263562     2.1329205216
   16      O       4.3215001009    -0.9874365343     0.5024295186
   17      O       3.1531099439    -1.4199694509    -1.8348499302
   18      C       5.4681859969    -1.6504744121     1.1591809458
   19      C       1.5420786755     1.0865478524    -1.7085246914
   20      C       1.0743676377     2.5420872093    -1.2815321732
   21      C       2.4534452069     3.2675912495    -1.0629825495
   22      C       3.4216572934     2.0248221608    -1.1111953097
   23      O       2.8967064975     1.2885518384    -2.2826320128
   24      H       1.0339078464     0.0741216704     0.2794411710
   25      H       2.6435929970     1.7775769417     0.9441866655
   26      H       0.8791636628     0.5818970152    -2.4385903348
   27      H       0.4725777220     3.0204314580    -2.0703368684
   28      H       0.4797098300     2.5051206951    -0.3547422225
   29      H       2.6800731897     3.9457054484    -1.9024832520
   30      H       2.5030759968     3.8340605963    -0.1183949047
   31      H       4.4998854947     2.2442937892    -1.2401757656
   32      O      -5.7534873789    -1.1058981817    -0.9164395959
   33      C      -1.6130367011    -2.0682115989     2.8674671860
   34      C      -2.5802541103     1.5236416919     1.0229575934
   35      C      -2.4983892815     2.8835025665     0.2231843741
   36      C      -3.8081028409     2.8064774494    -0.6412556321
   37      C      -4.4347405883     1.4516731810    -0.1293672380
   38      O      -4.0310744137     1.3842116840     1.2934570155
   39      H      -1.4662467092     0.6220249675    -0.6911811127
   40      H      -3.4914910867     0.3764805428    -1.8535901758
   41      H      -1.8195261340    -1.8612106477     3.9325159000
   42      H      -2.0058239696     1.4808187774     1.9672138235
   43      H      -2.5166857388     3.7392365196     0.9165481670
   44      H      -1.5920618430     2.9509606233    -0.3959733959
   45      H      -4.4888349359     3.6457242539    -0.4263629075
   46      H      -3.6020631479     2.7866051141    -1.7232275638
   47      H      -5.5339819248     1.3662516898    -0.2326945326
   48      H      -0.5299932880    -2.2157108573     2.7317343106
   49      H      -2.1438884970    -2.9926082556     2.5843096500
   50      H       5.4089551533    -2.7153517825     0.8659419310
   51      H       5.4125182315    -1.5628505034     2.2643918892
   52      H       6.4340875051    -1.2238269630     0.8175028689
   53      H      -0.0667262261    -3.2304127472     0.3246317207
   54      H      -0.2735962611    -2.3109831347    -1.2381992070
   55      H      -2.2735722436    -2.1566155019    -1.0881137647
   56      H      -2.2172732435    -3.1807482684     0.3770645791
 ----------------------------------------------------------------
 Molecular Point Group                 C1    NOp =  1
 Largest Abelian Subgroup              C1    NOp =  1
 Nuclear Repulsion Energy =  3275.6949074242 hartrees
 There are      113 alpha and      113 beta electrons


 *******************************************
 **  MAXIMUM OPTIMIZATION CYCLES REACHED  **
 *******************************************

 Q-Chem fatal error occurred in module 0, line  456, PE  0:

 Maximum optimization cycles reached

