mFile = /opt/software/qchem/qchem-5.0.1//bin/mpi/machines
Process 0 of 1 is on vega02.cac.cornell.edu - thread support 0
initial socket setup ...start
initial socket setup ...done 
now start server 0 ... 
vega02.cac.cornell.edu 10.84.3
Q-Chem Developer Version! Running on 10.84.3.*
                  Welcome to Q-Chem
     A Quantum Leap Into The Future Of Chemistry


 Q-Chem 5.0, Q-Chem, Inc., Pleasanton, CA (2017)

 Yihan Shao,  Zhengting Gan,  E. Epifanovsky,  A. T. B. Gilbert,  M. Wormit,  
 J. Kussmann,  A. W. Lange,  A. Behn,  Jia Deng,  Xintian Feng,  D. Ghosh,  
 M. Goldey,  P. R. Horn,  L. D. Jacobson,  I. Kaliman,  T. Kus,  A. Landau,  
 Jie Liu,  E. I. Proynov,  R. M. Richard,  R. P. Steele,  E. J. Sundstrom,  
 H. L. Woodcock III,  P. M. Zimmerman,  D. Zuev,  B. Albrecht,  E. Alguire,  
 S. A. Baeppler,  Z. Benda,  Y. A. Bernard,  E. J. Berquist,  K. B. Bravaya,  
 D. Casanova,  Chun-Min Chang,  Yunqing Chen,  A. Chien,  K. D. Closser,  
 M. P. Coons,  S. Dasgupta,  M. Diedenhofen,  Hainam Do,  R. G. Edgar,  
 Po-Tung Fang,  S. Fatehi,  Qingguo Feng,  Qinghui Ge,  A. Ghysels,  
 J. Gomes,  J. Gonthier,  A. Gunina,  M. W. D. Hanson-Heine,  
 P. H. P. Harbach,  A. W. Hauser,  J. E. Herr,  E. G. Hohenstein,  
 Z. C. Holden,  Kerwin Hui,  T.-C. Jagau,  Hyunjun Ji,  B. Kaduk,  
 K. Khistyaev,  Jaehoon Kim,  P. Klunzinger,  K. Koh,  D. Kosenkov,  
 T. Kowalczyk,  C. M. Krauter,  A. Kunitsa,  Ka Un Lao,  A. Laurent,  
 K. V. Lawler,  Joonho Lee,  D. Lefrancois,  S. Lehtola,  D. S. Levine,  
 Yi-Pei Li,  You-Sheng Lin,  Fenglai Liu,  E. Livshits,  A. Luenser,  
 P. Manohar,  E. Mansoor,  S. F. Manzer,  Shan-Ping Mao,  Yuezhi Mao,  
 N. Mardirossian,  A. V. Marenich,  L. A. Martinez-Martinez,  S. A. Maurer,  
 N. J. Mayhall,  S. C. McKenzie,  J.-M. Mewes,  A. F. Morrison,  K. Nanda,  
 T. S. Nguyen-Beck,  R. Olivares-Amaya,  J. A. Parkhill,  T. M. Perrine,  
 F. Plasser,  S. Prager,  A. Prociuk,  D. R. Rehn,  F. Rob,  M. Schneider,  
 N. Sergueev,  S. M. Sharada,  S. Sharma,  D. W. Small,  T. Stauch,  
 T. Stein,  Yu-Chuan Su,  A. J. W. Thom,  T. Tsuchimochi,  L. Vogt,  
 O. Vydrov,  M. A. Watson,  J. Wenzel,  M. de Wergifosse,  T. A. Wesolowski,  
 A. White,  J. Witte,  A. Yamada,  Jun Yang,  K. Yao,  S. Yeganeh,  
 S. R. Yost,  Zhi-Qiang You,  A. Zech,  Igor Ying Zhang,  Xing Zhang,  
 Yan Zhao,  Ying Zhu,  B. R. Brooks,  G. K. L. Chan,  C. J. Cramer,  
 M. S. Gordon,  W. J. Hehre,  A. Klamt,  M. W. Schmidt,  C. D. Sherrill,  
 D. G. Truhlar,  A. Aspuru-Guzik,  R. Baer,  A. T. Bell,  N. A. Besley,  
 Jeng-Da Chai,  A. Dreuw,  B. D. Dunietz,  T. R. Furlani,  Chao-Ping Hsu,  
 Yousung Jung,  Jing Kong,  D. S. Lambrecht,  WanZhen Liang,  C. Ochsenfeld,  
 V. A. Rassolov,  L. V. Slipchenko,  J. E. Subotnik,  T. Van Voorhis,  
 J. M. Herbert,  A. I. Krylov,  P. M. W. Gill,  M. Head-Gordon

 Contributors to earlier versions of Q-Chem not listed above: 
 R. D. Adamson,  B. Austin,  J. Baker,  G. J. O. Beran,  K. Brandhorst,  
 S. T. Brown,  E. F. C. Byrd,  A. K. Chakraborty,  C.-L. Cheng,  
 Siu Hung Chien,  D. M. Chipman,  D. L. Crittenden,  H. Dachsel,  
 R. A. DiStasio Jr.,  R. J. Doerksen,  A. D. Dutoi,  L. Fusti-Molnar,  
 W. A. Goddard III,  A. Golubeva-Zadorozhnaya,  S. R. Gwaltney,  G. Hawkins,  
 A. Heyden,  S. Hirata,  G. Kedziora,  F. J. Keil,  C. Kelley,  Jihan Kim,  
 R. A. King,  R. Z. Khaliullin,  P. P. Korambath,  W. Kurlancheek,  
 A. M. Lee,  M. S. Lee,  S. V. Levchenko,  Ching Yeh Lin,  D. Liotard,  
 R. C. Lochan,  I. Lotan,  P. E. Maslen,  N. Nair,  D. P. O'Neill,  
 D. Neuhauser,  E. Neuscamman,  C. M. Oana,  R. Olson,  B. Peters,  
 R. Peverati,  P. A. Pieniazek,  Y. M. Rhee,  J. Ritchie,  M. A. Rohrdanz,  
 E. Rosta,  N. J. Russ,  H. F. Schaefer III,  N. E. Schultz,  N. Shenvi,  
 A. C. Simmonett,  A. Sodt,  D. Stuck,  K. S. Thanthiriwatte,  V. Vanovschi,  
 Tao Wang,  A. Warshel,  C. F. Williams,  Q. Wu,  X. Xu,  W. Zhang

 Please cite Q-Chem as follows:
 Y. Shao et al., Mol. Phys. 113, 184-215 (2015)
 DOI: 10.1080/00268976.2014.952696

 Q-Chem 5.0.1 for Intel X86 EM64T Linux

 Parts of Q-Chem use Armadillo 5.200.1 (Boston Tea Smuggler).
 http://arma.sourceforge.net/

 Q-Chem begins on Mon Jan 15 16:48:05 2018  

Host: vega02.cac.cornell.edu
0

     Scratch files written to /scratch/jj585/SOT1001/0850c.save//
 Parallel job on  1  processors

Checking the input file for inconsistencies... 	...done.

--------------------------------------------------------------
User input:
--------------------------------------------------------------
$molecule
0  1
O -3.94934 -3.66094 2.70899
C -3.26408 -4.56952 2.26188
C -3.36658 -6.02376 2.66595
C -2.69345 -6.43548 3.98551
C -2.14608 -5.31502 4.84168
O -2.23555 -5.65363 6.16181
C -1.61017 -4.70318 7.0306
C -1.89224 -5.05721 8.48704
O -2.00636 -6.48167 8.63118
C -0.9636 -7.09071 9.24832
C -0.90545 -8.57534 8.97783
C 0.24971 -9.02325 8.07049
C 1.3587 -8.01114 7.86438
O 1.47793 -7.27823 6.8932
O -2.44213 -4.30439 1.21214
O 2.21279 -7.81875 8.90773
O -0.08452 -6.49541 9.85963
C 3.24325 -6.902 8.91642
C -0.666 -9.45738 10.21653
C -1.21313 -10.86062 9.95656
C -0.21977 -11.36726 8.92675
C 0.77914 -10.20296 8.91029
O 0.72161 -9.68962 10.22203
H -1.87981 -8.86414 8.51801
H -0.11098 -9.31662 7.05951
H -1.09917 -9.03296 11.14831
H -1.07431 -11.43825 10.89869
H -2.28028 -10.91484 9.65137
H 0.25263 -12.29356 9.32236
H -0.63843 -11.5531 7.91388
H 1.77846 -10.54552 8.56185
O -1.37051 -4.46903 4.41082
C -2.25734 -3.05153 0.66589
C -4.8188 -6.46604 2.90619
C -4.94204 -7.97508 2.71396
C -4.2179 -8.47276 3.94513
C -3.90915 -7.14397 4.64668
O -4.99116 -6.31723 4.29336
H -2.93202 -6.61177 1.82479
H -1.8481 -7.14024 3.8213
H -1.84932 -2.35745 1.43157
H -5.55128 -5.93457 2.25952
H -6.02143 -8.23274 2.80792
H -4.55497 -8.36076 1.7463
H -4.93325 -9.07342 4.55039
H -3.29724 -9.06444 3.75086
H -3.78777 -7.34478 5.73205
H -3.22015 -2.65745 0.27597
H -1.53491 -3.12327 -0.17281
H 3.77455 -6.96178 9.88825
H 2.84169 -5.87372 8.79081
H 3.96246 -7.1277 8.1003
H -1.17532 -4.54083 9.16353
H -2.89652 -4.65787 8.74324
H -1.92859 -3.65303 6.83799
H -0.51099 -4.78592 6.87315
$end

$opt
CONSTRAINT
tors           1           2           3           4     -79.360
tors           3           4           5           6    +148.240
tors           4           5           6           7    +173.877
tors           5           6           7           8    +173.269
tors           6           7           8           9     +31.843
tors           7           8           9          10    +107.136
tors           8           9          10          11    -161.050
tors           9          10          11          12    +109.318
tors          11          12          13          14     -99.030
ENDCONSTRAINT
$end

$rem
JOBTYPE                   OPT
METHOD                    B3LYP
DFT_D                     d3_op
BASIS                     STO-3G
GEOM_OPT_MAX_CYCLES       100
GEOM_OPT_TOL_GRADIENT     300
GEOM_OPT_TOL_DISPLACEMENT 1200
GEOM_OPT_TOL_ENERGY       100
SYMMETRY                  False
THRESH                    12
SCF_CONVERGENCE           8
MAX_SUB_FILE_NUM          128
MEM_STATIC                400
MEM_TOTAL                 4000
$end
--------------------------------------------------------------
 Adding empirical dispersion correction 
 ----------------------------------------------------------------
 Doing -D3(op) with
 s6 =   1.00000
 s8 =   0.78311
 a1 =   0.30000
 a2 =   4.25000
 n  =  10.00000
 -D3 energy without 3body term =     -0.0655399910 hartrees
 ----------------------------------------------------------------
             Standard Nuclear Orientation (Angstroms)
    I     Atom           X                Y                Z
 ----------------------------------------------------------------
    1      O      -5.2937403104     0.8009728447     0.8466971416
    2      C      -4.9390088446     0.5337045368    -0.2924865463
    3      C      -4.0507968178    -0.6268972368    -0.6832239400
    4      C      -2.5379921420    -0.4577138851    -0.4672263580
    5      C      -2.0978191932     0.7819888097     0.2794038054
    6      O      -0.9664414506     0.5146874839     0.9962993590
    7      C      -0.4080069557     1.6755223667     1.6206908235
    8      C       0.7475346123     1.2771646550     2.5329150379
    9      O       1.4152834941     0.1221785314     2.0009333741
   10      C       2.6352948903     0.3534977342     1.4557696019
   11      C       3.0850648235    -0.7514991622     0.5298315016
   12      C       3.1008648119    -0.3810145158    -0.9603951109
   13      C       3.0183278834     1.0993367890    -1.2741696701
   14      O       2.0040711301     1.6995278675    -1.5991579178
   15      O      -5.4916533186     1.2277733702    -1.3223905840
   16      O       4.1414130758     1.8359746962    -1.0481008600
   17      O       3.2614702984     1.3976673545     1.5917027282
   18      C       4.2307331407     3.2008219268    -1.2257743056
   19      C       4.5362241325    -1.2240352424     0.7312138919
   20      C       4.6811216796    -2.6572789461     0.2204934966
   21      C       4.5522198032    -2.4405657623    -1.2762952385
   22      C       4.5017895342    -0.9081714056    -1.3302483049
   23      O       5.2776952968    -0.5052583793    -0.2243003745
   24      H       2.4022241695    -1.6177667737     0.6957421655
   25      H       2.2729663017    -0.8749868910    -1.5161100942
   26      H       4.8814742572    -1.1454738100     1.7850701470
   27      H       5.7251401687    -2.9735106614     0.4453473220
   28      H       3.9759024783    -3.3987850559     0.6537652754
   29      H       5.4728671384    -2.8276310714    -1.7664887235
   30      H       3.6502977084    -2.8900002602    -1.7456176277
   31      H       4.8361840272    -0.5372758342    -2.3242377655
   32      O      -2.4377844340     1.9120838210    -0.0524954942
   33      C      -6.3667903880     2.2826219572    -1.1686890735
   34      C      -4.3427224036    -1.8928592233     0.1379882649
   35      C      -3.9050008290    -3.1306783109    -0.6401800470
   36      C      -2.4008810807    -2.9974057353    -0.5523968245
   37      C      -2.2797549549    -1.7585257338     0.3440888880
   38      O      -3.4052939212    -1.8393657687     1.1841523464
   39      H      -4.2550185638    -0.8260080970    -1.7606266703
   40      H      -1.9763438146    -0.4557076200    -1.4278591366
   41      H      -5.8791742927     3.1037663235    -0.6008460471
   42      H      -5.4099449015    -1.9841495847     0.4377742053
   43      H      -4.2181960109    -4.0205357477    -0.0482658221
   44      H      -4.3159239646    -3.2107710922    -1.6695805745
   45      H      -2.0021290374    -3.8950366434    -0.0288385312
   46      H      -1.8762752124    -2.8616327285    -1.5228581913
   47      H      -1.2930465607    -1.7932692083     0.8523065905
   48      H      -7.2813522487     1.9473239164    -0.6343749564
   49      H      -6.6570773895     2.6632634614    -2.1693463198
   50      H       5.2573267975     3.5340823899    -0.9701382071
   51      H       3.5093844297     3.7213840425    -0.5601473944
   52      H       4.0222612322     3.4627711798    -2.2851030651
   53      H       1.3835844229     2.1588596958     2.7702245499
   54      H       0.3147968220     0.9429746277     3.4997367508
   55      H      -1.1526332442     2.2639621195     2.2042791019
   56      H       0.0101361911     2.3161370581     0.8116159144
 ----------------------------------------------------------------
 Molecular Point Group                 C1    NOp =  1
 Largest Abelian Subgroup              C1    NOp =  1
 Nuclear Repulsion Energy =  3185.7643868092 hartrees
 There are      113 alpha and      113 beta electrons
 Requested basis set is STO-3G
 There are 86 shells and 176 basis functions

 Total QAlloc Memory Limit   4000 MB
 Mega-Array Size       392 MB
 MEM_STATIC part       400 MB
 A cutoff of  1.0D-12 yielded   2220 shell pairs
 There are     10581 function pairs
 
 -------------------------------------------------------
 OpenMP Integral Computing Module                       
 Release: version 1.0, May 2013, Q-Chem Inc. Pittsburgh 
 -------------------------------------------------------
 Integral Job Info:
 Integral job number is                      11
 Integral operator is                         1
 short-range coefficients                     0
 long-range coefficients              100000000
 Omega coefficients                           0
 if combine SR and LR in K                    0
 Integral screening is                        0
 Integral computing path is                   2
 max size of driver memory is            800000
 size of driver memory is                 45569
 size of scratch memory is              1046100
 max col of scratch BK array                289
 max len of scratch array in speh3           22
 max len of scratch index in speh4            8
 max int batch size is                      520
 min int batch size is                       52
 fixed nKL is                                52
 max L of basis functions is                  1
 order of int derivative is                   0
 number of shells is                         86
 number of basis is                         176
 number of cartesian basis is               176
 number of contracted shell pairs          2220
 number of primitive shell pairs          11120
 maxK2 (contraction) of shell pair            9
 max number of K2 of shell pair               1
 max number of CS2 of shell pair            325
 max number of PS2 of shell pair           1188
 mem total for path MDJ                   49782
 -------------------------------------------------------
 Smallest overlap matrix eigenvalue = 1.94E-01

 Scale SEOQF with 1.000000e-02/1.000000e-01/1.000000e-01

 Standard Electronic Orientation quadrupole field applied
 Nucleus-field energy     =     0.0000000271 hartrees
 Guess from superposition of atomic densities
 Warning:  Energy on first SCF cycle will be non-variational
 A restricted hybrid HF-DFT SCF calculation will be
 performed using Pulay DIIS extrapolation
 Exchange:     0.2000 Hartree-Fock + 0.0800 Slater + 0.7200 B88
 Correlation:  0.1900 VWN1RPA + 0.8100 LYP
 Using SG-1 standard quadrature grid
 Dispersion:   Grimme D3
 SCF converges when DIIS error is below 1.0E-08
 using 48 threads for integral computing
 -------------------------------------------------------
 OpenMP Integral computing Module                
 Release: version 1.0, May 2013, Q-Chem Inc. Pittsburgh 
 -------------------------------------------------------
 -------------------------------------------------------
 OpenMP BLAS3 based DFT computing Module                
 Release: version 1.0, May 2013, Q-Chem Inc. Pittsburgh 
 -------------------------------------------------------
 ---------------------------------------
  Cycle       Energy         DIIS Error
 ---------------------------------------
    1   -1509.4412011870      8.29E-02
    2   -1509.5964628476      1.04E-02
    3   -1507.6269236237      2.50E-02
    4   -1510.0850123039      3.73E-03
    5   -1510.1387783009      1.31E-03
    6   -1510.1451568109      5.57E-04
    7   -1510.1464238388      1.50E-04
    8   -1510.1465192147      2.70E-05
    9   -1510.1465219701      1.16E-05
   10   -1510.1465224862      4.61E-06
   11   -1510.1465225787      9.18E-07
   12   -1510.1465225822      2.73E-07
   13   -1510.1465225825      1.66E-07
   14   -1510.1465225825      3.56E-08
   15   -1510.1465225825      6.95E-09 Convergence criterion met
 ---------------------------------------
 SCF time:  CPU 114.04 s  wall 2.43 s
 SCF   energy in the final basis set = -1510.14652258
 Total energy in the final basis set = -1510.14652258
 
 --------------------------------------------------------------
 
                    Orbital Energies (a.u.)
 --------------------------------------------------------------
 
 Alpha MOs
 -- Occupied --
-18.952 -18.948 -18.924 -18.922 -18.899 -18.896 -18.867 -18.864
-18.851 -18.844 -10.112 -10.110 -10.107 -10.102 -10.087 -10.084
-10.074 -10.074 -10.069 -10.069 -10.066 -10.061 -10.044 -10.038
-10.037 -10.035 -10.018 -10.017 -10.015 -10.013  -1.052  -1.043
 -1.037  -1.034  -1.022  -1.021  -0.957  -0.948  -0.941  -0.937
 -0.785  -0.779  -0.749  -0.743  -0.736  -0.724  -0.715  -0.676
 -0.673  -0.635  -0.609  -0.588  -0.557  -0.550  -0.540  -0.535
 -0.530  -0.521  -0.506  -0.493  -0.481  -0.469  -0.463  -0.455
 -0.450  -0.449  -0.445  -0.427  -0.423  -0.421  -0.420  -0.415
 -0.403  -0.396  -0.390  -0.384  -0.382  -0.371  -0.361  -0.358
 -0.351  -0.347  -0.341  -0.338  -0.335  -0.330  -0.321  -0.316
 -0.312  -0.310  -0.304  -0.303  -0.296  -0.289  -0.288  -0.282
 -0.274  -0.257  -0.244  -0.235  -0.234  -0.219  -0.218  -0.186
 -0.178  -0.166  -0.163  -0.155  -0.151  -0.150  -0.146  -0.136
 -0.132
 -- Virtual --
  0.103   0.105   0.119   0.126   0.233   0.245   0.253   0.279
  0.291   0.302   0.332   0.334   0.339   0.343   0.345   0.359
  0.368   0.374   0.379   0.380   0.388   0.393   0.394   0.400
  0.406   0.409   0.410   0.411   0.412   0.422   0.423   0.433
  0.434   0.435   0.439   0.445   0.450   0.452   0.458   0.460
  0.462   0.464   0.470   0.475   0.476   0.480   0.481   0.486
  0.490   0.492   0.503   0.511   0.523   0.536   0.554   0.561
  0.565   0.580   0.583   0.681   0.684   0.699   0.703
 --------------------------------------------------------------
 
          Ground-State Mulliken Net Atomic Charges

     Atom                 Charge (a.u.)
  ----------------------------------------
      1 O                    -0.238897
      2 C                     0.238377
      3 C                    -0.082245
      4 C                    -0.079532
      5 C                     0.235540
      6 O                    -0.182617
      7 C                    -0.035853
      8 C                    -0.038282
      9 O                    -0.183041
     10 C                     0.229385
     11 C                    -0.082153
     12 C                    -0.079208
     13 C                     0.233725
     14 O                    -0.242175
     15 O                    -0.211983
     16 O                    -0.202985
     17 O                    -0.230372
     18 C                    -0.095121
     19 C                     0.041117
     20 C                    -0.141404
     21 C                    -0.144378
     22 C                     0.042575
     23 O                    -0.202757
     24 H                     0.084002
     25 H                     0.089264
     26 H                     0.085467
     27 H                     0.075584
     28 H                     0.072096
     29 H                     0.076063
     30 H                     0.070855
     31 H                     0.083909
     32 O                    -0.224915
     33 C                    -0.097599
     34 C                     0.041690
     35 C                    -0.142376
     36 C                    -0.144418
     37 C                     0.036992
     38 O                    -0.209975
     39 H                     0.085801
     40 H                     0.089726
     41 H                     0.089446
     42 H                     0.085892
     43 H                     0.074771
     44 H                     0.072205
     45 H                     0.073392
     46 H                     0.069635
     47 H                     0.091757
     48 H                     0.084088
     49 H                     0.092291
     50 H                     0.096194
     51 H                     0.087754
     52 H                     0.082849
     53 H                     0.104039
     54 H                     0.089324
     55 H                     0.095148
     56 H                     0.091336
  ----------------------------------------
  Sum of atomic charges =     0.000000

 -----------------------------------------------------------------
                    Cartesian Multipole Moments
 -----------------------------------------------------------------
    Charge (ESU x 10^10)
                -0.0000
    Dipole Moment (Debye)
         X       0.5272      Y      -1.8459      Z      -1.3857
       Tot       2.3675
    Quadrupole Moments (Debye-Ang)
        XX    -163.8680     XY      -2.2844     YY    -151.9893
        XZ       5.7113     YZ       4.0153     ZZ    -157.1608
    Octopole Moments (Debye-Ang^2)
       XXX     -93.6409    XXY       2.1150    XYY       6.8846
       YYY      50.4997    XXZ     -68.9070    XYZ      -9.2726
       YYZ       1.0234    XZZ      22.3824    YZZ      21.4768
       ZZZ      15.8303
    Hexadecapole Moments (Debye-Ang^3)
      XXXX  -13477.9154   XXXY    -160.5944   XXYY   -2560.5489
      XYYY      71.5409   YYYY   -3108.6404   XXXZ     190.2988
      XXYZ    -116.6456   XYYZ      -6.9931   YYYZ     -49.7368
      XXZZ   -2511.2107   XYZZ     -14.7919   YYZZ    -757.8408
      XZZZ      -7.3880   YZZZ       4.3559   ZZZZ   -1398.4241
 -----------------------------------------------------------------
 Calculating analytic gradient of the SCF energy
 Gradient of SCF Energy
            1           2           3           4           5           6
    1   0.0087359   0.0112784   0.0096901  -0.0134760   0.0008284  -0.0241843
    2  -0.0093589  -0.0109620  -0.0068711   0.0256097  -0.0017547   0.0481048
    3  -0.0723546  -0.0236479   0.0670504   0.0169926   0.0300114  -0.0342885
            7           8           9          10          11          12
    1  -0.0036961   0.0082450   0.0411066  -0.0286968   0.0416101   0.0128314
    2  -0.0454292  -0.0026231   0.0413909  -0.0112460   0.0458344   0.0173879
    3   0.0172322  -0.0469487  -0.0082116   0.0227217  -0.0166371   0.0228536
           13          14          15          16          17          18
    1   0.0137704   0.0702907  -0.0460337  -0.0872259  -0.0287256   0.0209336
    2  -0.0283490  -0.0205828   0.0472351   0.0829139  -0.0521220  -0.0519238
    3  -0.0068125   0.0250374   0.1064845  -0.0318913  -0.0129557   0.0136240
           19          20          21          22          23          24
    1   0.0055912  -0.0095432   0.0028283   0.0041301  -0.0687177  -0.0025013
    2   0.0172278   0.0447048   0.0326353   0.0006749  -0.0532459  -0.0068375
    3  -0.0638394  -0.0248157   0.0336943   0.0679992  -0.0054243   0.0030276
           25          26          27          28          29          30
    1  -0.0054684  -0.0051427   0.0106763  -0.0042230   0.0116589  -0.0081540
    2  -0.0032882  -0.0107471   0.0026233  -0.0067022  -0.0039970   0.0007353
    3  -0.0034160   0.0064742  -0.0020463   0.0021931   0.0042931  -0.0040475
           31          32          33          34          35          36
    1  -0.0066351   0.0277008   0.0313972   0.0679497   0.0289312  -0.0342091
    2  -0.0068361  -0.0552037  -0.0387550   0.0052010   0.0390814   0.0279201
    3  -0.0092533  -0.0001609  -0.0307077   0.0148387   0.0219237   0.0214132
           37          38          39          40          41          42
    1  -0.0721698   0.0073445  -0.0027397   0.0043318   0.0064335  -0.0067158
    2   0.0026840  -0.0000224  -0.0017553   0.0005815  -0.0055361  -0.0057614
    3   0.0059702  -0.0860576  -0.0058918  -0.0036689  -0.0029799  -0.0106479
           43          44          45          46          47          48
    1   0.0022521  -0.0022148  -0.0051917   0.0045616   0.0078497   0.0045873
    2  -0.0054215  -0.0015230  -0.0098717   0.0038931  -0.0102778  -0.0069823
    3   0.0100476  -0.0078832   0.0070646  -0.0062987  -0.0097664  -0.0033539
           49          50          51          52          53          54
    1  -0.0022475  -0.0001203   0.0012301   0.0019053  -0.0062409  -0.0009422
    2   0.0026859   0.0038715  -0.0080527  -0.0091201   0.0039613   0.0009413
    3   0.0008053  -0.0007358   0.0026445   0.0008735   0.0085301  -0.0022448
           55          56
    1   0.0003691   0.0041664
    2   0.0002454  -0.0069851
    3   0.0036888  -0.0005014
 Max gradient component =       1.065E-01
 RMS gradient           =       2.792E-02
 Gradient time:  CPU 32.10 s  wall 0.70 s
 Geometry Optimization Parameters
   NAtoms,    NIC,     NZ,  NCons,   NDum,   NFix, NCnnct, MaxDiis
       56     458       0       9       0       0       0       0


** CONSTRAINED OPTIMIZATION IN DELOCALIZED INTERNAL COORDINATES **
   Searching for a Minimum

   Optimization Cycle:   1

                       Coordinates (Angstroms)
     ATOM                X               Y               Z
      1  O        -5.2937403104    0.8009728447    0.8466971416
      2  C        -4.9390088446    0.5337045368   -0.2924865463
      3  C        -4.0507968178   -0.6268972368   -0.6832239400
      4  C        -2.5379921420   -0.4577138851   -0.4672263580
      5  C        -2.0978191932    0.7819888097    0.2794038054
      6  O        -0.9664414506    0.5146874839    0.9962993590
      7  C        -0.4080069557    1.6755223667    1.6206908235
      8  C         0.7475346123    1.2771646550    2.5329150379
      9  O         1.4152834941    0.1221785314    2.0009333741
     10  C         2.6352948903    0.3534977342    1.4557696019
     11  C         3.0850648235   -0.7514991622    0.5298315016
     12  C         3.1008648119   -0.3810145158   -0.9603951109
     13  C         3.0183278834    1.0993367890   -1.2741696701
     14  O         2.0040711301    1.6995278675   -1.5991579178
     15  O        -5.4916533186    1.2277733702   -1.3223905840
     16  O         4.1414130758    1.8359746962   -1.0481008600
     17  O         3.2614702984    1.3976673545    1.5917027282
     18  C         4.2307331407    3.2008219268   -1.2257743056
     19  C         4.5362241325   -1.2240352424    0.7312138919
     20  C         4.6811216796   -2.6572789461    0.2204934966
     21  C         4.5522198032   -2.4405657623   -1.2762952385
     22  C         4.5017895342   -0.9081714056   -1.3302483049
     23  O         5.2776952968   -0.5052583793   -0.2243003745
     24  H         2.4022241695   -1.6177667737    0.6957421655
     25  H         2.2729663017   -0.8749868910   -1.5161100942
     26  H         4.8814742572   -1.1454738100    1.7850701470
     27  H         5.7251401687   -2.9735106614    0.4453473220
     28  H         3.9759024783   -3.3987850559    0.6537652754
     29  H         5.4728671384   -2.8276310714   -1.7664887235
     30  H         3.6502977084   -2.8900002602   -1.7456176277
     31  H         4.8361840272   -0.5372758342   -2.3242377655
     32  O        -2.4377844340    1.9120838210   -0.0524954942
     33  C        -6.3667903880    2.2826219572   -1.1686890735
     34  C        -4.3427224036   -1.8928592233    0.1379882649
     35  C        -3.9050008290   -3.1306783109   -0.6401800470
     36  C        -2.4008810807   -2.9974057353   -0.5523968245
     37  C        -2.2797549549   -1.7585257338    0.3440888880
     38  O        -3.4052939212   -1.8393657687    1.1841523464
     39  H        -4.2550185638   -0.8260080970   -1.7606266703
     40  H        -1.9763438146   -0.4557076200   -1.4278591366
     41  H        -5.8791742927    3.1037663235   -0.6008460471
     42  H        -5.4099449015   -1.9841495847    0.4377742053
     43  H        -4.2181960109   -4.0205357477   -0.0482658221
     44  H        -4.3159239646   -3.2107710922   -1.6695805745
     45  H        -2.0021290374   -3.8950366434   -0.0288385312
     46  H        -1.8762752124   -2.8616327285   -1.5228581913
     47  H        -1.2930465607   -1.7932692083    0.8523065905
     48  H        -7.2813522487    1.9473239164   -0.6343749564
     49  H        -6.6570773895    2.6632634614   -2.1693463198
     50  H         5.2573267975    3.5340823899   -0.9701382071
     51  H         3.5093844297    3.7213840425   -0.5601473944
     52  H         4.0222612322    3.4627711798   -2.2851030651
     53  H         1.3835844229    2.1588596958    2.7702245499
     54  H         0.3147968220    0.9429746277    3.4997367508
     55  H        -1.1526332442    2.2639621195    2.2042791019
     56  H         0.0101361911    2.3161370581    0.8116159144
   Point Group: c1    Number of degrees of freedom:   162


   Energy is  -1510.146522583

              Constraints and their Current Values
                                        Value     Constraint
   Dihedral:        1   2   3   4      -79.360      -79.360
   Dihedral:        3   4   5   6      148.239      148.240
   Dihedral:        4   5   6   7      173.876      173.877
   Dihedral:        5   6   7   8      173.269      173.269
   Dihedral:        6   7   8   9       31.844       31.843
   Dihedral:        7   8   9  10      107.136      107.136
   Dihedral:        8   9  10  11     -161.050     -161.050
   Dihedral:        9  10  11  12      109.318      109.318
   Dihedral:       11  12  13  14      -99.029      -99.030

 Attempting to Generate Delocalized Internal Coordinates

   Using Lagrange Multiplier Algorithm


171 Hessian modes will be used to form the next step
  Hessian Eigenvalues:
    -0.977753   -0.977753   -0.977753   -0.977753   -0.977753   -0.977753
    -0.977753   -0.977753   -0.977753    0.045000    0.045000    0.045000
     0.045000    0.045182    0.045184    0.045250    0.045565    0.045597
     0.047229    0.048860    0.048865    0.054362    0.059882    0.059969
     0.062310    0.062313    0.066967    0.066984    0.067702    0.068106
     0.069541    0.070738    0.071492    0.073767    0.074083    0.075481
     0.075874    0.077249    0.077282    0.082426    0.082451    0.083313
     0.083514    0.084237    0.084254    0.085312    0.085362    0.086477
     0.086753    0.086867    0.087028    0.088515    0.088548    0.089071
     0.089345    0.089693    0.089937    0.093727    0.093899    0.096629
     0.096725    0.111586    0.111605    0.114649    0.114666    0.115894
     0.115924    0.117021    0.117327    0.117601    0.118763    0.118999
     0.122315    0.123592    0.130682    0.131459    0.131870    0.140878
     0.141700    0.160000    0.160000    0.160000    0.160000    0.160000
     0.160000    0.171390    0.172336    0.173291    0.173412    0.219836
     0.221264    0.231289    0.239643    0.241122    0.248448    0.248945
     0.249249    0.250000    0.250000    0.250000    0.250000    0.250000
     0.250000    0.250000    0.250000    0.258228    0.258680    0.266944
     0.267152    0.276858    0.280211    0.281482    0.284589    0.294280
     0.296240    0.298748    0.308052    0.310698    0.310869    0.313314
     0.320303    0.321264    0.321657    0.322016    0.322127    0.322346
     0.322803    0.323080    0.323083    0.323091    0.323347    0.323489
     0.323597    0.324157    0.324282    0.324413    0.324651    0.324674
     0.324862    0.324912    0.324935    0.324975    0.325244    0.325531
     0.326779    0.326857    0.367189    0.369304    0.381918    0.384624
     0.401008    0.407716    0.492381    0.492487    0.517926    0.525439
     0.530778    0.537336    0.928132    0.931600    0.941950    0.942739
     1.022753    1.022753    1.022753    1.022753    1.022753    1.022753
     1.022753    1.022753    1.022753

 Minimum Search - Taking P-RFO Step
 Searching for Lamda that Maximizes Along the Constraint modes Only
 Value Taken    Lamda =   0.00048362
 Searching for Lamda that Minimizes Along All other modes
 Value Taken    Lamda =  -0.16545296
 Calculated Step too Large.  Step scaled by  0.523813
 Step Taken.  Stepsize is  0.300000

                             Maximum     Tolerance    Cnvgd?
         Gradient            0.107513       0.000300      NO
         Displacement        0.098086       0.001200      NO
         Energy change     *********       0.000001      NO


 New Cartesian Coordinates Obtained by Inverse Iteration

 Displacement from previous Coordinates is:  0.585044
 Adding empirical dispersion correction 
 ----------------------------------------------------------------
 Doing -D3(op) with
 s6 =   1.00000
 s8 =   0.78311
 a1 =   0.30000
 a2 =   4.25000
 n  =  10.00000
 -D3 energy without 3body term =     -0.0652753852 hartrees
 ----------------------------------------------------------------
             Standard Nuclear Orientation (Angstroms)
    I     Atom           X                Y                Z
 ----------------------------------------------------------------
    1      O      -5.3109589227     0.8208589213     0.8633723493
    2      C      -4.9598344695     0.5382175251    -0.2925782544
    3      C      -4.0789858425    -0.6495880124    -0.6896990987
    4      C      -2.5489562663    -0.4832428682    -0.4758920839
    5      C      -2.1170208643     0.7891667271     0.2705086216
    6      O      -0.9687533673     0.5325011402     1.0075487566
    7      C      -0.4172182147     1.7192327127     1.6281535990
    8      C       0.7475462356     1.3103414773     2.5558821485
    9      O       1.4175114954     0.1405103235     2.0235314219
   10      C       2.6624059575     0.3889674663     1.4772040831
   11      C       3.1007899353    -0.7419839460     0.5421592928
   12      C       3.1100760024    -0.3664246375    -0.9670780132
   13      C       3.0257933095     1.1355561602    -1.2692471088
   14      O       1.9920652199     1.7446285591    -1.5874799336
   15      O      -5.4847092796     1.2127208791    -1.3758877571
   16      O       4.1975752939     1.8261492588    -1.0351825417
   17      O       3.2930570008     1.4468225016     1.6248622386
   18      C       4.2550238793     3.2201585221    -1.2148277734
   19      C       4.5693988516    -1.2349212498     0.7374608304
   20      C       4.6811232832    -2.6913524538     0.2167797517
   21      C       4.5397996206    -2.4674532328    -1.3023937832
   22      C       4.5218345901    -0.9124711308    -1.3584252078
   23      O       5.3302018710    -0.5120325171    -0.2407577443
   24      H       2.4121114137    -1.5973244854     0.7126279433
   25      H       2.2767261412    -0.8495888537    -1.5158949834
   26      H       4.9274671110    -1.1514291239     1.7843824621
   27      H       5.7139142532    -3.0319964136     0.4327865485
   28      H       3.9669651175    -3.4133095910     0.6567639827
   29      H       5.4395435521    -2.8700718410    -1.8069204561
   30      H       3.6280960654    -2.8985614087    -1.7590872870
   31      H       4.8559848262    -0.5385109118    -2.3488137139
   32      O      -2.4839131223     1.9295780154    -0.0524303916
   33      C      -6.3580241797     2.2992275411    -1.1828132923
   34      C      -4.3750290369    -1.9282139066     0.1522916807
   35      C      -3.9326335203    -3.1796137575    -0.6465588858
   36      C      -2.4015404881    -3.0410289015    -0.5672629403
   37      C      -2.2728050367    -1.7900013061     0.3495622014
   38      O      -3.4132202125    -1.8732416460     1.2147763305
   39      H      -4.2882229701    -0.8505897538    -1.7619484846
   40      H      -1.9944823567    -0.4846750370    -1.4371798942
   41      H      -5.8622169184     3.1164302486    -0.6133020082
   42      H      -5.4359995833    -2.0118949907     0.4675785403
   43      H      -4.2424652767    -4.0707606883    -0.0645421520
   44      H      -4.3498790876    -3.2524778511    -1.6689168790
   45      H      -1.9899524833    -3.9335444513    -0.0563893234
   46      H      -1.8891484249    -2.8999722723    -1.5382449111
   47      H      -1.2878872711    -1.8080700960     0.8586366091
   48      H      -7.2762765316     1.9854082616    -0.6380119343
   49      H      -6.6529802346     2.6896216852    -2.1778392246
   50      H       5.2828135862     3.5586017741    -0.9733582521
   51      H       3.5413793534     3.7410406560    -0.5383983622
   52      H       4.0259665049     3.5004483504    -2.2671682555
   53      H       1.3950773888     2.1842384041     2.7871989638
   54      H       0.3140974020     0.9791125138     3.5246203307
   55      H      -1.1658202884     2.3116225886     2.2005845685
   56      H      -0.0025585454     2.3594242941     0.8153301835
 ----------------------------------------------------------------
 Molecular Point Group                 C1    NOp =  1
 Largest Abelian Subgroup              C1    NOp =  1
 Nuclear Repulsion Energy =  3156.6889178520 hartrees
 There are      113 alpha and      113 beta electrons
 Applying Cartesian multipole field
    Component          Value
    ---------          -----
     (2,0,0)        1.00000E-12
     (0,2,0)        2.00000E-11
     (0,0,2)       -3.00000E-11
 Nucleus-field energy     =     0.0000000277 hartrees
 Requested basis set is STO-3G
 There are 86 shells and 176 basis functions
 A cutoff of  1.0D-12 yielded   2200 shell pairs
 There are     10474 function pairs
 Smallest overlap matrix eigenvalue = 2.02E-01
 Guess MOs from SCF MO coefficient file
 Reading MOs from coefficient file
 Reading MOs from coefficient file
 A restricted hybrid HF-DFT SCF calculation will be
 performed using Pulay DIIS extrapolation
 Exchange:     0.2000 Hartree-Fock + 0.0800 Slater + 0.7200 B88
 Correlation:  0.1900 VWN1RPA + 0.8100 LYP
 Using SG-1 standard quadrature grid
 Dispersion:   Grimme D3
 SCF converges when DIIS error is below 1.0E-08
 Geometry optimization detected.  Setting ReadMinima to 0
 Setting SaveMinima to 0
 using 48 threads for integral computing
 -------------------------------------------------------
 OpenMP Integral computing Module                
 Release: version 1.0, May 2013, Q-Chem Inc. Pittsburgh 
 -------------------------------------------------------
 -------------------------------------------------------
 OpenMP BLAS3 based DFT computing Module                
 Release: version 1.0, May 2013, Q-Chem Inc. Pittsburgh 
 -------------------------------------------------------
 ---------------------------------------
  Cycle       Energy         DIIS Error
 ---------------------------------------
    1   -1510.0442573415      3.05E-03
    2   -1510.2117917794      9.05E-04
    3   -1510.2068893928      1.42E-03
    4   -1510.2150987766      3.19E-04
    5   -1510.2155582832      6.43E-05
    6   -1510.2155741082      2.82E-05
    7   -1510.2155770593      1.13E-05
    8   -1510.2155776291      2.10E-06
    9   -1510.2155776514      6.31E-07
   10   -1510.2155776527      3.94E-07
   11   -1510.2155776533      1.24E-07
   12   -1510.2155776534      1.82E-08
   13   -1510.2155776535      1.33E-08
   14   -1510.2155776534      6.04E-09 Convergence criterion met
 ---------------------------------------
 SCF time:  CPU 99.76 s  wall 2.08 s
 SCF   energy in the final basis set = -1510.21557765
 Total energy in the final basis set = -1510.21557765
 
 --------------------------------------------------------------
 
                    Orbital Energies (a.u.)
 --------------------------------------------------------------
 
 Alpha MOs
 -- Occupied --
-18.948 -18.944 -18.930 -18.926 -18.897 -18.894 -18.867 -18.867
-18.854 -18.848 -10.107 -10.105 -10.102 -10.097 -10.084 -10.081
-10.071 -10.070 -10.066 -10.066 -10.063 -10.059 -10.042 -10.038
-10.037 -10.034 -10.019 -10.017 -10.015 -10.014  -1.038  -1.029
 -1.025  -1.022  -1.002  -1.000  -0.949  -0.941  -0.936  -0.930
 -0.776  -0.771  -0.740  -0.734  -0.727  -0.716  -0.707  -0.670
 -0.668  -0.628  -0.604  -0.584  -0.553  -0.547  -0.538  -0.534
 -0.526  -0.515  -0.499  -0.487  -0.474  -0.464  -0.456  -0.450
 -0.446  -0.442  -0.439  -0.421  -0.417  -0.415  -0.415  -0.410
 -0.398  -0.389  -0.384  -0.377  -0.375  -0.364  -0.358  -0.353
 -0.348  -0.344  -0.339  -0.335  -0.334  -0.330  -0.322  -0.312
 -0.309  -0.307  -0.304  -0.301  -0.294  -0.285  -0.284  -0.280
 -0.272  -0.257  -0.244  -0.235  -0.234  -0.227  -0.226  -0.184
 -0.176  -0.168  -0.165  -0.154  -0.151  -0.149  -0.145  -0.139
 -0.134
 -- Virtual --
  0.098   0.101   0.112   0.119   0.227   0.243   0.248   0.272
  0.283   0.293   0.318   0.322   0.331   0.336   0.339   0.351
  0.358   0.362   0.369   0.369   0.379   0.382   0.382   0.395
  0.398   0.398   0.403   0.405   0.409   0.409   0.414   0.421
  0.428   0.429   0.433   0.436   0.438   0.440   0.443   0.446
  0.447   0.457   0.463   0.464   0.467   0.469   0.470   0.474
  0.477   0.482   0.485   0.498   0.504   0.516   0.531   0.551
  0.556   0.560   0.563   0.657   0.659   0.675   0.679
 --------------------------------------------------------------
 
          Ground-State Mulliken Net Atomic Charges

     Atom                 Charge (a.u.)
  ----------------------------------------
      1 O                    -0.229855
      2 C                     0.225825
      3 C                    -0.081489
      4 C                    -0.077794
      5 C                     0.225093
      6 O                    -0.177397
      7 C                    -0.038922
      8 C                    -0.041517
      9 O                    -0.177294
     10 C                     0.218723
     11 C                    -0.080908
     12 C                    -0.078422
     13 C                     0.220838
     14 O                    -0.233551
     15 O                    -0.198009
     16 O                    -0.188219
     17 O                    -0.222266
     18 C                    -0.103570
     19 C                     0.035910
     20 C                    -0.142525
     21 C                    -0.145151
     22 C                     0.037320
     23 O                    -0.193458
     24 H                     0.084713
     25 H                     0.087774
     26 H                     0.085205
     27 H                     0.075945
     28 H                     0.072894
     29 H                     0.076360
     30 H                     0.071691
     31 H                     0.083751
     32 O                    -0.219263
     33 C                    -0.105991
     34 C                     0.036309
     35 C                    -0.143358
     36 C                    -0.145183
     37 C                     0.032240
     38 O                    -0.200770
     39 H                     0.085282
     40 H                     0.088860
     41 H                     0.089928
     42 H                     0.085532
     43 H                     0.075163
     44 H                     0.072896
     45 H                     0.073981
     46 H                     0.070438
     47 H                     0.091665
     48 H                     0.084466
     49 H                     0.091760
     50 H                     0.095799
     51 H                     0.088302
     52 H                     0.083423
     53 H                     0.102799
     54 H                     0.088653
     55 H                     0.094799
     56 H                     0.090574
  ----------------------------------------
  Sum of atomic charges =    -0.000000

 -----------------------------------------------------------------
                    Cartesian Multipole Moments
 -----------------------------------------------------------------
    Charge (ESU x 10^10)
                 0.0000
    Dipole Moment (Debye)
         X       0.4822      Y      -1.7424      Z      -1.4633
       Tot       2.3259
    Quadrupole Moments (Debye-Ang)
        XX    -163.6364     XY      -2.2467     YY    -151.2231
        XZ       5.5859     YZ       3.9873     ZZ    -157.2633
    Octopole Moments (Debye-Ang^2)
       XXX    -101.2800    XXY       3.6860    XYY       7.2153
       YYY      50.7914    XXZ     -67.8289    XYZ     -10.0495
       YYZ      -0.3202    XZZ      23.1105    YZZ      21.3177
       ZZZ      14.9327
    Hexadecapole Moments (Debye-Ang^3)
      XXXX  -13581.9530   XXXY    -179.1033   XXYY   -2574.4461
      XYYY      55.4652   YYYY   -3174.7358   XXXZ     182.9667
      XXYZ    -121.0837   XYYZ      -8.2765   YYYZ     -57.4074
      XXZZ   -2532.9270   XYZZ     -21.2374   YYZZ    -773.9591
      XZZZ     -14.1738   YZZZ      -2.9943   ZZZZ   -1424.5557
 -----------------------------------------------------------------
 Calculating analytic gradient of the SCF energy
 Gradient of SCF Energy
            1           2           3           4           5           6
    1   0.0016753   0.0126302   0.0064316  -0.0085627  -0.0032108  -0.0113179
    2  -0.0056612  -0.0084505  -0.0033361   0.0186799  -0.0108111   0.0336669
    3  -0.0306624  -0.0338037   0.0448690   0.0044592   0.0289532  -0.0250349
            7           8           9          10          11          12
    1  -0.0071525   0.0114176   0.0231584  -0.0244199   0.0258002   0.0023232
    2  -0.0318833  -0.0000759   0.0271950  -0.0184943   0.0302140   0.0110702
    3   0.0163866  -0.0361701  -0.0018423   0.0175908  -0.0128614   0.0147928
           13          14          15          16          17          18
    1   0.0251959   0.0297575  -0.0315019  -0.0591483  -0.0115667   0.0172344
    2  -0.0264179  -0.0076625   0.0332384   0.0576624  -0.0236172  -0.0396975
    3  -0.0036223   0.0120579   0.0728071  -0.0193527  -0.0086172   0.0099084
           19          20          21          22          23          24
    1   0.0068369  -0.0073844   0.0013812   0.0073584  -0.0414886  -0.0007883
    2   0.0143277   0.0238030   0.0169280   0.0035570  -0.0309553  -0.0047576
    3  -0.0371962  -0.0118069   0.0155550   0.0417250  -0.0034119   0.0020354
           25          26          27          28          29          30
    1  -0.0032315  -0.0052274   0.0066078  -0.0010712   0.0072811  -0.0044942
    2  -0.0006751  -0.0093212   0.0026463  -0.0047929  -0.0026450   0.0012252
    3  -0.0022040   0.0048050  -0.0017313   0.0015402   0.0040556  -0.0031651
           31          32          33          34          35          36
    1  -0.0066149   0.0180062   0.0228348   0.0394786   0.0135688  -0.0152337
    2  -0.0060731  -0.0254718  -0.0292210   0.0034695   0.0219285   0.0150481
    3  -0.0071473  -0.0063281  -0.0244744   0.0137523   0.0093439   0.0106672
           37          38          39          40          41          42
    1  -0.0447282   0.0048641  -0.0020616   0.0027476   0.0037187  -0.0050301
    2   0.0033459   0.0003411  -0.0011431   0.0002849  -0.0016766  -0.0046138
    3   0.0092911  -0.0516429  -0.0035942  -0.0018142  -0.0013803  -0.0098660
           43          44          45          46          47          48
    1   0.0019253  -0.0018071  -0.0043557   0.0034319   0.0063404   0.0009596
    2  -0.0024920  -0.0021981  -0.0059080   0.0022000  -0.0081791  -0.0038315
    3   0.0068480  -0.0040048   0.0044493  -0.0030095  -0.0091214  -0.0016239
           49          50          51          52          53          54
    1  -0.0022407   0.0002654   0.0002606   0.0012476  -0.0058233  -0.0004643
    2   0.0027881   0.0037741  -0.0033054  -0.0041877   0.0031777   0.0003587
    3   0.0004136  -0.0005652   0.0022674  -0.0008098   0.0082148  -0.0008730
           55          56
    1   0.0009604   0.0032262
    2   0.0013970  -0.0047716
    3   0.0021334  -0.0011849
 Max gradient component =       7.281E-02
 RMS gradient           =       1.800E-02
 Gradient time:  CPU 30.17 s  wall 0.64 s
 Geometry Optimization Parameters
   NAtoms,    NIC,     NZ,  NCons,   NDum,   NFix, NCnnct, MaxDiis
       56     458       0       9       0       0       0       0

 Cartesian Hessian Update
 Hessian Updated using BFGS Update


** CONSTRAINED OPTIMIZATION IN DELOCALIZED INTERNAL COORDINATES **
   Searching for a Minimum

   Optimization Cycle:   2

                       Coordinates (Angstroms)
     ATOM                X               Y               Z
      1  O        -5.3109589227    0.8208589213    0.8633723493
      2  C        -4.9598344695    0.5382175251   -0.2925782544
      3  C        -4.0789858425   -0.6495880124   -0.6896990987
      4  C        -2.5489562663   -0.4832428682   -0.4758920839
      5  C        -2.1170208643    0.7891667271    0.2705086216
      6  O        -0.9687533673    0.5325011402    1.0075487566
      7  C        -0.4172182147    1.7192327127    1.6281535990
      8  C         0.7475462356    1.3103414773    2.5558821485
      9  O         1.4175114954    0.1405103235    2.0235314219
     10  C         2.6624059575    0.3889674663    1.4772040831
     11  C         3.1007899353   -0.7419839460    0.5421592928
     12  C         3.1100760024   -0.3664246375   -0.9670780132
     13  C         3.0257933095    1.1355561602   -1.2692471088
     14  O         1.9920652199    1.7446285591   -1.5874799336
     15  O        -5.4847092796    1.2127208791   -1.3758877571
     16  O         4.1975752939    1.8261492588   -1.0351825417
     17  O         3.2930570008    1.4468225016    1.6248622386
     18  C         4.2550238793    3.2201585221   -1.2148277734
     19  C         4.5693988516   -1.2349212498    0.7374608304
     20  C         4.6811232832   -2.6913524538    0.2167797517
     21  C         4.5397996206   -2.4674532328   -1.3023937832
     22  C         4.5218345901   -0.9124711308   -1.3584252078
     23  O         5.3302018710   -0.5120325171   -0.2407577443
     24  H         2.4121114137   -1.5973244854    0.7126279433
     25  H         2.2767261412   -0.8495888537   -1.5158949834
     26  H         4.9274671110   -1.1514291239    1.7843824621
     27  H         5.7139142532   -3.0319964136    0.4327865485
     28  H         3.9669651175   -3.4133095910    0.6567639827
     29  H         5.4395435521   -2.8700718410   -1.8069204561
     30  H         3.6280960654   -2.8985614087   -1.7590872870
     31  H         4.8559848262   -0.5385109118   -2.3488137139
     32  O        -2.4839131223    1.9295780154   -0.0524303916
     33  C        -6.3580241797    2.2992275411   -1.1828132923
     34  C        -4.3750290369   -1.9282139066    0.1522916807
     35  C        -3.9326335203   -3.1796137575   -0.6465588858
     36  C        -2.4015404881   -3.0410289015   -0.5672629403
     37  C        -2.2728050367   -1.7900013061    0.3495622014
     38  O        -3.4132202125   -1.8732416460    1.2147763305
     39  H        -4.2882229701   -0.8505897538   -1.7619484846
     40  H        -1.9944823567   -0.4846750370   -1.4371798942
     41  H        -5.8622169184    3.1164302486   -0.6133020082
     42  H        -5.4359995833   -2.0118949907    0.4675785403
     43  H        -4.2424652767   -4.0707606883   -0.0645421520
     44  H        -4.3498790876   -3.2524778511   -1.6689168790
     45  H        -1.9899524833   -3.9335444513   -0.0563893234
     46  H        -1.8891484249   -2.8999722723   -1.5382449111
     47  H        -1.2878872711   -1.8080700960    0.8586366091
     48  H        -7.2762765316    1.9854082616   -0.6380119343
     49  H        -6.6529802346    2.6896216852   -2.1778392246
     50  H         5.2828135862    3.5586017741   -0.9733582521
     51  H         3.5413793534    3.7410406560   -0.5383983622
     52  H         4.0259665049    3.5004483504   -2.2671682555
     53  H         1.3950773888    2.1842384041    2.7871989638
     54  H         0.3140974020    0.9791125138    3.5246203307
     55  H        -1.1658202884    2.3116225886    2.2005845685
     56  H        -0.0025585454    2.3594242941    0.8153301835
   Point Group: c1    Number of degrees of freedom:   162


   Energy is  -1510.215577653

              Constraints and their Current Values
                                        Value     Constraint
   Dihedral:        1   2   3   4      -79.378      -79.360
   Dihedral:        3   4   5   6      148.249      148.240
   Dihedral:        4   5   6   7      173.856      173.877
   Dihedral:        5   6   7   8      173.271      173.269
   Dihedral:        6   7   8   9       31.794       31.843
   Dihedral:        7   8   9  10      107.156      107.136
   Dihedral:        8   9  10  11     -161.028     -161.050
   Dihedral:        9  10  11  12      109.324      109.318
   Dihedral:       11  12  13  14      -99.036      -99.030
 Hessian Updated using BFGS Update

   Using Lagrange Multiplier Algorithm


159 Hessian modes will be used to form the next step
  Hessian Eigenvalues:
    -0.977753   -0.977753   -0.977753   -0.977753   -0.977753   -0.977753
    -0.977753   -0.977753   -0.977645    0.044996    0.045000    0.045182
     0.045197    0.045243    0.045564    0.045593    0.047266    0.048858
     0.048865    0.054317    0.059793    0.059945    0.062308    0.062317
     0.066970    0.066985    0.067705    0.068103    0.069538    0.070740
     0.071435    0.073756    0.074077    0.075485    0.075876    0.077173
     0.077261    0.082422    0.082449    0.083310    0.083494    0.084236
     0.084275    0.085310    0.085364    0.086405    0.086747    0.086866
     0.087042    0.088459    0.088543    0.089082    0.089386    0.089717
     0.089958    0.093733    0.093911    0.096627    0.096732    0.111592
     0.111642    0.114655    0.114697    0.115894    0.115924    0.117023
     0.117325    0.117608    0.118729    0.118971    0.122313    0.123625
     0.130670    0.131459    0.131863    0.140800    0.141625    0.159571
     0.161590    0.171124    0.172247    0.173280    0.173395    0.219623
     0.220183    0.228466    0.232087    0.239686    0.241139    0.248494
     0.249058    0.249501    0.254400    0.258394    0.259994    0.267006
     0.267250    0.277650    0.280712    0.283198    0.288833    0.295194
     0.297556    0.302026    0.308237    0.310568    0.312409    0.319454
     0.320456    0.321295    0.321656    0.322058    0.322256    0.322429
     0.322908    0.323082    0.323083    0.323219    0.323471    0.323569
     0.323725    0.324164    0.324305    0.324435    0.324635    0.324666
     0.324879    0.324923    0.324961    0.325236    0.325521    0.326728
     0.326835    0.330188    0.367232    0.369296    0.383230    0.400386
     0.406113    0.416254    0.476321    0.492458    0.520192    0.523290
     0.528913    0.537290    0.928972    0.933748    0.942330    0.996256
     1.022753    1.022753    1.022753    1.022753    1.022753    1.022753
     1.022753    1.022753    1.024354

 Minimum Search - Taking P-RFO Step
 Searching for Lamda that Maximizes Along the Constraint modes Only
 Value Taken    Lamda =   0.00000943
 Searching for Lamda that Minimizes Along All other modes
 Value Taken    Lamda =  -0.07773138
 Calculated Step too Large.  Step scaled by  0.614534
 Step Taken.  Stepsize is  0.300000

                             Maximum     Tolerance    Cnvgd?
         Gradient            0.062248       0.000300      NO
         Displacement        0.085384       0.001200      NO
         Energy change     -0.069055       0.000001      NO


 New Cartesian Coordinates Obtained by Inverse Iteration

 Displacement from previous Coordinates is:  0.951676
 Adding empirical dispersion correction 
 ----------------------------------------------------------------
 Doing -D3(op) with
 s6 =   1.00000
 s8 =   0.78311
 a1 =   0.30000
 a2 =   4.25000
 n  =  10.00000
 -D3 energy without 3body term =     -0.0653607375 hartrees
 ----------------------------------------------------------------
             Standard Nuclear Orientation (Angstroms)
    I     Atom           X                Y                Z
 ----------------------------------------------------------------
    1      O      -5.2784898184     0.8832016211     0.8461177912
    2      C      -4.9336953164     0.5599560254    -0.3087643142
    3      C      -4.0889153570    -0.6737049505    -0.7060682863
    4      C      -2.5456304434    -0.5366925941    -0.4947423055
    5      C      -2.1114832684     0.7624812036     0.2364980458
    6      O      -0.9571067781     0.5043364310     0.9959344975
    7      C      -0.4196602268     1.7272833018     1.5926987462
    8      C       0.7429825993     1.3204284739     2.5452750794
    9      O       1.4116221119     0.1279674360     2.0272893310
   10      C       2.6775124298     0.4092574112     1.4886033435
   11      C       3.1188039357    -0.7420679194     0.5560531731
   12      C       3.1215875954    -0.3636163220    -0.9656297518
   13      C       3.0098155450     1.1581174618    -1.2466438431
   14      O       1.9636796124     1.7657315780    -1.5560602724
   15      O      -5.4145176395     1.2228827803    -1.4441887762
   16      O       4.2114528220     1.8304456524    -1.0085868476
   17      O       3.2888025655     1.4842409220     1.6531152163
   18      C       4.1554991697     3.2531417726    -1.1961816382
   19      C       4.6039020555    -1.2324431260     0.7488135559
   20      C       4.7007466943    -2.7019314022     0.2213363105
   21      C       4.5475263137    -2.4743346766    -1.3112225824
   22      C       4.5441179720    -0.9058515110    -1.3727885511
   23      O       5.3750747515    -0.4995980052    -0.2462419211
   24      H       2.4330755734    -1.5942565896     0.7308616151
   25      H       2.2908355915    -0.8504436316    -1.5102294300
   26      H       4.9748910583    -1.1316973316     1.7880603099
   27      H       5.7258261748    -3.0582935824     0.4302505710
   28      H       3.9810200391    -3.4101052179     0.6669166759
   29      H       5.4319591644    -2.8830261747    -1.8302032665
   30      H       3.6298623048    -2.8989666778    -1.7540238673
   31      H       4.8804138000    -0.5203430806    -2.3560354748
   32      O      -2.4962367368     1.9095112739    -0.0710845789
   33      C      -6.2486609922     2.3591090431    -1.1669727104
   34      C      -4.4081180320    -1.9454488661     0.1651682452
   35      C      -3.9824044577    -3.2170965510    -0.6384909114
   36      C      -2.4329117172    -3.0991036719    -0.5694604952
   37      C      -2.2739784388    -1.8385083821     0.3525163975
   38      O      -3.4263875320    -1.8977583641     1.2406868305
   39      H      -4.3065245654    -0.8800110466    -1.7721861746
   40      H      -1.9982305298    -0.5562992744    -1.4575655343
   41      H      -5.7027805496     3.1353145652    -0.5883318882
   42      H      -5.4621072887    -1.9974124851     0.5036655974
   43      H      -4.3029088287    -4.1034478080    -0.0617354241
   44      H      -4.4054649438    -3.2795093371    -1.6558084318
   45      H      -2.0217945728    -3.9914449891    -0.0656657881
   46      H      -1.9331822588    -2.9665863067    -1.5446945548
   47      H      -1.2943626567    -1.8458176883     0.8696328505
   48      H      -7.1591820012     2.0694966792    -0.5985156031
   49      H      -6.5545870521     2.7865629692    -2.1413683243
   50      H       5.1651994388     3.6501597781    -0.9765584825
   51      H       3.4242969054     3.7264084082    -0.5056380435
   52      H       3.8814249768     3.5197308157    -2.2401633111
   53      H       1.4091501165     2.1850311040     2.7545739212
   54      H       0.3028654650     1.0078349170     3.5173041845
   55      H      -1.1772806910     2.3293150687     2.1406695354
   56      H      -0.0044916230     2.3541100419     0.7698820671
 ----------------------------------------------------------------
 Molecular Point Group                 C1    NOp =  1
 Largest Abelian Subgroup              C1    NOp =  1
 Nuclear Repulsion Energy =  3144.8249591129 hartrees
 There are      113 alpha and      113 beta electrons
 Applying Cartesian multipole field
    Component          Value
    ---------          -----
     (2,0,0)        1.00000E-12
     (0,2,0)        2.00000E-11
     (0,0,2)       -3.00000E-11
 Nucleus-field energy     =     0.0000000288 hartrees
 Requested basis set is STO-3G
 There are 86 shells and 176 basis functions
 A cutoff of  1.0D-12 yielded   2197 shell pairs
 There are     10438 function pairs
 Smallest overlap matrix eigenvalue = 2.07E-01
 Guess MOs from SCF MO coefficient file
 Reading MOs from coefficient file
 Reading MOs from coefficient file
 A restricted hybrid HF-DFT SCF calculation will be
 performed using Pulay DIIS extrapolation
 Exchange:     0.2000 Hartree-Fock + 0.0800 Slater + 0.7200 B88
 Correlation:  0.1900 VWN1RPA + 0.8100 LYP
 Using SG-1 standard quadrature grid
 Dispersion:   Grimme D3
 SCF converges when DIIS error is below 1.0E-08
 Geometry optimization detected.  Setting ReadMinima to 0
 Setting SaveMinima to 0
 using 48 threads for integral computing
 -------------------------------------------------------
 OpenMP Integral computing Module                
 Release: version 1.0, May 2013, Q-Chem Inc. Pittsburgh 
 -------------------------------------------------------
 -------------------------------------------------------
 OpenMP BLAS3 based DFT computing Module                
 Release: version 1.0, May 2013, Q-Chem Inc. Pittsburgh 
 -------------------------------------------------------
 ---------------------------------------
  Cycle       Energy         DIIS Error
 ---------------------------------------
    1   -1510.1099335544      2.81E-03
    2   -1510.2496385804      8.10E-04
    3   -1510.2444939590      1.37E-03
    4   -1510.2523538571      2.70E-04
    5   -1510.2526764668      6.31E-05
    6   -1510.2526911127      2.96E-05
    7   -1510.2526942390      1.31E-05
    8   -1510.2526949991      2.32E-06
    9   -1510.2526950281      6.50E-07
   10   -1510.2526950294      4.46E-07
   11   -1510.2526950302      1.26E-07
   12   -1510.2526950303      2.65E-08
   13   -1510.2526950305      1.83E-08
   14   -1510.2526950305      9.17E-09 Convergence criterion met
 ---------------------------------------
 SCF time:  CPU 97.33 s  wall 2.03 s
 SCF   energy in the final basis set = -1510.25269503
 Total energy in the final basis set = -1510.25269503
 
 --------------------------------------------------------------
 
                    Orbital Energies (a.u.)
 --------------------------------------------------------------
 
 Alpha MOs
 -- Occupied --
-18.944 -18.941 -18.935 -18.929 -18.896 -18.891 -18.872 -18.870
-18.860 -18.853 -10.105 -10.102 -10.098 -10.093 -10.080 -10.078
-10.066 -10.064 -10.064 -10.063 -10.060 -10.058 -10.041 -10.038
-10.037 -10.032 -10.020 -10.018 -10.016 -10.015  -1.029  -1.021
 -1.018  -1.014  -0.987  -0.985  -0.946  -0.937  -0.934  -0.928
 -0.772  -0.767  -0.734  -0.728  -0.721  -0.711  -0.702  -0.663
 -0.663  -0.623  -0.601  -0.581  -0.551  -0.546  -0.537  -0.534
 -0.522  -0.512  -0.494  -0.482  -0.467  -0.459  -0.450  -0.448
 -0.444  -0.437  -0.435  -0.418  -0.414  -0.412  -0.410  -0.406
 -0.394  -0.384  -0.378  -0.371  -0.369  -0.359  -0.355  -0.349
 -0.347  -0.341  -0.337  -0.336  -0.332  -0.330  -0.323  -0.310
 -0.307  -0.306  -0.304  -0.301  -0.293  -0.283  -0.282  -0.279
 -0.270  -0.259  -0.247  -0.238  -0.237  -0.236  -0.233  -0.183
 -0.175  -0.171  -0.167  -0.155  -0.152  -0.147  -0.145  -0.143
 -0.137
 -- Virtual --
  0.094   0.099   0.107   0.115   0.224   0.242   0.245   0.268
  0.278   0.288   0.305   0.310   0.322   0.327   0.333   0.344
  0.348   0.352   0.357   0.361   0.367   0.374   0.375   0.383
  0.388   0.391   0.396   0.401   0.408   0.410   0.412   0.418
  0.420   0.424   0.428   0.428   0.430   0.435   0.437   0.439
  0.445   0.449   0.450   0.450   0.461   0.463   0.464   0.468
  0.470   0.472   0.473   0.495   0.495   0.507   0.521   0.546
  0.550   0.551   0.555   0.645   0.647   0.662   0.668
 --------------------------------------------------------------
 
          Ground-State Mulliken Net Atomic Charges

     Atom                 Charge (a.u.)
  ----------------------------------------
      1 O                    -0.223850
      2 C                     0.217763
      3 C                    -0.081779
      4 C                    -0.077281
      5 C                     0.218861
      6 O                    -0.172055
      7 C                    -0.042732
      8 C                    -0.045991
      9 O                    -0.171934
     10 C                     0.212293
     11 C                    -0.080658
     12 C                    -0.078177
     13 C                     0.212261
     14 O                    -0.227980
     15 O                    -0.184125
     16 O                    -0.173401
     17 O                    -0.216531
     18 C                    -0.113605
     19 C                     0.031471
     20 C                    -0.143208
     21 C                    -0.145584
     22 C                     0.032580
     23 O                    -0.186649
     24 H                     0.085851
     25 H                     0.086265
     26 H                     0.085019
     27 H                     0.076579
     28 H                     0.073630
     29 H                     0.076864
     30 H                     0.072459
     31 H                     0.083860
     32 O                    -0.215607
     33 C                    -0.115985
     34 C                     0.031424
     35 C                    -0.143920
     36 C                    -0.145586
     37 C                     0.028105
     38 O                    -0.193971
     39 H                     0.084913
     40 H                     0.087996
     41 H                     0.091181
     42 H                     0.085038
     43 H                     0.075768
     44 H                     0.073484
     45 H                     0.074717
     46 H                     0.071165
     47 H                     0.091811
     48 H                     0.085462
     49 H                     0.090116
     50 H                     0.094430
     51 H                     0.089403
     52 H                     0.084818
     53 H                     0.102328
     54 H                     0.087768
     55 H                     0.094710
     56 H                     0.090215
  ----------------------------------------
  Sum of atomic charges =    -0.000000

 -----------------------------------------------------------------
                    Cartesian Multipole Moments
 -----------------------------------------------------------------
    Charge (ESU x 10^10)
                 0.0000
    Dipole Moment (Debye)
         X       0.4589      Y      -1.7439      Z      -1.5179
       Tot       2.3571
    Quadrupole Moments (Debye-Ang)
        XX    -164.5430     XY      -2.3573     YY    -150.7559
        XZ       5.0616     YZ       3.9109     ZZ    -157.6244
    Octopole Moments (Debye-Ang^2)
       XXX    -104.5968    XXY      -0.5523    XYY       6.1908
       YYY      51.5954    XXZ     -61.5170    XYZ     -10.8554
       YYZ      -1.5123    XZZ      23.4347    YZZ      20.5780
       ZZZ      14.5525
    Hexadecapole Moments (Debye-Ang^3)
      XXXX  -13609.0811   XXXY    -189.5654   XXYY   -2580.5327
      XYYY      41.1224   YYYY   -3233.0799   XXXZ     147.1475
      XXYZ    -111.8539   XYYZ     -11.6733   YYYZ     -57.4262
      XXZZ   -2527.1440   XYZZ     -23.6943   YYZZ    -785.6992
      XZZZ     -30.7508   YZZZ      -3.0125   ZZZZ   -1426.0360
 -----------------------------------------------------------------
 Calculating analytic gradient of the SCF energy
 Gradient of SCF Energy
            1           2           3           4           5           6
    1  -0.0011895   0.0083113   0.0046687  -0.0044179  -0.0070849  -0.0018253
    2  -0.0030010  -0.0021325  -0.0014863   0.0112787  -0.0100654   0.0182847
    3  -0.0121148  -0.0252811   0.0260561  -0.0012690   0.0251078  -0.0180341
            7           8           9          10          11          12
    1  -0.0109374   0.0142333   0.0102540  -0.0161187   0.0130309  -0.0014207
    2  -0.0195621   0.0019588   0.0129422  -0.0150928   0.0182054   0.0045597
    3   0.0137306  -0.0280591   0.0012673   0.0130253  -0.0096565   0.0099921
           13          14          15          16          17          18
    1   0.0207292   0.0124482  -0.0164397  -0.0350892  -0.0040553   0.0100006
    2  -0.0139962  -0.0019363   0.0180005   0.0306266  -0.0089200  -0.0246329
    3  -0.0038104   0.0059397   0.0409183  -0.0085839  -0.0050722   0.0051102
           19          20          21          22          23          24
    1   0.0059606  -0.0068540  -0.0005164   0.0074952  -0.0207219   0.0006278
    2   0.0104950   0.0112303   0.0075190   0.0032492  -0.0158841  -0.0031256
    3  -0.0195609  -0.0049048   0.0060011   0.0233091  -0.0020181   0.0008359
           25          26          27          28          29          30
    1  -0.0017928  -0.0045336   0.0036743   0.0008828   0.0042710  -0.0019126
    2   0.0007987  -0.0071834   0.0026905  -0.0032333  -0.0013328   0.0013425
    3  -0.0013757   0.0033424  -0.0016850   0.0011596   0.0036018  -0.0022672
           31          32          33          34          35          36
    1  -0.0058713   0.0118101   0.0132959   0.0206877   0.0060011  -0.0056266
    2  -0.0046747  -0.0094987  -0.0190219   0.0016104   0.0118163   0.0078342
    3  -0.0050159  -0.0080537  -0.0135022   0.0107029   0.0016162   0.0035137
           37          38          39          40          41          42
    1  -0.0250103   0.0029002  -0.0008826   0.0013050   0.0015990  -0.0034698
    2   0.0034181  -0.0003247  -0.0007993   0.0001268  -0.0002872  -0.0030540
    3   0.0083969  -0.0262385  -0.0017513  -0.0007830  -0.0006232  -0.0080618
           43          44          45          46          47          48
    1   0.0019386  -0.0015728  -0.0035919   0.0023550   0.0047092  -0.0002139
    2  -0.0005564  -0.0022195  -0.0028961   0.0009854  -0.0057205  -0.0016100
    3   0.0045270  -0.0014010   0.0028277  -0.0009594  -0.0073495  -0.0007864
           49          50          51          52          53          54
    1  -0.0011296  -0.0000461   0.0001479   0.0007731  -0.0051527  -0.0002944
    2   0.0015416   0.0020972  -0.0009978  -0.0014938   0.0030989  -0.0002611
    3   0.0003417  -0.0003596   0.0012271  -0.0007645   0.0071561  -0.0002726
           55          56
    1   0.0014821   0.0021790
    2   0.0023424  -0.0030527
    3   0.0009204  -0.0010117
 Max gradient component =       4.092E-02
 RMS gradient           =       1.056E-02
 Gradient time:  CPU 29.99 s  wall 0.63 s
 Geometry Optimization Parameters
   NAtoms,    NIC,     NZ,  NCons,   NDum,   NFix, NCnnct, MaxDiis
       56     458       0       9       0       0       0       0

 Cartesian Hessian Update
 Hessian Updated using BFGS Update


** CONSTRAINED OPTIMIZATION IN DELOCALIZED INTERNAL COORDINATES **
   Searching for a Minimum

   Optimization Cycle:   3

                       Coordinates (Angstroms)
     ATOM                X               Y               Z
      1  O        -5.2784898184    0.8832016211    0.8461177912
      2  C        -4.9336953164    0.5599560254   -0.3087643142
      3  C        -4.0889153570   -0.6737049505   -0.7060682863
      4  C        -2.5456304434   -0.5366925941   -0.4947423055
      5  C        -2.1114832684    0.7624812036    0.2364980458
      6  O        -0.9571067781    0.5043364310    0.9959344975
      7  C        -0.4196602268    1.7272833018    1.5926987462
      8  C         0.7429825993    1.3204284739    2.5452750794
      9  O         1.4116221119    0.1279674360    2.0272893310
     10  C         2.6775124298    0.4092574112    1.4886033435
     11  C         3.1188039357   -0.7420679194    0.5560531731
     12  C         3.1215875954   -0.3636163220   -0.9656297518
     13  C         3.0098155450    1.1581174618   -1.2466438431
     14  O         1.9636796124    1.7657315780   -1.5560602724
     15  O        -5.4145176395    1.2228827803   -1.4441887762
     16  O         4.2114528220    1.8304456524   -1.0085868476
     17  O         3.2888025655    1.4842409220    1.6531152163
     18  C         4.1554991697    3.2531417726   -1.1961816382
     19  C         4.6039020555   -1.2324431260    0.7488135559
     20  C         4.7007466943   -2.7019314022    0.2213363105
     21  C         4.5475263137   -2.4743346766   -1.3112225824
     22  C         4.5441179720   -0.9058515110   -1.3727885511
     23  O         5.3750747515   -0.4995980052   -0.2462419211
     24  H         2.4330755734   -1.5942565896    0.7308616151
     25  H         2.2908355915   -0.8504436316   -1.5102294300
     26  H         4.9748910583   -1.1316973316    1.7880603099
     27  H         5.7258261748   -3.0582935824    0.4302505710
     28  H         3.9810200391   -3.4101052179    0.6669166759
     29  H         5.4319591644   -2.8830261747   -1.8302032665
     30  H         3.6298623048   -2.8989666778   -1.7540238673
     31  H         4.8804138000   -0.5203430806   -2.3560354748
     32  O        -2.4962367368    1.9095112739   -0.0710845789
     33  C        -6.2486609922    2.3591090431   -1.1669727104
     34  C        -4.4081180320   -1.9454488661    0.1651682452
     35  C        -3.9824044577   -3.2170965510   -0.6384909114
     36  C        -2.4329117172   -3.0991036719   -0.5694604952
     37  C        -2.2739784388   -1.8385083821    0.3525163975
     38  O        -3.4263875320   -1.8977583641    1.2406868305
     39  H        -4.3065245654   -0.8800110466   -1.7721861746
     40  H        -1.9982305298   -0.5562992744   -1.4575655343
     41  H        -5.7027805496    3.1353145652   -0.5883318882
     42  H        -5.4621072887   -1.9974124851    0.5036655974
     43  H        -4.3029088287   -4.1034478080   -0.0617354241
     44  H        -4.4054649438   -3.2795093371   -1.6558084318
     45  H        -2.0217945728   -3.9914449891   -0.0656657881
     46  H        -1.9331822588   -2.9665863067   -1.5446945548
     47  H        -1.2943626567   -1.8458176883    0.8696328505
     48  H        -7.1591820012    2.0694966792   -0.5985156031
     49  H        -6.5545870521    2.7865629692   -2.1413683243
     50  H         5.1651994388    3.6501597781   -0.9765584825
     51  H         3.4242969054    3.7264084082   -0.5056380435
     52  H         3.8814249768    3.5197308157   -2.2401633111
     53  H         1.4091501165    2.1850311040    2.7545739212
     54  H         0.3028654650    1.0078349170    3.5173041845
     55  H        -1.1772806910    2.3293150687    2.1406695354
     56  H        -0.0044916230    2.3541100419    0.7698820671
   Point Group: c1    Number of degrees of freedom:   162


   Energy is  -1510.252695030

              Constraints and their Current Values
                                        Value     Constraint
   Dihedral:        1   2   3   4      -79.368      -79.360
   Dihedral:        3   4   5   6      148.251      148.240
   Dihedral:        4   5   6   7      173.875      173.877
   Dihedral:        5   6   7   8      173.269      173.269
   Dihedral:        6   7   8   9       31.827       31.843
   Dihedral:        7   8   9  10      107.144      107.136
   Dihedral:        8   9  10  11     -161.042     -161.050
   Dihedral:        9  10  11  12      109.317      109.318
   Dihedral:       11  12  13  14      -99.029      -99.030
 Hessian Updated using BFGS Update

   Using Lagrange Multiplier Algorithm


162 Hessian modes will be used to form the next step
  Hessian Eigenvalues:
    -0.977753   -0.977753   -0.977753   -0.977753   -0.977753   -0.977753
    -0.977753   -0.977748   -0.977592    0.044923    0.045000    0.045000
     0.045123    0.045184    0.045219    0.045554    0.045581    0.046895
     0.048851    0.048864    0.054128    0.059324    0.059932    0.062295
     0.062315    0.066968    0.066986    0.067691    0.068091    0.069503
     0.070688    0.071344    0.073734    0.074062    0.075487    0.075871
     0.076944    0.077262    0.082428    0.082453    0.083285    0.083496
     0.084244    0.084281    0.085306    0.085367    0.086237    0.086752
     0.086872    0.087046    0.088365    0.088543    0.089083    0.089387
     0.089718    0.089959    0.093721    0.093879    0.096630    0.096732
     0.111591    0.111645    0.114653    0.114693    0.115893    0.115923
     0.117034    0.117307    0.117581    0.118689    0.118941    0.122296
     0.123539    0.130592    0.131460    0.131874    0.140695    0.141551
     0.159846    0.160009    0.161474    0.171364    0.172506    0.173306
     0.173450    0.219762    0.221474    0.230974    0.239337    0.240827
     0.244043    0.248728    0.249281    0.249620    0.252370    0.254440
     0.258439    0.259853    0.266998    0.267235    0.277647    0.280775
     0.283197    0.289001    0.295203    0.297600    0.302294    0.308156
     0.310452    0.312323    0.318670    0.320360    0.321256    0.321649
     0.322056    0.322236    0.322425    0.322903    0.323074    0.323084
     0.323210    0.323468    0.323553    0.323691    0.324160    0.324292
     0.324403    0.324607    0.324665    0.324879    0.324923    0.324961
     0.325235    0.325520    0.326753    0.326841    0.331424    0.367204
     0.369242    0.383249    0.390960    0.402664    0.406773    0.460761
     0.492456    0.515267    0.522863    0.528327    0.536604    0.929173
     0.934260    0.942353    1.003739    1.022753    1.022753    1.022753
     1.022753    1.022753    1.022753    1.022753    1.022769    1.025442

 Minimum Search - Taking P-RFO Step
 Searching for Lamda that Maximizes Along the Constraint modes Only
 Value Taken    Lamda =   0.00000248
 Searching for Lamda that Minimizes Along All other modes
 Value Taken    Lamda =  -0.03260147
 Calculated Step too Large.  Step scaled by  0.702061
 Step Taken.  Stepsize is  0.300000

                             Maximum     Tolerance    Cnvgd?
         Gradient            0.030660       0.000300      NO
         Displacement        0.079415       0.001200      NO
         Energy change     -0.037117       0.000001      NO


 New Cartesian Coordinates Obtained by Inverse Iteration

 Displacement from previous Coordinates is:  0.939288
 Adding empirical dispersion correction 
 ----------------------------------------------------------------
 Doing -D3(op) with
 s6 =   1.00000
 s8 =   0.78311
 a1 =   0.30000
 a2 =   4.25000
 n  =  10.00000
 -D3 energy without 3body term =     -0.0655614588 hartrees
 ----------------------------------------------------------------
             Standard Nuclear Orientation (Angstroms)
    I     Atom           X                Y                Z
 ----------------------------------------------------------------
    1      O      -5.2339283697     0.9140975684     0.8394299733
    2      C      -4.9016626240     0.5650266731    -0.3143562830
    3      C      -4.0946023861    -0.7053745976    -0.7214360790
    4      C      -2.5394061098    -0.5932027430    -0.5130344132
    5      C      -2.1078774201     0.7287224461     0.2044561929
    6      O      -0.9485983500     0.4825571098     0.9859378189
    7      C      -0.4261298773     1.7368509843     1.5620780402
    8      C       0.7340725012     1.3423168859     2.5370663793
    9      O       1.4054400771     0.1326465022     2.0313808920
   10      C       2.6890167758     0.4340170109     1.4947435693
   11      C       3.1247828285    -0.7392284969     0.5697877937
   12      C       3.1192383637    -0.3611859306    -0.9631835314
   13      C       2.9785830915     1.1749129723    -1.2222333277
   14      O       1.9205746376     1.7740895178    -1.5204224492
   15      O      -5.3379950357     1.2371998978    -1.4869955617
   16      O       4.2083581479     1.8396582019    -0.9987383652
   17      O       3.2892494482     1.5166445370     1.6703022237
   18      C       4.0724523313     3.2849044760    -1.1783496109
   19      C       4.6227527863    -1.2271776187     0.7552552517
   20      C       4.7101270856    -2.7056780889     0.2246700316
   21      C       4.5409510408    -2.4766526678    -1.3168678872
   22      C       4.5459626982    -0.8990251232    -1.3868458824
   23      O       5.3953962210    -0.4874565783    -0.2564199258
   24      H       2.4367116086    -1.5845624194     0.7541612646
   25      H       2.2887532972    -0.8542625708    -1.5001559561
   26      H       5.0120569501    -1.1011348321     1.7841205446
   27      H       5.7284113969    -3.0790810993     0.4272625340
   28      H       3.9829902376    -3.3994475739     0.6769373799
   29      H       5.4091597087    -2.8906707157    -1.8550237385
   30      H       3.6155298768    -2.8991757542    -1.7411621225
   31      H       4.8874276753    -0.5000435264    -2.3618747106
[...]
     15  O        -5.1392980922    1.3971871859   -1.4760874261
     16  O         3.7646713935    1.8278828322   -1.0223987887
     17  O         3.3598030778    1.3946301294    1.7047878151
     18  C         3.3254094155    3.2283860028   -1.2180706885
     19  C         4.6224920869   -1.3228388098    0.8388063039
     20  C         4.8290510327   -2.7467510934    0.1861263636
     21  C         4.8563136063   -2.3778117899   -1.3441127127
     22  C         4.6487394962   -0.8128212804   -1.2841094819
     23  O         5.3724295332   -0.4142162258   -0.0562880925
     24  H         2.4009151643   -1.7071647604    0.8369327570
     25  H         2.4465283229   -1.2058601328   -1.4847581327
     26  H         4.9823352986   -1.2218814235    1.8810112136
     27  H         5.7856355595   -3.1837538147    0.5137400372
     28  H         4.0154055410   -3.4439207610    0.4423329092
     29  H         5.8297287608   -2.6188236080   -1.7999770421
     30  H         4.0626790934   -2.8819693830   -1.9183863350
     31  H         5.0289547408   -0.2499720234   -2.1579809520
     32  O        -2.5452826146    1.8636349421   -0.0520316456
     33  C        -5.7793369063    2.6689064717   -1.0718155580
     34  C        -4.4495068381   -1.9341588243    0.0993617372
     35  C        -3.9903215660   -3.2348519006   -0.6708025040
     36  C        -2.4324310070   -3.1810059246   -0.4548605172
     37  C        -2.2885154513   -1.8637888557    0.4046411635
     38  O        -3.5101789619   -1.8571274756    1.2416909474
     39  H        -4.2977194307   -0.8308520187   -1.8534224913
     40  H        -1.9480578671   -0.7295569968   -1.4979239627
     41  H        -5.0953749907    3.2805079821   -0.4484196379
     42  H        -5.4958011872   -1.9407843073    0.4615379937
     43  H        -4.4318926095   -4.1325502465   -0.2094211848
     44  H        -4.2747211517   -3.2087203779   -1.7348541093
     45  H        -2.0739620284   -4.0525145574    0.1155972598
     46  H        -1.8712090669   -3.1234950800   -1.4011725085
     47  H        -1.3801522158   -1.7936856008    1.0333197019
     48  H        -6.7160590513    2.4949172592   -0.5032934648
     49  H        -6.0093843319    3.2086571978   -2.0088404428
     50  H         4.2328120128    3.8495438274   -1.1068204804
     51  H         2.5787181885    3.5262638298   -0.4535779584
     52  H         2.8837328815    3.3838941459   -2.2236103820
     53  H         1.5583645568    2.1527084150    2.5486105278
     54  H         0.3417986358    1.1779443493    3.4835007511
     55  H        -1.1294950013    2.3702893752    1.9448843655
     56  H         0.0867173104    2.3407800864    0.6141440568
   Point Group: c1    Number of degrees of freedom:   162


   Energy is  -1510.279322301

              Constraints and their Current Values
                                        Value     Constraint
   Dihedral:        1   2   3   4      -79.360      -79.360
   Dihedral:        3   4   5   6      148.240      148.240
   Dihedral:        4   5   6   7      173.877      173.877
   Dihedral:        5   6   7   8      173.269      173.269
   Dihedral:        6   7   8   9       31.843       31.843
   Dihedral:        7   8   9  10      107.136      107.136
   Dihedral:        8   9  10  11     -161.050     -161.050
   Dihedral:        9  10  11  12      109.318      109.318
   Dihedral:       11  12  13  14      -99.030      -99.030
 Hessian Updated using BFGS Update

153 Hessian modes will be used to form the next step
  Hessian Eigenvalues:
     0.002477    0.005647    0.012094    0.024175    0.045006    0.045011
     0.045041    0.045138    0.045211    0.045345    0.045806    0.048236
     0.051632    0.056488    0.059959    0.061658    0.062420    0.066816
     0.066958    0.067429    0.068015    0.069553    0.070576    0.071494
     0.074012    0.075091    0.075468    0.075796    0.076755    0.077626
     0.082283    0.082399    0.083193    0.083550    0.084229    0.084371
     0.085066    0.085569    0.086052    0.086692    0.086800    0.087235
     0.088538    0.088672    0.089133    0.089496    0.089849    0.090199
     0.093754    0.094291    0.096659    0.096910    0.111613    0.111640
     0.114669    0.114802    0.115903    0.115923    0.117112    0.117390
     0.118061    0.119148    0.119294    0.122383    0.123766    0.131262
     0.131533    0.131984    0.140331    0.145040    0.159987    0.160006
     0.160044    0.160117    0.161215    0.161785    0.171164    0.173261
     0.173404    0.175630    0.220583    0.223468    0.231531    0.238614
     0.241007    0.244529    0.248917    0.249720    0.249769    0.250020
     0.250296    0.251845    0.253650    0.257362    0.259182    0.266849
     0.266989    0.268932    0.277640    0.280766    0.282140    0.289828
     0.295313    0.299190    0.301387    0.305091    0.310016    0.311112
     0.314929    0.320013    0.320719    0.321407    0.321931    0.322064
     0.322317    0.322499    0.322616    0.322986    0.323127    0.323327
     0.323534    0.323706    0.323911    0.324187    0.324358    0.324538
     0.324665    0.324865    0.324935    0.324940    0.325114    0.325509
     0.325953    0.326793    0.327347    0.334866    0.355020    0.367068
     0.368677    0.383560    0.413854    0.420679    0.431205    0.477754
     0.492935    0.521740    0.528788    0.531277    0.579137    0.929561
     0.935440    0.942471    1.023227

 Minimum Search - Taking Simple RFO Step
 Searching for Lamda that Minimizes Along All modes
 Value Taken    Lamda =  -0.00000130
 Step Taken.  Stepsize is  0.010822

                             Maximum     Tolerance    Cnvgd?
         Gradient           0.000068      0.000300     YES
         Displacement       0.005507      0.001200      NO
         Energy change     -0.000001      0.000001     YES

 Final energy is   -1510.27932230075     


 ******************************
 **  OPTIMIZATION CONVERGED  **
 ******************************

                       Coordinates (Angstroms)
     ATOM                X               Y               Z
      1  O        -5.1570426888    0.9303877976    0.8524088720
      2  C        -4.8259913593    0.6208750768   -0.3121723923
      3  C        -4.0678997100   -0.6705039581   -0.7854636859
      4  C        -2.5002505019   -0.6129344969   -0.5463223895
      5  C        -2.0329306082    0.7338938176    0.1127459252
      6  O        -0.8966924582    0.4806274808    0.9374958343
      7  C        -0.3426117459    1.7551720336    1.4572816684
      8  C         0.7810310236    1.3610476822    2.4816570585
      9  O         1.4013467439    0.0920823969    2.0303322267
     10  C         2.7148728142    0.3424658992    1.5038689494
     11  C         3.1098832538   -0.8884777041    0.6226202849
     12  C         3.1260856884   -0.5325590170   -0.9325502190
     13  C         2.6679477294    0.9379362856   -1.2313883357
     14  O         1.5305689461    1.3009691176   -1.6084306944
     15  O        -5.1392980922    1.3971871859   -1.4760874261
     16  O         3.7646713935    1.8278828322   -1.0223987887
     17  O         3.3598030778    1.3946301294    1.7047878151
     18  C         3.3254094155    3.2283860028   -1.2180706885
     19  C         4.6224920869   -1.3228388098    0.8388063039
     20  C         4.8290510327   -2.7467510934    0.1861263636
     21  C         4.8563136063   -2.3778117899   -1.3441127127
     22  C         4.6487394962   -0.8128212804   -1.2841094819
     23  O         5.3724295332   -0.4142162258   -0.0562880925
     24  H         2.4009151643   -1.7071647604    0.8369327570
     25  H         2.4465283229   -1.2058601328   -1.4847581327
     26  H         4.9823352986   -1.2218814235    1.8810112136
     27  H         5.7856355595   -3.1837538147    0.5137400372
     28  H         4.0154055410   -3.4439207610    0.4423329092
     29  H         5.8297287608   -2.6188236080   -1.7999770421
     30  H         4.0626790934   -2.8819693830   -1.9183863350
     31  H         5.0289547408   -0.2499720234   -2.1579809520
     32  O        -2.5452826146    1.8636349421   -0.0520316456
     33  C        -5.7793369063    2.6689064717   -1.0718155580
     34  C        -4.4495068381   -1.9341588243    0.0993617372
     35  C        -3.9903215660   -3.2348519006   -0.6708025040
     36  C        -2.4324310070   -3.1810059246   -0.4548605172
     37  C        -2.2885154513   -1.8637888557    0.4046411635
     38  O        -3.5101789619   -1.8571274756    1.2416909474
     39  H        -4.2977194307   -0.8308520187   -1.8534224913
     40  H        -1.9480578671   -0.7295569968   -1.4979239627
     41  H        -5.0953749907    3.2805079821   -0.4484196379
     42  H        -5.4958011872   -1.9407843073    0.4615379937
     43  H        -4.4318926095   -4.1325502465   -0.2094211848
     44  H        -4.2747211517   -3.2087203779   -1.7348541093
     45  H        -2.0739620284   -4.0525145574    0.1155972598
     46  H        -1.8712090669   -3.1234950800   -1.4011725085
     47  H        -1.3801522158   -1.7936856008    1.0333197019
     48  H        -6.7160590513    2.4949172592   -0.5032934648
     49  H        -6.0093843319    3.2086571978   -2.0088404428
     50  H         4.2328120128    3.8495438274   -1.1068204804
     51  H         2.5787181885    3.5262638298   -0.4535779584
     52  H         2.8837328815    3.3838941459   -2.2236103820
     53  H         1.5583645568    2.1527084150    2.5486105278
     54  H         0.3417986358    1.1779443493    3.4835007511
     55  H        -1.1294950013    2.3702893752    1.9448843655
     56  H         0.0867173104    2.3407800864    0.6141440568

Z-matrix Print:
$molecule
0 1
O 
C  1 1.426672
O  2 1.251388 1 124.226424
C  1 1.483795 2 110.329948 3 -5.400773 0
H  4 1.111445 1 111.389088 2 52.195867 0
H  4 1.112718 1 109.311818 2 -67.470782 0
C  2 1.570575 1 109.106801 3 179.277773 0
H  7 1.106374 2 107.626964 1 -88.847826 0
C  4 1.570749 1 106.263490 2 173.268986 0
H  9 1.109118 4 110.316717 1 -85.508466 0
H  9 1.111511 4 111.152694 1 152.340618 0
O  9 1.482821 4 108.390321 1 31.843028 0
C  12 1.437083 9 110.167639 4 107.135986 0
O  13 1.250341 12 124.000722 9 16.523219 0
C  13 1.564562 12 107.459530 9 -161.050030 0
H  15 1.103999 13 108.177544 12 -13.606459 0
C  7 1.585497 2 112.650813 1 34.436786 0
H  17 1.106921 7 113.595478 2 -35.211932 0
O  17 1.480932 7 103.020401 2 84.744880 0
C  19 1.480941 17 94.992013 7 57.189941 0
H  20 1.107225 19 110.326704 17 -179.780324 0
C  17 1.579404 7 108.626592 2 -165.758900 0
H  22 1.101567 17 110.386483 7 167.428972 0
H  22 1.101719 17 112.177557 7 46.060583 0
C  22 1.573707 17 101.152089 7 -74.447013 0
H  25 1.101690 22 111.542936 17 -117.202080 0
H  25 1.101713 22 112.784425 17 120.157324 0
C  7 1.586829 2 112.848907 1 148.239970 0
H  28 1.104113 7 110.895882 2 121.815854 0
C  28 1.570467 7 113.680291 2 -0.208812 0
O  30 1.249657 28 127.762830 7 -79.359989 0
O  30 1.433708 28 107.822890 7 102.968603 0
C  32 1.479985 30 109.756518 28 -176.392540 0
H  33 1.105562 32 106.139778 30 -179.068204 0
H  33 1.109271 32 111.138768 30 61.835228 0
H  33 1.109476 32 111.736933 30 -59.659961 0
C  15 1.588519 13 112.264637 12 -138.303066 0
H  37 1.107190 15 114.371213 13 36.660545 0
O  37 1.479593 15 103.437432 13 -83.462060 0
C  39 1.479918 37 95.085879 15 -57.150968 0
H  40 1.106804 39 110.493023 37 179.756001 0
C  40 1.579836 39 103.536926 37 -56.143133 0
H  42 1.101561 40 110.399136 39 -82.975640 0
H  42 1.101735 40 112.237941 39 155.576261 0
C  42 1.574322 40 101.125191 39 35.149392 0
H  45 1.101524 42 111.532175 40 -117.750225 0
H  45 1.101683 42 112.776484 40 119.559139 0
C  40 1.587645 39 103.752519 37 56.590142 0
H  48 1.104566 40 111.822649 39 -151.364201 0
C  48 1.568933 40 113.786331 39 86.936130 0
O  50 1.252032 48 126.469029 40 146.836943 0
O  50 1.427755 48 109.391844 40 -32.474993 0
C  52 1.480759 50 110.018598 48 -176.462621 0
H  53 1.105257 52 105.944069 50 -176.389002 0
H  53 1.109221 52 111.747022 50 -56.788777 0
H  53 1.109382 52 111.257308 50 64.795939 0
$end

 
 --------------------------------------------------------------
 
                    Orbital Energies (a.u.)
 --------------------------------------------------------------
 
 Alpha MOs
 -- Occupied --
-18.938 -18.937 -18.934 -18.921 -18.890 -18.883 -18.883 -18.875
-18.874 -18.858 -10.102 -10.100 -10.100 -10.087 -10.075 -10.073
-10.064 -10.062 -10.062 -10.055 -10.054 -10.052 -10.041 -10.040
-10.035 -10.029 -10.023 -10.022 -10.018 -10.017  -1.019  -1.013
 -1.009  -0.996  -0.972  -0.966  -0.944  -0.937  -0.933  -0.922
 -0.766  -0.758  -0.729  -0.721  -0.714  -0.706  -0.695  -0.661
 -0.653  -0.617  -0.596  -0.578  -0.548  -0.542  -0.539  -0.534
 -0.517  -0.507  -0.485  -0.474  -0.460  -0.453  -0.450  -0.445
 -0.442  -0.434  -0.429  -0.415  -0.412  -0.408  -0.402  -0.399
 -0.390  -0.379  -0.374  -0.364  -0.359  -0.355  -0.352  -0.348
 -0.347  -0.341  -0.333  -0.330  -0.328  -0.326  -0.320  -0.310
 -0.308  -0.307  -0.304  -0.300  -0.292  -0.283  -0.280  -0.276
 -0.271  -0.260  -0.253  -0.245  -0.241  -0.236  -0.230  -0.182
 -0.179  -0.171  -0.163  -0.162  -0.154  -0.151  -0.145  -0.140
 -0.139
 -- Virtual --
  0.090   0.096   0.100   0.116   0.212   0.240   0.244   0.249
  0.269   0.281   0.284   0.292   0.306   0.315   0.324   0.333
  0.334   0.340   0.344   0.349   0.358   0.359   0.365   0.369
  0.375   0.380   0.386   0.397   0.400   0.404   0.409   0.413
  0.414   0.414   0.420   0.421   0.427   0.429   0.433   0.433
  0.435   0.439   0.441   0.442   0.450   0.451   0.453   0.463
  0.465   0.471   0.482   0.488   0.491   0.499   0.511   0.533
  0.542   0.549   0.556   0.636   0.640   0.650   0.664
 --------------------------------------------------------------
 
          Ground-State Mulliken Net Atomic Charges

     Atom                 Charge (a.u.)
  ----------------------------------------
      1 O                    -0.217401
      2 C                     0.211713
      3 C                    -0.081027
      4 C                    -0.077406
      5 C                     0.215698
      6 O                    -0.166191
      7 C                    -0.047783
      8 C                    -0.054298
      9 O                    -0.168218
     10 C                     0.205733
     11 C                    -0.077910
     12 C                    -0.078415
     13 C                     0.203118
     14 O                    -0.219134
     15 O                    -0.170766
     16 O                    -0.159242
     17 O                    -0.206638
     18 C                    -0.126211
     19 C                     0.026252
     20 C                    -0.144096
     21 C                    -0.143926
     22 C                     0.026916
     23 O                    -0.182521
     24 H                     0.088538
     25 H                     0.084351
     26 H                     0.084758
     27 H                     0.078588
     28 H                     0.073864
     29 H                     0.078358
     30 H                     0.073172
     31 H                     0.086278
     32 O                    -0.212529
     33 C                    -0.127975
     34 C                     0.025365
     35 C                    -0.144045
     36 C                    -0.144441
     37 C                     0.022490
     38 O                    -0.188897
     39 H                     0.084141
     40 H                     0.086854
     41 H                     0.092550
     42 H                     0.084252
     43 H                     0.076970
     44 H                     0.072890
     45 H                     0.076484
     46 H                     0.071830
     47 H                     0.093433
     48 H                     0.085876
     49 H                     0.086852
     50 H                     0.094210
     51 H                     0.086499
     52 H                     0.089023
     53 H                     0.101033
     54 H                     0.088923
     55 H                     0.094327
     56 H                     0.087728
  ----------------------------------------
  Sum of atomic charges =    -0.000000

 -----------------------------------------------------------------
                    Cartesian Multipole Moments
 -----------------------------------------------------------------
    Charge (ESU x 10^10)
                -0.0000
    Dipole Moment (Debye)
         X       0.9575      Y      -1.4952      Z      -1.8175
       Tot       2.5408
    Quadrupole Moments (Debye-Ang)
        XX    -168.8396     XY      -3.7709     YY    -147.9453
        XZ       3.7355     YZ       3.0201     ZZ    -158.7892
    Octopole Moments (Debye-Ang^2)
       XXX     -78.7688    XXY     -17.4480    XYY       3.2931
       YYY      63.5650    XXZ     -57.7082    XYZ     -13.1275
       YYZ      -5.7898    XZZ      25.0480    YZZ      21.1926
       ZZZ      13.6912
    Hexadecapole Moments (Debye-Ang^3)
      XXXX  -13202.2629   XXXY     -92.8541   XXYY   -2516.6727
      XYYY     164.2146   YYYY   -3248.9776   XXXZ      23.9834
      XXYZ     -80.6755   XYYZ     -23.1728   YYYZ     -58.0215
      XXZZ   -2435.4409   XYZZ      29.9858   YYZZ    -788.0647
      XZZZ     -77.3024   YZZZ       2.5651   ZZZZ   -1410.7612
 -----------------------------------------------------------------
Archival summary:
1\1\vega02.cac.cornell.edu\OPT\ProcedureUnspecified\STO-3G\102026\jj585\MonJan1516:48:572018MonJan1516:48:572018\0\\#,OPT,ProcedureUnspecified,STO-3G,\\0,1\O\C,1,1.42667\O,2,1.25139,1,124.226\C,1,1.48379,2,110.33,3,-5.40077,0\H,4,1.11145,1,111.389,2,52.1959,0\H,4,1.11272,1,109.312,2,-67.4708,0\C,2,1.57057,1,109.107,3,179.278,0\H,7,1.10637,2,107.627,1,-88.8478,0\C,4,1.57075,1,106.263,2,173.269,0\H,9,1.10912,4,110.317,1,-85.5085,0\H,9,1.11151,4,111.153,1,152.341,0\O,9,1.48282,4,108.39,1,31.843,0\C,12,1.43708,9,110.168,4,107.136,0\O,13,1.25034,12,124.001,9,16.5232,0\C,13,1.56456,12,107.46,9,-161.05,0\H,15,1.104,13,108.178,12,-13.6065,0\C,7,1.5855,2,112.651,1,34.4368,0\H,17,1.10692,7,113.595,2,-35.2119,0\O,17,1.48093,7,103.02,2,84.7449,0\C,19,1.48094,17,94.992,7,57.1899,0\H,20,1.10723,19,110.327,17,-179.78,0\C,17,1.5794,7,108.627,2,-165.759,0\H,22,1.10157,17,110.386,7,167.429,0\H,22,1.10172,17,112.178,7,46.0606,0\C,22,1.57371,17,101.152,7,-74.447,0\H,25,1.10169,22,111.543,17,-117.202,0\H,25,1.10171,22,112.784,17,120.157,0\C,7,1.58683,2,112.849,1,148.24,0\H,28,1.10411,7,110.896,2,121.816,0\C,28,1.57047,7,113.68,2,-0.208812,0\O,30,1.24966,28,127.763,7,-79.36,0\O,30,1.43371,28,107.823,7,102.969,0\C,32,1.47998,30,109.757,28,-176.393,0\H,33,1.10556,32,106.14,30,-179.068,0\H,33,1.10927,32,111.139,30,61.8352,0\H,33,1.10948,32,111.737,30,-59.66,0\C,15,1.58852,13,112.265,12,-138.303,0\H,37,1.10719,15,114.371,13,36.6605,0\O,37,1.47959,15,103.437,13,-83.4621,0\C,39,1.47992,37,95.0859,15,-57.151,0\H,40,1.1068,39,110.493,37,179.756,0\C,40,1.57984,39,103.537,37,-56.1431,0\H,42,1.10156,40,110.399,39,-82.9756,0\H,42,1.10174,40,112.238,39,155.576,0\C,42,1.57432,40,101.125,39,35.1494,0\H,45,1.10152,42,111.532,40,-117.75,0\H,45,1.10168,42,112.776,40,119.559,0\C,40,1.58764,39,103.753,37,56.5901,0\H,48,1.10457,40,111.823,39,-151.364,0\C,48,1.56893,40,113.786,39,86.9361,0\O,50,1.25203,48,126.469,40,146.837,0\O,50,1.42775,48,109.392,40,-32.475,0\C,52,1.48076,50,110.019,48,-176.463,0\H,53,1.10526,52,105.944,50,-176.389,0\H,53,1.10922,52,111.747,50,-56.7888,0\H,53,1.10938,52,111.257,50,64.7959,0\\\@

 Total job time:  52.37s(wall), 2490.97s(cpu) 
 Mon Jan 15 16:48:57 2018

        *************************************************************
        *                                                           *
        *  Thank you very much for using Q-Chem.  Have a nice day.  *
        *                                                           *
        *************************************************************


0 sent ACK to 0 
now end server 0 ... 
