mFile = /opt/software/qchem/qchem-5.0.1//bin/mpi/machines
Process 0 of 1 is on vega02.cac.cornell.edu - thread support 0
initial socket setup ...start
initial socket setup ...done 
now start server 0 ... 
vega02.cac.cornell.edu 10.84.3
Q-Chem Developer Version! Running on 10.84.3.*
                  Welcome to Q-Chem
     A Quantum Leap Into The Future Of Chemistry


 Q-Chem 5.0, Q-Chem, Inc., Pleasanton, CA (2017)

 Yihan Shao,  Zhengting Gan,  E. Epifanovsky,  A. T. B. Gilbert,  M. Wormit,  
 J. Kussmann,  A. W. Lange,  A. Behn,  Jia Deng,  Xintian Feng,  D. Ghosh,  
 M. Goldey,  P. R. Horn,  L. D. Jacobson,  I. Kaliman,  T. Kus,  A. Landau,  
 Jie Liu,  E. I. Proynov,  R. M. Richard,  R. P. Steele,  E. J. Sundstrom,  
 H. L. Woodcock III,  P. M. Zimmerman,  D. Zuev,  B. Albrecht,  E. Alguire,  
 S. A. Baeppler,  Z. Benda,  Y. A. Bernard,  E. J. Berquist,  K. B. Bravaya,  
 D. Casanova,  Chun-Min Chang,  Yunqing Chen,  A. Chien,  K. D. Closser,  
 M. P. Coons,  S. Dasgupta,  M. Diedenhofen,  Hainam Do,  R. G. Edgar,  
 Po-Tung Fang,  S. Fatehi,  Qingguo Feng,  Qinghui Ge,  A. Ghysels,  
 J. Gomes,  J. Gonthier,  A. Gunina,  M. W. D. Hanson-Heine,  
 P. H. P. Harbach,  A. W. Hauser,  J. E. Herr,  E. G. Hohenstein,  
 Z. C. Holden,  Kerwin Hui,  T.-C. Jagau,  Hyunjun Ji,  B. Kaduk,  
 K. Khistyaev,  Jaehoon Kim,  P. Klunzinger,  K. Koh,  D. Kosenkov,  
 T. Kowalczyk,  C. M. Krauter,  A. Kunitsa,  Ka Un Lao,  A. Laurent,  
 K. V. Lawler,  Joonho Lee,  D. Lefrancois,  S. Lehtola,  D. S. Levine,  
 Yi-Pei Li,  You-Sheng Lin,  Fenglai Liu,  E. Livshits,  A. Luenser,  
 P. Manohar,  E. Mansoor,  S. F. Manzer,  Shan-Ping Mao,  Yuezhi Mao,  
 N. Mardirossian,  A. V. Marenich,  L. A. Martinez-Martinez,  S. A. Maurer,  
 N. J. Mayhall,  S. C. McKenzie,  J.-M. Mewes,  A. F. Morrison,  K. Nanda,  
 T. S. Nguyen-Beck,  R. Olivares-Amaya,  J. A. Parkhill,  T. M. Perrine,  
 F. Plasser,  S. Prager,  A. Prociuk,  D. R. Rehn,  F. Rob,  M. Schneider,  
 N. Sergueev,  S. M. Sharada,  S. Sharma,  D. W. Small,  T. Stauch,  
 T. Stein,  Yu-Chuan Su,  A. J. W. Thom,  T. Tsuchimochi,  L. Vogt,  
 O. Vydrov,  M. A. Watson,  J. Wenzel,  M. de Wergifosse,  T. A. Wesolowski,  
 A. White,  J. Witte,  A. Yamada,  Jun Yang,  K. Yao,  S. Yeganeh,  
 S. R. Yost,  Zhi-Qiang You,  A. Zech,  Igor Ying Zhang,  Xing Zhang,  
 Yan Zhao,  Ying Zhu,  B. R. Brooks,  G. K. L. Chan,  C. J. Cramer,  
 M. S. Gordon,  W. J. Hehre,  A. Klamt,  M. W. Schmidt,  C. D. Sherrill,  
 D. G. Truhlar,  A. Aspuru-Guzik,  R. Baer,  A. T. Bell,  N. A. Besley,  
 Jeng-Da Chai,  A. Dreuw,  B. D. Dunietz,  T. R. Furlani,  Chao-Ping Hsu,  
 Yousung Jung,  Jing Kong,  D. S. Lambrecht,  WanZhen Liang,  C. Ochsenfeld,  
 V. A. Rassolov,  L. V. Slipchenko,  J. E. Subotnik,  T. Van Voorhis,  
 J. M. Herbert,  A. I. Krylov,  P. M. W. Gill,  M. Head-Gordon

 Contributors to earlier versions of Q-Chem not listed above: 
 R. D. Adamson,  B. Austin,  J. Baker,  G. J. O. Beran,  K. Brandhorst,  
 S. T. Brown,  E. F. C. Byrd,  A. K. Chakraborty,  C.-L. Cheng,  
 Siu Hung Chien,  D. M. Chipman,  D. L. Crittenden,  H. Dachsel,  
 R. A. DiStasio Jr.,  R. J. Doerksen,  A. D. Dutoi,  L. Fusti-Molnar,  
 W. A. Goddard III,  A. Golubeva-Zadorozhnaya,  S. R. Gwaltney,  G. Hawkins,  
 A. Heyden,  S. Hirata,  G. Kedziora,  F. J. Keil,  C. Kelley,  Jihan Kim,  
 R. A. King,  R. Z. Khaliullin,  P. P. Korambath,  W. Kurlancheek,  
 A. M. Lee,  M. S. Lee,  S. V. Levchenko,  Ching Yeh Lin,  D. Liotard,  
 R. C. Lochan,  I. Lotan,  P. E. Maslen,  N. Nair,  D. P. O'Neill,  
 D. Neuhauser,  E. Neuscamman,  C. M. Oana,  R. Olson,  B. Peters,  
 R. Peverati,  P. A. Pieniazek,  Y. M. Rhee,  J. Ritchie,  M. A. Rohrdanz,  
 E. Rosta,  N. J. Russ,  H. F. Schaefer III,  N. E. Schultz,  N. Shenvi,  
 A. C. Simmonett,  A. Sodt,  D. Stuck,  K. S. Thanthiriwatte,  V. Vanovschi,  
 Tao Wang,  A. Warshel,  C. F. Williams,  Q. Wu,  X. Xu,  W. Zhang

 Please cite Q-Chem as follows:
 Y. Shao et al., Mol. Phys. 113, 184-215 (2015)
 DOI: 10.1080/00268976.2014.952696

 Q-Chem 5.0.1 for Intel X86 EM64T Linux

 Parts of Q-Chem use Armadillo 5.200.1 (Boston Tea Smuggler).
 http://arma.sourceforge.net/

 Q-Chem begins on Mon Jan 15 18:24:21 2018  

Host: vega02.cac.cornell.edu
0

     Scratch files written to /scratch/jj585/SOT1001/0878c.save//
 Parallel job on  1  processors

Checking the input file for inconsistencies... 	...done.

--------------------------------------------------------------
User input:
--------------------------------------------------------------
$molecule
0  1
O -3.94934 -3.66094 2.70899
C -3.26408 -4.56952 2.26188
C -3.36658 -6.02376 2.66595
C -2.29141 -6.56464 3.62267
C -1.33708 -5.54788 4.2088
O -0.6771 -6.09113 5.27405
C 0.30705 -5.21477 5.83324
C -0.26309 -4.4917 7.04907
O -1.67855 -4.30745 6.88966
C -2.43128 -4.60264 7.97843
C -3.9129 -4.45242 7.72768
C -4.73376 -5.73749 7.90951
C -4.0396 -6.86655 8.6444
O -3.27018 -7.6724 8.14125
O -2.29067 -4.27402 1.35975
O -4.35503 -7.04707 9.95802
O -1.98018 -4.91936 9.07355
C -3.82803 -8.03575 10.76267
C -4.61272 -3.4872 8.69828
C -5.87784 -2.93526 8.04495
C -6.74933 -4.17408 8.03337
C -5.85154 -5.14788 8.80949
O -5.13757 -4.32167 9.69744
H -4.03623 -4.06429 6.68968
H -5.19257 -6.15936 6.99518
H -3.95736 -2.65777 9.0433
H -6.3134 -2.19829 8.75747
H -5.73609 -2.44744 7.05653
H -7.67995 -3.95115 8.60101
H -7.00108 -4.56976 7.02552
H -6.47733 -5.93997 9.27719
O -1.24482 -4.37375 3.87247
C -2.03353 -3.00614 0.88164
C -4.64005 -6.28218 3.49363
C -5.02733 -7.75826 3.42812
C -3.94826 -8.36672 4.29173
C -3.21076 -7.10274 4.74165
O -4.21656 -6.12793 4.81771
H -3.454 -6.60828 1.72278
H -1.67593 -7.37849 3.17991
H -1.75222 -2.33104 1.71799
H -5.50556 -5.65727 3.18095
H -6.00418 -7.8703 3.9513
H -5.10896 -8.17664 2.40191
H -4.4338 -8.85646 5.16557
H -3.27407 -9.08619 3.77881
H -2.67558 -7.31756 5.68807
H -2.92874 -2.6052 0.35996
H -1.19101 -3.05291 0.16164
H -4.25935 -7.94432 11.78051
H -2.72457 -7.92521 10.83014
H -4.08193 -9.03746 10.35489
H -0.0286 -5.15795 7.90914
H 0.2668 -3.52986 7.21815
H 0.64727 -4.43653 5.11269
H 1.24235 -5.76132 6.07959
$end

$opt
CONSTRAINT
tors           1           2           3           4    -102.851
tors           3           4           5           6    +164.614
tors           4           5           6           7    +176.362
tors           5           6           7           8     +97.789
tors           6           7           8           9     -30.584
tors           7           8           9          10    +134.770
tors           8           9          10          11    -177.246
tors           9          10          11          12    +119.375
tors          11          12          13          14     -83.237
ENDCONSTRAINT
$end

$rem
JOBTYPE                   OPT
METHOD                    B3LYP
DFT_D                     d3_op
BASIS                     STO-3G
GEOM_OPT_MAX_CYCLES       100
GEOM_OPT_TOL_GRADIENT     300
GEOM_OPT_TOL_DISPLACEMENT 1200
GEOM_OPT_TOL_ENERGY       100
SYMMETRY                  False
THRESH                    12
SCF_CONVERGENCE           8
MAX_SUB_FILE_NUM          128
MEM_STATIC                400
MEM_TOTAL                 4000
$end
--------------------------------------------------------------
 Adding empirical dispersion correction 
 ----------------------------------------------------------------
 Doing -D3(op) with
 s6 =   1.00000
 s8 =   0.78311
 a1 =   0.30000
 a2 =   4.25000
 n  =  10.00000
 -D3 energy without 3body term =     -0.0716439081 hartrees
 ----------------------------------------------------------------
             Standard Nuclear Orientation (Angstroms)
    I     Atom           X                Y                Z
 ----------------------------------------------------------------
    1      O      -3.1744161393    -1.3556856269     1.6359436314
    2      C      -3.7034515754    -0.9292001484     0.6194605376
    3      C      -3.1484140707    -1.0685931034    -0.7809307523
    4      C      -2.4780790605     0.1700572708    -1.3975757768
    5      C      -2.2790968722     1.3561874840    -0.4801902366
    6      O      -1.3901460718     2.2302556637    -1.0380638935
    7      C      -1.2116086684     3.4218998682    -0.2651732067
    8      C       0.0386768012     3.3046274120     0.6003704658
    9      O       0.2591473341     1.9312206965     0.9581879611
   10      C       1.5365870424     1.4936720659     0.8322566723
   11      C       1.6912548801     0.0274890080     1.1594027196
   12      C       2.2157212526    -0.8411263611     0.0067013020
   13      C       2.8358470309    -0.0922579050    -1.1557693238
   14      O       2.2200775141     0.4094590998    -2.0851073843
   15      O      -4.8633500776    -0.2281583710     0.7283719968
   16      O       4.1965409361    -0.0367663558    -1.2115711522
   17      O       2.4898969286     2.2018789015     0.5277342239
   18      C       4.9159704537     0.5880484148    -2.2089208585
   19      C       2.7194544919    -0.2571510112     2.2663117757
   20      C       2.3906124907    -1.5887809107     2.9376024846
   21      C       2.7396334305    -2.5558700359     1.8252954602
   22      C       3.3279988190    -1.5845377459     0.7923311188
   23      O       3.9003422634    -0.5616365127     1.5713865572
   24      H       0.6952067270    -0.3445763899     1.4951922403
   25      H       1.5087026163    -1.5848824884    -0.4073418515
   26      H       2.7884631525     0.5551514779     3.0225472720
   27      H       3.1210968654    -1.7202233562     3.7680466470
   28      H       1.3591901933    -1.6834938087     3.3403840913
   29      H       3.5178209165    -3.2556859123     2.2029838432
   30      H       1.8835021879    -3.1263574671     1.4042423356
   31      H       4.0244254321    -2.1324159184     0.1195886250
   32      O      -2.7394976633     1.4748966004     0.6485924221
   33      C      -5.5138914047     0.0171718576     1.9195222421
   34      C      -1.9804677542    -2.0726116116    -0.8184694873
   35      C      -1.7937752303    -2.6197095440    -2.2323009054
   36      C      -1.2070358503    -1.4112591258    -2.9220996842
   37      C      -1.1023183848    -0.4437792857    -1.7401535313
   38      O      -0.8460325120    -1.2743419763    -0.6391737549
   39      H      -3.9698271239    -1.4845462589    -1.4063419006
   40      H      -2.9928355194     0.5415859201    -2.3109191521
   41      H      -4.8568882002     0.5970158638     2.6025334911
   42      H      -2.1008893006    -2.9185092039    -0.1061881067
   43      H      -1.0130194337    -3.4124712677    -2.1827485898
   44      H      -2.7122298451    -3.0359121704    -2.6992363825
   45      H      -0.1901080380    -1.6768462336    -3.2888584843
   46      H      -1.8141988177    -0.9936697099    -3.7541023129
   47      H      -0.3242507448     0.3130160461    -1.9640902516
   48      H      -5.8043676805    -0.9409453617     2.4011224678
   49      H      -6.4304623706     0.6086132869     1.7182212649
   50      H       5.9995557387     0.4780810762    -1.9988142965
   51      H       4.6652485893     1.6699792075    -2.2398977947
   52      H       4.6927592428     0.1214473036    -3.1920957264
   53      H       0.8607278041     3.7016205496    -0.0362013092
   54      H      -0.0387107291     3.9615035085     1.4931372932
   55      H      -2.0696753206     3.6241142854     0.4155840176
   56      H      -1.1814433676     4.3237705123    -0.9131783849
 ----------------------------------------------------------------
 Molecular Point Group                 C1    NOp =  1
 Largest Abelian Subgroup              C1    NOp =  1
 Nuclear Repulsion Energy =  3395.1340317269 hartrees
 There are      113 alpha and      113 beta electrons
 Requested basis set is STO-3G
 There are 86 shells and 176 basis functions

 Total QAlloc Memory Limit   4000 MB
 Mega-Array Size       392 MB
 MEM_STATIC part       400 MB
 A cutoff of  1.0D-12 yielded   2625 shell pairs
 There are     12735 function pairs
 
 -------------------------------------------------------
 OpenMP Integral Computing Module                       
 Release: version 1.0, May 2013, Q-Chem Inc. Pittsburgh 
 -------------------------------------------------------
 Integral Job Info:
 Integral job number is                      11
 Integral operator is                         1
 short-range coefficients                     0
 long-range coefficients              100000000
 Omega coefficients                           0
 if combine SR and LR in K                    0
 Integral screening is                        0
 Integral computing path is                   2
 max size of driver memory is            800000
 size of driver memory is                 45569
 size of scratch memory is              1046100
 max col of scratch BK array                289
 max len of scratch array in speh3           22
 max len of scratch index in speh4            8
 max int batch size is                      520
 min int batch size is                       52
 fixed nKL is                                52
 max L of basis functions is                  1
 order of int derivative is                   0
 number of shells is                         86
 number of basis is                         176
 number of cartesian basis is               176
 number of contracted shell pairs          2625
 number of primitive shell pairs          12517
 maxK2 (contraction) of shell pair            9
 max number of K2 of shell pair               1
 max number of CS2 of shell pair            402
 max number of PS2 of shell pair           1254
 mem total for path MDJ                   51530
 -------------------------------------------------------
 Smallest overlap matrix eigenvalue = 1.93E-01

 Scale SEOQF with 1.000000e-02/1.000000e-01/1.000000e-01

 Standard Electronic Orientation quadrupole field applied
 Nucleus-field energy     =    -0.0000000077 hartrees
 Guess from superposition of atomic densities
 Warning:  Energy on first SCF cycle will be non-variational
 A restricted hybrid HF-DFT SCF calculation will be
 performed using Pulay DIIS extrapolation
 Exchange:     0.2000 Hartree-Fock + 0.0800 Slater + 0.7200 B88
 Correlation:  0.1900 VWN1RPA + 0.8100 LYP
 Using SG-1 standard quadrature grid
 Dispersion:   Grimme D3
 SCF converges when DIIS error is below 1.0E-08
 using 48 threads for integral computing
 -------------------------------------------------------
 OpenMP Integral computing Module                
 Release: version 1.0, May 2013, Q-Chem Inc. Pittsburgh 
 -------------------------------------------------------
 -------------------------------------------------------
 OpenMP BLAS3 based DFT computing Module                
 Release: version 1.0, May 2013, Q-Chem Inc. Pittsburgh 
 -------------------------------------------------------
 ---------------------------------------
  Cycle       Energy         DIIS Error
 ---------------------------------------
    1   -1509.4883699006      8.31E-02
    2   -1509.6204681901      1.03E-02
    3   -1507.7629740531      2.43E-02
    4   -1510.1070818472      3.39E-03
    5   -1510.1528192106      1.15E-03
    6   -1510.1584760222      3.03E-04
    7   -1510.1588205680      1.21E-04
    8   -1510.1588820148      2.57E-05
    9   -1510.1588849553      5.01E-06
   10   -1510.1588850697      1.30E-06
   11   -1510.1588850766      5.38E-07
   12   -1510.1588850777      2.70E-07
   13   -1510.1588850779      5.55E-08
   14   -1510.1588850778      1.15E-08
   15   -1510.1588850778      4.62E-09 Convergence criterion met
 ---------------------------------------
 SCF time:  CPU 111.48 s  wall 2.38 s
 SCF   energy in the final basis set = -1510.15888508
 Total energy in the final basis set = -1510.15888508
 
 --------------------------------------------------------------
 
                    Orbital Energies (a.u.)
 --------------------------------------------------------------
 
 Alpha MOs
 -- Occupied --
-18.951 -18.948 -18.919 -18.917 -18.898 -18.889 -18.873 -18.856
-18.843 -18.842 -10.114 -10.106 -10.101 -10.101 -10.082 -10.080
-10.072 -10.071 -10.065 -10.061 -10.060 -10.055 -10.039 -10.036
-10.031 -10.027 -10.014 -10.012 -10.007 -10.006  -1.052  -1.038
 -1.032  -1.030  -1.025  -1.014  -0.956  -0.946  -0.935  -0.934
 -0.781  -0.773  -0.747  -0.736  -0.732  -0.720  -0.711  -0.673
 -0.668  -0.633  -0.606  -0.583  -0.552  -0.544  -0.535  -0.528
 -0.523  -0.515  -0.498  -0.495  -0.481  -0.479  -0.464  -0.446
 -0.442  -0.440  -0.436  -0.424  -0.419  -0.417  -0.416  -0.414
 -0.404  -0.387  -0.386  -0.383  -0.378  -0.368  -0.361  -0.352
 -0.350  -0.344  -0.343  -0.330  -0.327  -0.323  -0.317  -0.315
 -0.309  -0.304  -0.301  -0.297  -0.291  -0.283  -0.283  -0.274
 -0.270  -0.249  -0.240  -0.237  -0.226  -0.214  -0.213  -0.187
 -0.178  -0.161  -0.160  -0.157  -0.151  -0.145  -0.143  -0.130
 -0.130
 -- Virtual --
  0.110   0.113   0.130   0.132   0.232   0.254   0.257   0.275
  0.292   0.308   0.334   0.344   0.346   0.352   0.356   0.363
  0.368   0.380   0.383   0.386   0.394   0.400   0.401   0.406
  0.409   0.412   0.414   0.415   0.420   0.422   0.425   0.435
  0.436   0.437   0.443   0.446   0.450   0.454   0.465   0.465
  0.469   0.471   0.475   0.482   0.486   0.488   0.489   0.491
  0.495   0.498   0.502   0.527   0.543   0.544   0.553   0.566
  0.571   0.582   0.590   0.690   0.693   0.701   0.703
 --------------------------------------------------------------
 
          Ground-State Mulliken Net Atomic Charges

     Atom                 Charge (a.u.)
  ----------------------------------------
      1 O                    -0.239764
      2 C                     0.243157
      3 C                    -0.082982
      4 C                    -0.081696
      5 C                     0.242517
      6 O                    -0.185159
      7 C                    -0.039043
      8 C                    -0.039874
      9 O                    -0.184201
     10 C                     0.234880
     11 C                    -0.083170
     12 C                    -0.082670
     13 C                     0.238361
     14 O                    -0.245877
     15 O                    -0.213439
     16 O                    -0.207531
     17 O                    -0.233055
     18 C                    -0.096111
     19 C                     0.040981
     20 C                    -0.141133
     21 C                    -0.145037
     22 C                     0.043005
     23 O                    -0.208186
     24 H                     0.096292
     25 H                     0.101730
     26 H                     0.082649
     27 H                     0.073175
     28 H                     0.075317
     29 H                     0.073328
     30 H                     0.072303
     31 H                     0.082934
     32 O                    -0.221590
     33 C                    -0.096773
     34 C                     0.042163
     35 C                    -0.143645
     36 C                    -0.143664
     37 C                     0.035321
     38 O                    -0.216154
     39 H                     0.084881
     40 H                     0.087790
     41 H                     0.090606
     42 H                     0.087745
     43 H                     0.072706
     44 H                     0.071424
     45 H                     0.077044
     46 H                     0.071743
     47 H                     0.102944
     48 H                     0.081773
     49 H                     0.089935
     50 H                     0.093808
     51 H                     0.089239
     52 H                     0.082246
     53 H                     0.096921
     54 H                     0.088611
     55 H                     0.092885
     56 H                     0.090338
  ----------------------------------------
  Sum of atomic charges =    -0.000000

 -----------------------------------------------------------------
                    Cartesian Multipole Moments
 -----------------------------------------------------------------
    Charge (ESU x 10^10)
                -0.0000
    Dipole Moment (Debye)
         X      -1.9599      Y       0.0484      Z      -1.4994
       Tot       2.4681
    Quadrupole Moments (Debye-Ang)
        XX    -157.2985     XY      -5.0361     YY    -147.4870
        XZ      -0.3388     YZ       3.4571     ZZ    -157.0136
    Octopole Moments (Debye-Ang^2)
       XXX     -54.7755    XXY      -7.5661    XYY     -13.0149
       YYY      59.0943    XXZ     -28.0908    XYZ      -9.9571
       YYZ      -1.1808    XZZ       3.7897    YZZ       9.2830
       ZZZ      10.9452
    Hexadecapole Moments (Debye-Ang^3)
      XXXX   -7681.9238   XXXY      22.0723   XXYY   -1771.5977
      XYYY     -39.3325   YYYY   -2594.8946   XXXZ    -390.7371
      XXYZ     -10.4233   XYYZ      -7.7711   YYYZ       0.0812
      XXZZ   -1626.9136   XYZZ      -2.2065   YYZZ    -881.5141
      XZZZ     -38.7916   YZZZ      15.1124   ZZZZ   -2495.6356
 -----------------------------------------------------------------
 Calculating analytic gradient of the SCF energy
 Gradient of SCF Energy
            1           2           3           4           5           6
    1  -0.0377006  -0.0100963   0.0470008   0.0164817   0.0089458  -0.0249562
    2   0.0340890  -0.0091761   0.0130442  -0.0082898   0.0223753  -0.0187457
    3  -0.0506493  -0.0309113   0.0265388   0.0424583  -0.0144739   0.0534934
            7           8           9          10          11          12
    1   0.0378390  -0.0345890   0.0658563  -0.0351992   0.0695343  -0.0084942
    2  -0.0323561  -0.0359485   0.0138811   0.0104628   0.0151862   0.0364514
    3  -0.0224367   0.0097786  -0.0171075   0.0006374  -0.0071569  -0.0037459
           13          14          15          16          17          18
    1   0.0006781   0.0556855   0.0370494  -0.0403839  -0.0407133  -0.0047029
    2  -0.0161922  -0.0282423  -0.0297622   0.0602361  -0.0379065  -0.0307385
    3   0.0243452   0.0485010   0.1140293  -0.1024989   0.0186763   0.0480927
           19          20          21          22          23          24
    1   0.0283143   0.0169723   0.0078010  -0.0170959  -0.0821023  -0.0046086
    2  -0.0392509   0.0110460   0.0460397   0.0531914  -0.0319883  -0.0018059
    3  -0.0485970  -0.0499636   0.0023491   0.0485623  -0.0014740   0.0060941
           25          26          27          28          29          30
    1   0.0100468  -0.0099149   0.0109754  -0.0070473   0.0074654  -0.0057051
    2  -0.0101281  -0.0018379  -0.0010335  -0.0026282  -0.0002596  -0.0022723
    3  -0.0020237   0.0083566   0.0020206   0.0036268   0.0110957  -0.0065167
           31          32          33          34          35          36
    1  -0.0059084   0.0243348   0.0062275   0.0397752   0.0095853  -0.0123486
    2  -0.0127864  -0.0094558   0.0027240   0.0614180   0.0483879  -0.0062869
    3  -0.0028524  -0.0483653  -0.0570332  -0.0255467   0.0192228   0.0480421
           37          38          39          40          41          42
    1  -0.0292723  -0.0699953  -0.0030909  -0.0006756   0.0026045  -0.0064530
    2  -0.0541513   0.0003554  -0.0108270   0.0052281   0.0004493  -0.0107916
    3   0.0466895  -0.0597343   0.0021597  -0.0037615  -0.0078328  -0.0078468
           43          44          45          46          47          48
    1   0.0117970  -0.0062615   0.0084455  -0.0053032  -0.0042257   0.0022288
    2  -0.0010789  -0.0028644  -0.0101116   0.0053277  -0.0010198  -0.0013458
    3   0.0018061  -0.0045848   0.0022480  -0.0046955  -0.0138750  -0.0089375
           49          50          51          52          53          54
    1  -0.0012719   0.0015430  -0.0026388  -0.0024468  -0.0104356   0.0002724
    2   0.0004926   0.0017812  -0.0033397  -0.0053729   0.0059296   0.0027637
    3   0.0032082  -0.0029628   0.0078312   0.0070918  -0.0088692  -0.0022519
           55          56
    1   0.0047729  -0.0085954
    2   0.0109443   0.0061895
    3   0.0027760   0.0069737
 Max gradient component =       1.140E-01
 RMS gradient           =       2.860E-02
 Gradient time:  CPU 32.39 s  wall 0.69 s
 Geometry Optimization Parameters
   NAtoms,    NIC,     NZ,  NCons,   NDum,   NFix, NCnnct, MaxDiis
       56     458       0       9       0       0       0       0


** CONSTRAINED OPTIMIZATION IN DELOCALIZED INTERNAL COORDINATES **
   Searching for a Minimum

   Optimization Cycle:   1

                       Coordinates (Angstroms)
     ATOM                X               Y               Z
      1  O        -3.1744161393   -1.3556856269    1.6359436314
      2  C        -3.7034515754   -0.9292001484    0.6194605376
      3  C        -3.1484140707   -1.0685931034   -0.7809307523
      4  C        -2.4780790605    0.1700572708   -1.3975757768
      5  C        -2.2790968722    1.3561874840   -0.4801902366
      6  O        -1.3901460718    2.2302556637   -1.0380638935
      7  C        -1.2116086684    3.4218998682   -0.2651732067
      8  C         0.0386768012    3.3046274120    0.6003704658
      9  O         0.2591473341    1.9312206965    0.9581879611
     10  C         1.5365870424    1.4936720659    0.8322566723
     11  C         1.6912548801    0.0274890080    1.1594027196
     12  C         2.2157212526   -0.8411263611    0.0067013020
     13  C         2.8358470309   -0.0922579050   -1.1557693238
     14  O         2.2200775141    0.4094590998   -2.0851073843
     15  O        -4.8633500776   -0.2281583710    0.7283719968
     16  O         4.1965409361   -0.0367663558   -1.2115711522
     17  O         2.4898969286    2.2018789015    0.5277342239
     18  C         4.9159704537    0.5880484148   -2.2089208585
     19  C         2.7194544919   -0.2571510112    2.2663117757
     20  C         2.3906124907   -1.5887809107    2.9376024846
     21  C         2.7396334305   -2.5558700359    1.8252954602
     22  C         3.3279988190   -1.5845377459    0.7923311188
     23  O         3.9003422634   -0.5616365127    1.5713865572
     24  H         0.6952067270   -0.3445763899    1.4951922403
     25  H         1.5087026163   -1.5848824884   -0.4073418515
     26  H         2.7884631525    0.5551514779    3.0225472720
     27  H         3.1210968654   -1.7202233562    3.7680466470
     28  H         1.3591901933   -1.6834938087    3.3403840913
     29  H         3.5178209165   -3.2556859123    2.2029838432
     30  H         1.8835021879   -3.1263574671    1.4042423356
     31  H         4.0244254321   -2.1324159184    0.1195886250
     32  O        -2.7394976633    1.4748966004    0.6485924221
     33  C        -5.5138914047    0.0171718576    1.9195222421
     34  C        -1.9804677542   -2.0726116116   -0.8184694873
     35  C        -1.7937752303   -2.6197095440   -2.2323009054
     36  C        -1.2070358503   -1.4112591258   -2.9220996842
     37  C        -1.1023183848   -0.4437792857   -1.7401535313
     38  O        -0.8460325120   -1.2743419763   -0.6391737549
     39  H        -3.9698271239   -1.4845462589   -1.4063419006
     40  H        -2.9928355194    0.5415859201   -2.3109191521
     41  H        -4.8568882002    0.5970158638    2.6025334911
     42  H        -2.1008893006   -2.9185092039   -0.1061881067
     43  H        -1.0130194337   -3.4124712677   -2.1827485898
     44  H        -2.7122298451   -3.0359121704   -2.6992363825
     45  H        -0.1901080380   -1.6768462336   -3.2888584843
     46  H        -1.8141988177   -0.9936697099   -3.7541023129
     47  H        -0.3242507448    0.3130160461   -1.9640902516
     48  H        -5.8043676805   -0.9409453617    2.4011224678
     49  H        -6.4304623706    0.6086132869    1.7182212649
     50  H         5.9995557387    0.4780810762   -1.9988142965
     51  H         4.6652485893    1.6699792075   -2.2398977947
     52  H         4.6927592428    0.1214473036   -3.1920957264
     53  H         0.8607278041    3.7016205496   -0.0362013092
     54  H        -0.0387107291    3.9615035085    1.4931372932
     55  H        -2.0696753206    3.6241142854    0.4155840176
     56  H        -1.1814433676    4.3237705123   -0.9131783849
   Point Group: c1    Number of degrees of freedom:   162


   Energy is  -1510.158885078

              Constraints and their Current Values
                                        Value     Constraint
   Dihedral:        1   2   3   4     -102.851     -102.851
   Dihedral:        3   4   5   6      164.614      164.614
   Dihedral:        4   5   6   7      176.362      176.362
   Dihedral:        5   6   7   8       97.790       97.789
   Dihedral:        6   7   8   9      -30.585      -30.584
   Dihedral:        7   8   9  10      134.770      134.770
   Dihedral:        8   9  10  11     -177.246     -177.246
   Dihedral:        9  10  11  12      119.375      119.375
   Dihedral:       11  12  13  14      -83.237      -83.237

 Attempting to Generate Delocalized Internal Coordinates

   Using Lagrange Multiplier Algorithm


167 Hessian modes will be used to form the next step
  Hessian Eigenvalues:
    -0.977753   -0.977753   -0.977753   -0.977753   -0.977753   -0.977753
    -0.977753    0.045000    0.045000    0.045000    0.045000    0.045021
     0.045023    0.045062    0.045174    0.045565    0.045600    0.048885
     0.048903    0.054267    0.060015    0.060072    0.062691    0.062931
     0.066751    0.066815    0.067074    0.067093    0.069479    0.071237
     0.071552    0.073174    0.073396    0.075952    0.076079    0.076690
     0.077059    0.082475    0.082548    0.084195    0.084349    0.084468
     0.084664    0.086029    0.086445    0.086693    0.087061    0.087223
     0.087720    0.088729    0.088747    0.088994    0.089196    0.089680
     0.089805    0.093973    0.094252    0.096630    0.096668    0.111474
     0.111514    0.114641    0.114664    0.115890    0.115921    0.116272
     0.117066    0.117666    0.118283    0.118497    0.121769    0.123433
     0.130235    0.130391    0.130441    0.139348    0.140873    0.160000
     0.160000    0.160000    0.160000    0.160000    0.160000    0.171719
     0.171900    0.172258    0.172955    0.218789    0.220575    0.238624
     0.239972    0.248431    0.249743    0.249820    0.249900    0.250000
     0.250000    0.250000    0.250000    0.250000    0.250000    0.250000
     0.250000    0.258240    0.258688    0.266752    0.267913    0.278862
     0.281932    0.282132    0.282987    0.295046    0.297128    0.298744
     0.308055    0.310698    0.310861    0.313325    0.320729    0.321987
     0.322023    0.322031    0.322647    0.322794    0.322926    0.323222
     0.323317    0.323494    0.323581    0.323917    0.324289    0.324501
     0.324605    0.324711    0.324855    0.324909    0.324917    0.324952
     0.325005    0.325014    0.326799    0.326815    0.327832    0.329667
     0.369982    0.375332    0.385842    0.391453    0.401007    0.407716
     0.492165    0.492463    0.517892    0.523521    0.530155    0.537321
     0.927710    0.932744    0.941950    0.942743    1.022753    1.022753
     1.022753    1.022753    1.022753    1.022753    1.022753

 Minimum Search - Taking P-RFO Step
 Searching for Lamda that Maximizes Along the Constraint modes Only
 Value Taken    Lamda =   0.00127037
 Searching for Lamda that Minimizes Along All other modes
 Value Taken    Lamda =  -0.17200971
 Calculated Step too Large.  Step scaled by  0.514255
 Step Taken.  Stepsize is  0.300000

                             Maximum     Tolerance    Cnvgd?
         Gradient            0.119164       0.000300      NO
         Displacement        0.104301       0.001200      NO
         Energy change     *********       0.000001      NO


 New Cartesian Coordinates Obtained by Inverse Iteration

 Displacement from previous Coordinates is:  2.282224
 Adding empirical dispersion correction 
 ----------------------------------------------------------------
 Doing -D3(op) with
 s6 =   1.00000
 s8 =   0.78311
 a1 =   0.30000
 a2 =   4.25000
 n  =  10.00000
 -D3 energy without 3body term =     -0.0736845216 hartrees
 ----------------------------------------------------------------
             Standard Nuclear Orientation (Angstroms)
    I     Atom           X                Y                Z
 ----------------------------------------------------------------
    1      O      -3.0409730907    -1.3490353737     1.7310234811
    2      C      -3.5878633501    -0.9594363974     0.6887052156
    3      C      -3.0143153522    -1.1056096865    -0.7250059225
    4      C      -2.3856596866     0.1652112973    -1.3634100927
    5      C      -2.2480418225     1.3809273104    -0.4375155457
    6      O      -1.3764466018     2.2915095100    -1.0183497146
    7      C      -1.2336090235     3.5204679056    -0.2716813538
    8      C       0.0450406417     3.4281441265     0.5912642599
    9      O       0.2408368377     2.0368489050     0.9362167024
   10      C       1.5268622235     1.5605531845     0.7967024342
   11      C       1.5959843304     0.0676812796     1.1239271906
   12      C       2.0783402189    -0.8278792951    -0.0480085105
   13      C       2.7300018621    -0.0769896962    -1.2149283003
   14      O       2.1137877448     0.4690754672    -2.1437276417
   15      O      -4.7960541384    -0.2949960854     0.7234020354
   16      O       4.1103872818    -0.1111056994    -1.2330811579
   17      O       2.5123651708     2.2460040360     0.4843753155
   18      C       4.8304674323     0.5213607153    -2.2617131109
   19      C       2.6245333367    -0.2851320635     2.2417467947
   20      C       2.2042128545    -1.6210939319     2.9025723573
   21      C       2.5026614261    -2.6080288185     1.7594437431
   22      C       3.1675544156    -1.6513754554     0.7275752317
   23      O       3.8116205403    -0.6555261940     1.5318845529
   24      H       0.5837055063    -0.2494994569     1.4554809972
   25      H       1.3258373428    -1.5216321303    -0.4669879481
   26      H       2.7472079352     0.5169996202     2.9990428358
   27      H       2.9135927575    -1.8089462167     3.7339628524
   28      H       1.1706552032    -1.6530218190     3.2974861973
   29      H       3.2291337849    -3.3618448194     2.1211058199
   30      H       1.6162176135    -3.1148842862     1.3313837317
   31      H       3.8349903879    -2.2199940008     0.0466378042
   32      O      -2.7290770505     1.5003830326     0.6972500325
   33      C      -5.4474414610    -0.0647357524     1.9478234675
   34      C      -1.7891047483    -2.0738958606    -0.7353794644
   35      C      -1.5784676301    -2.6339454393    -2.1647458209
   36      C      -1.0298924454    -1.3895234105    -2.8801328977
   37      C      -0.9586164194    -0.3917063052    -1.6934062648
   38      O      -0.6643852716    -1.2120440629    -0.5589317271
   39      H      -3.8120553298    -1.5592303615    -1.3498781231
   40      H      -2.9077625541     0.5000515790    -2.2833092068
   41      H      -4.8188080886     0.5560675160     2.6242014218
   42      H      -1.8759535361    -2.9050351155    -0.0044054784
   43      H      -0.7756061749    -3.3966445727    -2.1093957226
   44      H      -2.4781893618    -3.0874307123    -2.6227021783
   45      H      -0.0085804484    -1.6103523014    -3.2487618420
   46      H      -1.6525776951    -1.0080815582    -3.7118672099
   47      H      -0.2120115742     0.3983052016    -1.9119800176
   48      H      -5.6924466676    -1.0221576332     2.4593320984
   49      H      -6.3917988516     0.4793217977     1.7435403461
   50      H       5.9124281206     0.3681741985    -2.0736691330
   51      H       4.6242416060     1.6145277591    -2.2807509684
   52      H       4.5771330974     0.0879311410    -3.2548986731
   53      H       0.8805365278     3.8122330699    -0.0361512847
   54      H      -0.0218502127     4.0845869865     1.4853267620
   55      H      -2.0998644740     3.7091672941     0.4025487049
   56      H      -1.2189098314     4.4060437812    -0.9416464059
 ----------------------------------------------------------------
 Molecular Point Group                 C1    NOp =  1
 Largest Abelian Subgroup              C1    NOp =  1
 Nuclear Repulsion Energy =  3405.8218295434 hartrees
 There are      113 alpha and      113 beta electrons
 Applying Cartesian multipole field
    Component          Value
    ---------          -----
     (2,0,0)        1.00000E-12
     (0,2,0)        2.00000E-11
     (0,0,2)       -3.00000E-11
 Nucleus-field energy     =    -0.0000000055 hartrees
 Requested basis set is STO-3G
 There are 86 shells and 176 basis functions
 A cutoff of  1.0D-12 yielded   2667 shell pairs
 There are     12885 function pairs
 Smallest overlap matrix eigenvalue = 2.02E-01
 Guess MOs from SCF MO coefficient file
 Reading MOs from coefficient file
 Reading MOs from coefficient file
 A restricted hybrid HF-DFT SCF calculation will be
 performed using Pulay DIIS extrapolation
 Exchange:     0.2000 Hartree-Fock + 0.0800 Slater + 0.7200 B88
 Correlation:  0.1900 VWN1RPA + 0.8100 LYP
 Using SG-1 standard quadrature grid
 Dispersion:   Grimme D3
 SCF converges when DIIS error is below 1.0E-08
 Geometry optimization detected.  Setting ReadMinima to 0
 Setting SaveMinima to 0
 using 48 threads for integral computing
 -------------------------------------------------------
 OpenMP Integral computing Module                
 Release: version 1.0, May 2013, Q-Chem Inc. Pittsburgh 
 -------------------------------------------------------
 -------------------------------------------------------
 OpenMP BLAS3 based DFT computing Module                
 Release: version 1.0, May 2013, Q-Chem Inc. Pittsburgh 
 -------------------------------------------------------
 ---------------------------------------
  Cycle       Energy         DIIS Error
 ---------------------------------------
    1   -1510.0463913913      3.88E-03
    2   -1510.2234389632      1.01E-03
    3   -1510.2169162123      1.61E-03
    4   -1510.2276958284      3.38E-04
    5   -1510.2282233903      6.83E-05
    6   -1510.2282424832      2.62E-05
    7   -1510.2282443281      1.67E-05
    8   -1510.2282455601      2.56E-06
    9   -1510.2282455960      5.85E-07
   10   -1510.2282455973      3.43E-07
   11   -1510.2282455979      1.76E-07
   12   -1510.2282455981      3.65E-08
   13   -1510.2282455981      1.09E-08
   14   -1510.2282455981      2.51E-09 Convergence criterion met
 ---------------------------------------
 SCF time:  CPU 108.22 s  wall 2.26 s
 SCF   energy in the final basis set = -1510.22824560
 Total energy in the final basis set = -1510.22824560
 
 --------------------------------------------------------------
 
                    Orbital Energies (a.u.)
 --------------------------------------------------------------
 
 Alpha MOs
 -- Occupied --
-18.945 -18.942 -18.925 -18.922 -18.902 -18.884 -18.874 -18.857
-18.847 -18.846 -10.110 -10.100 -10.097 -10.095 -10.081 -10.078
-10.068 -10.068 -10.064 -10.058 -10.055 -10.049 -10.040 -10.037
-10.024 -10.021 -10.016 -10.013 -10.006 -10.005  -1.039  -1.024
 -1.021  -1.019  -1.009  -0.991  -0.950  -0.938  -0.930  -0.929
 -0.775  -0.762  -0.739  -0.728  -0.721  -0.712  -0.701  -0.668
 -0.662  -0.627  -0.601  -0.579  -0.549  -0.540  -0.536  -0.525
 -0.518  -0.511  -0.493  -0.489  -0.472  -0.472  -0.461  -0.441
 -0.435  -0.432  -0.430  -0.417  -0.413  -0.412  -0.411  -0.408
 -0.398  -0.384  -0.380  -0.377  -0.369  -0.360  -0.358  -0.349
 -0.347  -0.341  -0.337  -0.329  -0.328  -0.324  -0.315  -0.313
 -0.304  -0.301  -0.297  -0.297  -0.288  -0.281  -0.277  -0.272
 -0.266  -0.248  -0.240  -0.239  -0.224  -0.223  -0.217  -0.182
 -0.175  -0.163  -0.162  -0.158  -0.152  -0.145  -0.138  -0.134
 -0.131
 -- Virtual --
  0.105   0.109   0.121   0.126   0.228   0.250   0.255   0.269
  0.286   0.298   0.318   0.334   0.335   0.350   0.351   0.356
  0.358   0.370   0.374   0.376   0.379   0.385   0.394   0.400
  0.403   0.404   0.406   0.409   0.412   0.416   0.423   0.425
  0.431   0.431   0.433   0.436   0.444   0.446   0.451   0.453
  0.456   0.458   0.466   0.470   0.476   0.479   0.480   0.483
  0.484   0.491   0.495   0.500   0.520   0.531   0.540   0.553
  0.564   0.565   0.573   0.668   0.670   0.676   0.684
 --------------------------------------------------------------
 
          Ground-State Mulliken Net Atomic Charges

     Atom                 Charge (a.u.)
  ----------------------------------------
      1 O                    -0.231359
      2 C                     0.230901
      3 C                    -0.081613
      4 C                    -0.079561
      5 C                     0.233186
      6 O                    -0.181203
      7 C                    -0.040856
      8 C                    -0.041828
      9 O                    -0.180883
     10 C                     0.224197
     11 C                    -0.082547
     12 C                    -0.085888
     13 C                     0.225340
     14 O                    -0.239872
     15 O                    -0.199955
     16 O                    -0.192702
     17 O                    -0.226375
     18 C                    -0.104418
     19 C                     0.035651
     20 C                    -0.142097
     21 C                    -0.145589
     22 C                     0.036847
     23 O                    -0.200102
     24 H                     0.097133
     25 H                     0.106872
     26 H                     0.081406
     27 H                     0.072899
     28 H                     0.076035
     29 H                     0.072638
     30 H                     0.072452
     31 H                     0.081623
     32 O                    -0.215453
     33 C                    -0.104768
     34 C                     0.036305
     35 C                    -0.144786
     36 C                    -0.144681
     37 C                     0.029692
     38 O                    -0.204581
     39 H                     0.084705
     40 H                     0.087967
     41 H                     0.091275
     42 H                     0.087604
     43 H                     0.072877
     44 H                     0.072662
     45 H                     0.077842
     46 H                     0.073076
     47 H                     0.106723
     48 H                     0.082391
     49 H                     0.089830
     50 H                     0.093341
     51 H                     0.089602
     52 H                     0.082425
     53 H                     0.095536
     54 H                     0.087712
     55 H                     0.092275
     56 H                     0.090099
  ----------------------------------------
  Sum of atomic charges =    -0.000000

 -----------------------------------------------------------------
                    Cartesian Multipole Moments
 -----------------------------------------------------------------
    Charge (ESU x 10^10)
                -0.0000
    Dipole Moment (Debye)
         X      -2.2265      Y      -0.0100      Z      -1.6188
       Tot       2.7528
    Quadrupole Moments (Debye-Ang)
        XX    -157.9506     XY      -4.0844     YY    -146.8948
        XZ      -1.5062     YZ       3.6952     ZZ    -156.9123
    Octopole Moments (Debye-Ang^2)
       XXX     -58.0896    XXY      -5.7171    XYY     -15.1052
       YYY      59.0628    XXZ     -26.5910    XYZ      -7.3214
       YYZ      -1.0426    XZZ       3.5933    YZZ       8.0270
       ZZZ       8.4845
    Hexadecapole Moments (Debye-Ang^3)
      XXXX   -7217.7401   XXXY      46.4076   XXYY   -1714.5298
      XYYY     -27.3644   YYYY   -2684.5991   XXXZ    -309.2941
      XXYZ      -5.0990   XYYZ      24.8805   YYYZ      15.2862
      XXZZ   -1535.3598   XYZZ       6.3308   YYZZ    -894.4062
      XZZZ      47.9127   YZZZ      32.0919   ZZZZ   -2456.6364
 -----------------------------------------------------------------
 Calculating analytic gradient of the SCF energy
 Gradient of SCF Energy
            1           2           3           4           5           6
    1  -0.0162321  -0.0166508   0.0277041   0.0055986   0.0056344  -0.0118286
    2   0.0158173  -0.0051183   0.0130855  -0.0029984   0.0137230  -0.0126399
    3  -0.0219595  -0.0343316   0.0167750   0.0260512  -0.0197494   0.0418774
            7           8           9          10          11          12
    1   0.0271219  -0.0254126   0.0429962  -0.0333601   0.0462810  -0.0193527
    2  -0.0219065  -0.0270395   0.0106890   0.0027188   0.0075514   0.0283677
    3  -0.0226338   0.0126476  -0.0161988   0.0020539  -0.0048062  -0.0070353
           13          14          15          16          17          18
    1   0.0108359   0.0252147   0.0266515  -0.0249893  -0.0166674  -0.0034610
    2  -0.0164017  -0.0154605  -0.0161339   0.0432074  -0.0190104  -0.0244297
    3   0.0277871   0.0204697   0.0808432  -0.0696102   0.0103281   0.0372384
           19          20          21          22          23          24
    1   0.0198085   0.0068241   0.0058021  -0.0039692  -0.0508490  -0.0025273
    2  -0.0222824   0.0073039   0.0223762   0.0348955  -0.0171998  -0.0010768
    3  -0.0297263  -0.0271417   0.0000648   0.0316480  -0.0029996   0.0054266
           25          26          27          28          29          30
    1   0.0111274  -0.0091283   0.0074194  -0.0034459   0.0044595  -0.0027194
    2  -0.0106260  -0.0016559  -0.0005097  -0.0019337   0.0005325  -0.0013367
    3  -0.0034348   0.0065717   0.0002309   0.0035476   0.0077659  -0.0047351
           31          32          33          34          35          36
    1  -0.0067279   0.0133323   0.0035708   0.0275540   0.0009417  -0.0066536
    2  -0.0100194  -0.0063973   0.0017036   0.0400400   0.0257060  -0.0009714
    3  -0.0024806  -0.0219023  -0.0441260  -0.0113633   0.0103936   0.0235602
           37          38          39          40          41          42
    1  -0.0128631  -0.0367031  -0.0014206  -0.0000318   0.0015598  -0.0058848
    2  -0.0354382  -0.0000750  -0.0090916   0.0041466   0.0012226  -0.0089571
    3   0.0349420  -0.0344628   0.0025700  -0.0023675  -0.0033817  -0.0073561
           43          44          45          46          47          48
    1   0.0077442  -0.0027358   0.0050883  -0.0024750  -0.0051722   0.0004351
    2   0.0007858  -0.0029420  -0.0070713   0.0034978   0.0000412  -0.0016724
    3   0.0017517  -0.0028947   0.0023358  -0.0029955  -0.0118877  -0.0042512
           49          50          51          52          53          54
    1  -0.0016447   0.0019416  -0.0011624  -0.0010830  -0.0067516   0.0014850
    2   0.0006694   0.0016299  -0.0005110  -0.0035633   0.0050718   0.0036613
    3   0.0030565  -0.0026867   0.0042271   0.0026317  -0.0056832  -0.0028007
           55          56
    1   0.0024366  -0.0076653
    2   0.0097403   0.0062854
    3   0.0009337   0.0072730
 Max gradient component =       8.084E-02
 RMS gradient           =       1.875E-02
 Gradient time:  CPU 34.18 s  wall 0.73 s
 Geometry Optimization Parameters
   NAtoms,    NIC,     NZ,  NCons,   NDum,   NFix, NCnnct, MaxDiis
       56     458       0       9       0       0       0       0

 Cartesian Hessian Update
 Hessian Updated using BFGS Update


** CONSTRAINED OPTIMIZATION IN DELOCALIZED INTERNAL COORDINATES **
   Searching for a Minimum

   Optimization Cycle:   2

                       Coordinates (Angstroms)
     ATOM                X               Y               Z
      1  O        -3.0409730907   -1.3490353737    1.7310234811
      2  C        -3.5878633501   -0.9594363974    0.6887052156
      3  C        -3.0143153522   -1.1056096865   -0.7250059225
      4  C        -2.3856596866    0.1652112973   -1.3634100927
      5  C        -2.2480418225    1.3809273104   -0.4375155457
      6  O        -1.3764466018    2.2915095100   -1.0183497146
      7  C        -1.2336090235    3.5204679056   -0.2716813538
      8  C         0.0450406417    3.4281441265    0.5912642599
      9  O         0.2408368377    2.0368489050    0.9362167024
     10  C         1.5268622235    1.5605531845    0.7967024342
     11  C         1.5959843304    0.0676812796    1.1239271906
     12  C         2.0783402189   -0.8278792951   -0.0480085105
     13  C         2.7300018621   -0.0769896962   -1.2149283003
     14  O         2.1137877448    0.4690754672   -2.1437276417
     15  O        -4.7960541384   -0.2949960854    0.7234020354
     16  O         4.1103872818   -0.1111056994   -1.2330811579
     17  O         2.5123651708    2.2460040360    0.4843753155
     18  C         4.8304674323    0.5213607153   -2.2617131109
     19  C         2.6245333367   -0.2851320635    2.2417467947
     20  C         2.2042128545   -1.6210939319    2.9025723573
     21  C         2.5026614261   -2.6080288185    1.7594437431
     22  C         3.1675544156   -1.6513754554    0.7275752317
     23  O         3.8116205403   -0.6555261940    1.5318845529
     24  H         0.5837055063   -0.2494994569    1.4554809972
     25  H         1.3258373428   -1.5216321303   -0.4669879481
     26  H         2.7472079352    0.5169996202    2.9990428358
     27  H         2.9135927575   -1.8089462167    3.7339628524
     28  H         1.1706552032   -1.6530218190    3.2974861973
     29  H         3.2291337849   -3.3618448194    2.1211058199
     30  H         1.6162176135   -3.1148842862    1.3313837317
     31  H         3.8349903879   -2.2199940008    0.0466378042
     32  O        -2.7290770505    1.5003830326    0.6972500325
     33  C        -5.4474414610   -0.0647357524    1.9478234675
     34  C        -1.7891047483   -2.0738958606   -0.7353794644
     35  C        -1.5784676301   -2.6339454393   -2.1647458209
     36  C        -1.0298924454   -1.3895234105   -2.8801328977
     37  C        -0.9586164194   -0.3917063052   -1.6934062648
     38  O        -0.6643852716   -1.2120440629   -0.5589317271
     39  H        -3.8120553298   -1.5592303615   -1.3498781231
     40  H        -2.9077625541    0.5000515790   -2.2833092068
     41  H        -4.8188080886    0.5560675160    2.6242014218
     42  H        -1.8759535361   -2.9050351155   -0.0044054784
     43  H        -0.7756061749   -3.3966445727   -2.1093957226
     44  H        -2.4781893618   -3.0874307123   -2.6227021783
     45  H        -0.0085804484   -1.6103523014   -3.2487618420
     46  H        -1.6525776951   -1.0080815582   -3.7118672099
     47  H        -0.2120115742    0.3983052016   -1.9119800176
     48  H        -5.6924466676   -1.0221576332    2.4593320984
     49  H        -6.3917988516    0.4793217977    1.7435403461
     50  H         5.9124281206    0.3681741985   -2.0736691330
     51  H         4.6242416060    1.6145277591   -2.2807509684
     52  H         4.5771330974    0.0879311410   -3.2548986731
     53  H         0.8805365278    3.8122330699   -0.0361512847
     54  H        -0.0218502127    4.0845869865    1.4853267620
     55  H        -2.0998644740    3.7091672941    0.4025487049
     56  H        -1.2189098314    4.4060437812   -0.9416464059
   Point Group: c1    Number of degrees of freedom:   162


   Energy is  -1510.228245598

              Constraints and their Current Values
                                        Value     Constraint
   Dihedral:        1   2   3   4     -102.826     -102.851
   Dihedral:        3   4   5   6      164.580      164.614
   Dihedral:        4   5   6   7      176.317      176.362
   Dihedral:        5   6   7   8       97.804       97.789
   Dihedral:        6   7   8   9      -30.530      -30.584
   Dihedral:        7   8   9  10      134.770      134.770
   Dihedral:        8   9  10  11     -177.246     -177.246
   Dihedral:        9  10  11  12      119.416      119.375
   Dihedral:       11  12  13  14      -83.288      -83.237
 Hessian Updated using BFGS Update

   Using Lagrange Multiplier Algorithm


155 Hessian modes will be used to form the next step
  Hessian Eigenvalues:
    -0.977753   -0.977753   -0.977753   -0.977753   -0.977753   -0.977753
    -0.964874    0.044969    0.045000    0.045008    0.045021    0.045057
     0.045162    0.045559    0.045596    0.048878    0.048906    0.054262
     0.059716    0.060042    0.062688    0.062909    0.066591    0.066811
     0.067075    0.067097    0.069479    0.071044    0.071301    0.073178
     0.073354    0.075955    0.076048    0.076596    0.076994    0.082467
     0.082546    0.084165    0.084348    0.084462    0.084661    0.086362
     0.086488    0.086689    0.087010    0.087159    0.087900    0.088660
     0.088819    0.089002    0.089324    0.089735    0.089848    0.093982
     0.094224    0.096618    0.096682    0.111481    0.111561    0.114648
     0.114680    0.115890    0.115921    0.116243    0.116466    0.117351
     0.118144    0.118457    0.121493    0.123285    0.130220    0.130376
     0.130442    0.139208    0.140839    0.157365    0.160453    0.166276
     0.171963    0.172086    0.172885    0.183253    0.220120    0.238245
     0.238704    0.240269    0.248433    0.249761    0.249824    0.249904
     0.257896    0.258527    0.265452    0.267251    0.268002    0.279491
     0.282018    0.282583    0.290973    0.295969    0.297628    0.303605
     0.308791    0.310754    0.312457    0.320582    0.321415    0.321985
     0.322027    0.322446    0.322769    0.322924    0.323048    0.323304
     0.323469    0.323552    0.323877    0.324068    0.324384    0.324554
     0.324669    0.324786    0.324855    0.324913    0.324939    0.324997
     0.325005    0.326785    0.326810    0.327826    0.329659    0.338309
     0.370058    0.375310    0.388258    0.400655    0.406763    0.466088
     0.492266    0.504186    0.521002    0.527512    0.534774    0.554011
     0.929268    0.933616    0.942294    0.954767    1.022753    1.022753
     1.022753    1.022753    1.022753    1.022753    1.113886

 Minimum Search - Taking P-RFO Step
 Searching for Lamda that Maximizes Along the Constraint modes Only
 Value Taken    Lamda =   0.00133786
 Searching for Lamda that Minimizes Along All other modes
 Value Taken    Lamda =  -0.10842240
 Calculated Step too Large.  Step scaled by  0.483616
 Step Taken.  Stepsize is  0.300000

                             Maximum     Tolerance    Cnvgd?
         Gradient            0.070356       0.000300      NO
         Displacement        0.123946       0.001200      NO
         Energy change     -0.069361       0.000001      NO


 New Cartesian Coordinates Obtained by Inverse Iteration

 Displacement from previous Coordinates is:  5.031535
 Adding empirical dispersion correction 
 ----------------------------------------------------------------
 Doing -D3(op) with
 s6 =   1.00000
 s8 =   0.78311
 a1 =   0.30000
 a2 =   4.25000
 n  =  10.00000
 -D3 energy without 3body term =     -0.0689339990 hartrees
 ----------------------------------------------------------------
             Standard Nuclear Orientation (Angstroms)
    I     Atom           X                Y                Z
 ----------------------------------------------------------------
    1      O      -3.3578650679    -1.3263495960     1.6446885038
    2      C      -3.8785183346    -0.8880897730     0.5956775511
    3      C      -3.3397101554    -1.0930964714    -0.8428668183
    4      C      -2.5983137487     0.1304137338    -1.4877096653
    5      C      -2.3519108442     1.3310935414    -0.5305889566
    6      O      -1.3927590625     2.1886455717    -1.1039888678
    7      C      -1.1742649019     3.3839695607    -0.2942883044
    8      C       0.0855009752     3.2596623774     0.6314316729
    9      O       0.2958244274     1.8699852384     1.0161003951
   10      C       1.6413767954     1.4987494442     0.8960960818
   11      C       1.8318748049     0.0059475123     1.2419896457
   12      C       2.4069909254    -0.8492707295     0.0685149320
   13      C       2.9831926498    -0.0144908851    -1.1021465471
   14      O       2.3080997139     0.4763006831    -2.0371028557
   15      O      -5.0358359117    -0.1028696700     0.5955150601
   16      O       4.3783135825     0.0704754725    -1.0859536647
   17      O       2.5632552544     2.2804794660     0.5785368568
   18      C       4.9720703105     0.8132811893    -2.1589363578
   19      C       2.8913451006    -0.2530644543     2.3799051400
   20      C       2.5679658327    -1.6353448919     3.0358770509
   21      C       2.9638110708    -2.5996063641     1.8794527387
   22      C       3.5734798706    -1.5821941856     0.8482304684
   23      O       4.1354752375    -0.5223421798     1.6730524101
   24      H       0.8497672871    -0.3956033998     1.5614002130
   25      H       1.7081002557    -1.5960017273    -0.3517313936
   26      H       2.9475338625     0.5607141609     3.1300372359
   27      H       3.2711580832    -1.7727285215     3.8773850920
   28      H       1.5363917447    -1.7472106775     3.4116122696
   29      H       3.7387260164    -3.2981785279     2.2400374324
   30      H       2.1255046927    -3.1689739400     1.4420228528
   31      H       4.2971574209    -2.0786374579     0.1715732071
   32      O      -2.8252053349     1.4806496066     0.6139478675
   33      C      -5.6058731814     0.1643742455     1.8831439320
   34      C      -2.2090647861    -2.1854204126    -0.8710411459
   35      C      -2.0785994023    -2.7484120197    -2.3255426636
   36      C      -1.4141448906    -1.5400704685    -3.0469361526
   37      C      -1.2173158626    -0.5557200182    -1.8436981628
   38      O      -0.9847128385    -1.4268284009    -0.7025307278
   39      H      -4.1826179841    -1.4587494170    -1.4614771371
   40      H      -3.0959202203     0.5181209213    -2.3973345366
   41      H      -4.8955686892     0.7178955700     2.5364779817
   42      H      -2.3608058502    -2.9999903641    -0.1347062854
   43      H      -1.3618465027    -3.5888855616    -2.2974253450
   44      H      -3.0263787170    -3.1004588881    -2.7672222178
   45      H      -0.4303003866    -1.8490964873    -3.4413501430
   46      H      -2.0120564234    -1.0918007497    -3.8584538689
   47      H      -0.3968262796     0.1616376794    -2.0531224602
   48      H      -5.9083476149    -0.7715421462     2.4035293560
   49      H      -6.5060283744     0.7901326463     1.7246331058
   50      H       6.0691930401     0.7921157713    -2.0083358710
   51      H       4.6318847302     1.8723630792    -2.1619427859
   52      H       4.7377682230     0.3647864100    -3.1501154678
   53      H       0.9604778523     3.6273988584     0.0496804798
   54      H      -0.0152410578     3.9153552757     1.5230636217
   55      H      -2.0572332970     3.5836239156     0.3540073190
   56      H      -1.0950007321     4.2736186583    -0.9535314023
 ----------------------------------------------------------------
 Molecular Point Group                 C1    NOp =  1
 Largest Abelian Subgroup              C1    NOp =  1
 Nuclear Repulsion Energy =  3304.9805538469 hartrees
 There are      113 alpha and      113 beta electrons
 Applying Cartesian multipole field
    Component          Value
    ---------          -----
     (2,0,0)        1.00000E-12
     (0,2,0)        2.00000E-11
     (0,0,2)       -3.00000E-11
 Nucleus-field energy     =    -0.0000000087 hartrees
 Requested basis set is STO-3G
 There are 86 shells and 176 basis functions
 A cutoff of  1.0D-12 yielded   2510 shell pairs
 There are     12152 function pairs
 Smallest overlap matrix eigenvalue = 2.07E-01
 Guess MOs from SCF MO coefficient file
 Reading MOs from coefficient file
 Reading MOs from coefficient file
 A restricted hybrid HF-DFT SCF calculation will be
 performed using Pulay DIIS extrapolation
 Exchange:     0.2000 Hartree-Fock + 0.0800 Slater + 0.7200 B88
 Correlation:  0.1900 VWN1RPA + 0.8100 LYP
 Using SG-1 standard quadrature grid
 Dispersion:   Grimme D3
 SCF converges when DIIS error is below 1.0E-08
 Geometry optimization detected.  Setting ReadMinima to 0
 Setting SaveMinima to 0
 using 48 threads for integral computing
 -------------------------------------------------------
 OpenMP Integral computing Module                
 Release: version 1.0, May 2013, Q-Chem Inc. Pittsburgh 
 -------------------------------------------------------
 -------------------------------------------------------
 OpenMP BLAS3 based DFT computing Module                
 Release: version 1.0, May 2013, Q-Chem Inc. Pittsburgh 
 -------------------------------------------------------
 ---------------------------------------
  Cycle       Energy         DIIS Error
 ---------------------------------------
    1   -1510.0113936599      5.56E-03
    2   -1510.2544307474      1.12E-03
    3   -1510.2452735884      1.88E-03
    4   -1510.2600641397      3.99E-04
    5   -1510.2607927604      9.57E-05
    6   -1510.2608334506      2.91E-05
    7   -1510.2608358884      2.07E-05
    8   -1510.2608376935      4.94E-06
    9   -1510.2608378226      7.41E-07
   10   -1510.2608378262      4.65E-07
   11   -1510.2608378273      2.25E-07
   12   -1510.2608378275      8.90E-08
   13   -1510.2608378275      2.14E-08
   14   -1510.2608378275      3.63E-09 Convergence criterion met
 ---------------------------------------
 SCF time:  CPU 106.54 s  wall 2.23 s
 SCF   energy in the final basis set = -1510.26083783
 Total energy in the final basis set = -1510.26083783
 
 --------------------------------------------------------------
 
                    Orbital Energies (a.u.)
 --------------------------------------------------------------
 
 Alpha MOs
 -- Occupied --
-18.943 -18.942 -18.930 -18.924 -18.891 -18.888 -18.877 -18.864
-18.850 -18.850 -10.105 -10.099 -10.093 -10.092 -10.076 -10.072
-10.064 -10.061 -10.058 -10.057 -10.057 -10.053 -10.039 -10.033
-10.031 -10.030 -10.014 -10.013 -10.010 -10.009  -1.029  -1.018
 -1.014  -1.009  -0.987  -0.980  -0.944  -0.936  -0.926  -0.925
 -0.766  -0.763  -0.730  -0.722  -0.718  -0.707  -0.697  -0.661
 -0.660  -0.622  -0.598  -0.577  -0.545  -0.541  -0.533  -0.528
 -0.515  -0.507  -0.487  -0.484  -0.468  -0.463  -0.454  -0.439
 -0.433  -0.429  -0.427  -0.415  -0.410  -0.408  -0.406  -0.405
 -0.396  -0.380  -0.377  -0.371  -0.365  -0.359  -0.352  -0.348
 -0.341  -0.337  -0.334  -0.332  -0.328  -0.325  -0.318  -0.311
 -0.302  -0.300  -0.298  -0.295  -0.291  -0.278  -0.277  -0.271
 -0.266  -0.249  -0.244  -0.236  -0.234  -0.230  -0.226  -0.184
 -0.174  -0.166  -0.163  -0.155  -0.150  -0.147  -0.142  -0.136
 -0.135
 -- Virtual --
  0.100   0.102   0.117   0.118   0.223   0.247   0.249   0.262
  0.278   0.291   0.308   0.316   0.325   0.337   0.343   0.349
  0.357   0.359   0.364   0.365   0.369   0.373   0.381   0.387
  0.391   0.396   0.398   0.403   0.406   0.413   0.417   0.417
  0.423   0.423   0.428   0.431   0.433   0.441   0.441   0.443
  0.444   0.449   0.451   0.457   0.460   0.473   0.474   0.477
  0.479   0.480   0.480   0.493   0.505   0.520   0.523   0.546
  0.554   0.559   0.559   0.649   0.651   0.662   0.663
 --------------------------------------------------------------
 
          Ground-State Mulliken Net Atomic Charges

     Atom                 Charge (a.u.)
  ----------------------------------------
      1 O                    -0.224149
      2 C                     0.221866
      3 C                    -0.081390
      4 C                    -0.077661
      5 C                     0.224203
      6 O                    -0.175029
      7 C                    -0.045576
      8 C                    -0.047887
      9 O                    -0.172672
     10 C                     0.217380
     11 C                    -0.081194
     12 C                    -0.079173
     13 C                     0.215572
     14 O                    -0.230288
     15 O                    -0.187237
     16 O                    -0.179074
     17 O                    -0.220506
     18 C                    -0.112924
     19 C                     0.031286
     20 C                    -0.142959
     21 C                    -0.146224
     22 C                     0.032684
     23 O                    -0.190738
     24 H                     0.095556
     25 H                     0.095916
     26 H                     0.082679
     27 H                     0.074584
     28 H                     0.076502
     29 H                     0.074429
     30 H                     0.074016
     31 H                     0.084187
     32 O                    -0.210667
     33 C                    -0.113564
     34 C                     0.031776
     35 C                    -0.145087
     36 C                    -0.145301
     37 C                     0.028217
     38 O                    -0.200480
     39 H                     0.083540
     40 H                     0.087183
     41 H                     0.091996
     42 H                     0.087014
     43 H                     0.073867
     44 H                     0.072224
     45 H                     0.077091
     46 H                     0.072813
     47 H                     0.099959
     48 H                     0.082955
     49 H                     0.088311
     50 H                     0.092447
     51 H                     0.090693
     52 H                     0.084205
     53 H                     0.097506
     54 H                     0.086106
     55 H                     0.092148
     56 H                     0.088871
  ----------------------------------------
  Sum of atomic charges =     0.000000

 -----------------------------------------------------------------
                    Cartesian Multipole Moments
 -----------------------------------------------------------------
    Charge (ESU x 10^10)
                 0.0000
    Dipole Moment (Debye)
         X      -1.7210      Y      -0.0859      Z      -1.4762
       Tot       2.2690
    Quadrupole Moments (Debye-Ang)
        XX    -157.3643     XY      -4.4079     YY    -148.1911
        XZ      -0.8379     YZ       3.0089     ZZ    -155.5880
    Octopole Moments (Debye-Ang^2)
       XXX     -59.3572    XXY      -6.3348    XYY     -11.1967
       YYY      53.4107    XXZ     -31.4343    XYZ     -13.8388
       YYZ      -1.4291    XZZ       2.8561    YZZ       9.2029
       ZZZ       8.5382
    Hexadecapole Moments (Debye-Ang^3)
      XXXX   -8463.0034   XXXY     -20.0679   XXYY   -1893.8738
      XYYY     -82.0444   YYYY   -2681.9127   XXXZ    -556.5324
      XXYZ     -18.5719   XYYZ     -52.9691   YYYZ     -17.2342
      XXZZ   -1760.1158   XYZZ     -14.4014   YYZZ    -909.3170
      XZZZ    -174.5266   YZZZ      -2.9122   ZZZZ   -2593.2988
 -----------------------------------------------------------------
 Calculating analytic gradient of the SCF energy
 Gradient of SCF Energy
            1           2           3           4           5           6
    1  -0.0019911  -0.0190365   0.0182743  -0.0020944   0.0030799  -0.0089106
    2   0.0067142  -0.0016627   0.0077046  -0.0025393   0.0122333  -0.0069757
    3  -0.0036913  -0.0274345   0.0088136   0.0133751  -0.0180296   0.0223192
            7           8           9          10          11          12
    1   0.0193717  -0.0118778   0.0252210  -0.0273773   0.0305106  -0.0172546
    2  -0.0145323  -0.0203915   0.0096660  -0.0014868   0.0051759   0.0181047
    3  -0.0207576   0.0163597  -0.0068918   0.0005885  -0.0040090  -0.0061773
           13          14          15          16          17          18
    1   0.0177972   0.0077402   0.0178673  -0.0185902  -0.0038287  -0.0006338
    2  -0.0115450  -0.0034965  -0.0089367   0.0234349  -0.0065290  -0.0166263
    3   0.0291064   0.0016800   0.0468935  -0.0412350   0.0054460   0.0242773
           19          20          21          22          23          24
    1   0.0154967  -0.0005120   0.0007307  -0.0000499  -0.0230256  -0.0007291
    2  -0.0083447   0.0045024   0.0082009   0.0218910  -0.0110873  -0.0016391
    3  -0.0159859  -0.0125626  -0.0016333   0.0176483  -0.0013247   0.0028540
           25          26          27          28          29          30
    1   0.0069889  -0.0077947   0.0047331  -0.0006731   0.0021655  -0.0003587
    2  -0.0063964  -0.0025539   0.0003984  -0.0016195   0.0018174  -0.0007764
    3  -0.0017754   0.0046204  -0.0010034   0.0033641   0.0053912  -0.0029807
           31          32          33          34          35          36
    1  -0.0055329   0.0053492   0.0019293   0.0182828  -0.0017602  -0.0026423
    2  -0.0083232  -0.0042932   0.0001984   0.0197052   0.0111621   0.0024200
    3  -0.0019442  -0.0056833  -0.0289452  -0.0010783   0.0047245   0.0086391
           37          38          39          40          41          42
    1  -0.0069370  -0.0262407  -0.0003173   0.0015574   0.0008242  -0.0060519
    2  -0.0175882   0.0003760  -0.0079696   0.0028960   0.0011548  -0.0063320
    3   0.0209774  -0.0190183   0.0023901  -0.0009932  -0.0006649  -0.0064337
           43          44          45          46          47          48
    1   0.0047579  -0.0005515   0.0019838  -0.0000627  -0.0020879  -0.0005869
    2   0.0011850  -0.0026670  -0.0047675   0.0025452   0.0000572  -0.0012651
    3   0.0015791  -0.0012749   0.0024469  -0.0009612  -0.0109549  -0.0012197
           49          50          51          52          53          54
    1  -0.0010660   0.0012674  -0.0001158   0.0001065  -0.0046104   0.0029468
    2   0.0006002   0.0013885   0.0007367  -0.0017845   0.0040307   0.0022849
    3   0.0022286  -0.0020604   0.0016326   0.0000658  -0.0050543  -0.0013458
           55          56
    1   0.0014957  -0.0071764
    2   0.0069237   0.0046211
    3   0.0007947   0.0049082
 Max gradient component =       4.689E-02
 RMS gradient           =       1.157E-02
 Gradient time:  CPU 34.50 s  wall 0.73 s
 Geometry Optimization Parameters
   NAtoms,    NIC,     NZ,  NCons,   NDum,   NFix, NCnnct, MaxDiis
       56     458       0       9       0       0       0       0

 Cartesian Hessian Update
 Hessian Updated using BFGS Update


** CONSTRAINED OPTIMIZATION IN DELOCALIZED INTERNAL COORDINATES **
   Searching for a Minimum

   Optimization Cycle:   3

                       Coordinates (Angstroms)
     ATOM                X               Y               Z
      1  O        -3.3578650679   -1.3263495960    1.6446885038
      2  C        -3.8785183346   -0.8880897730    0.5956775511
      3  C        -3.3397101554   -1.0930964714   -0.8428668183
      4  C        -2.5983137487    0.1304137338   -1.4877096653
      5  C        -2.3519108442    1.3310935414   -0.5305889566
      6  O        -1.3927590625    2.1886455717   -1.1039888678
      7  C        -1.1742649019    3.3839695607   -0.2942883044
      8  C         0.0855009752    3.2596623774    0.6314316729
      9  O         0.2958244274    1.8699852384    1.0161003951
     10  C         1.6413767954    1.4987494442    0.8960960818
     11  C         1.8318748049    0.0059475123    1.2419896457
     12  C         2.4069909254   -0.8492707295    0.0685149320
     13  C         2.9831926498   -0.0144908851   -1.1021465471
     14  O         2.3080997139    0.4763006831   -2.0371028557
     15  O        -5.0358359117   -0.1028696700    0.5955150601
     16  O         4.3783135825    0.0704754725   -1.0859536647
     17  O         2.5632552544    2.2804794660    0.5785368568
     18  C         4.9720703105    0.8132811893   -2.1589363578
     19  C         2.8913451006   -0.2530644543    2.3799051400
     20  C         2.5679658327   -1.6353448919    3.0358770509
     21  C         2.9638110708   -2.5996063641    1.8794527387
     22  C         3.5734798706   -1.5821941856    0.8482304684
     23  O         4.1354752375   -0.5223421798    1.6730524101
     24  H         0.8497672871   -0.3956033998    1.5614002130
     25  H         1.7081002557   -1.5960017273   -0.3517313936
     26  H         2.9475338625    0.5607141609    3.1300372359
     27  H         3.2711580832   -1.7727285215    3.8773850920
     28  H         1.5363917447   -1.7472106775    3.4116122696
     29  H         3.7387260164   -3.2981785279    2.2400374324
     30  H         2.1255046927   -3.1689739400    1.4420228528
     31  H         4.2971574209   -2.0786374579    0.1715732071
     32  O        -2.8252053349    1.4806496066    0.6139478675
     33  C        -5.6058731814    0.1643742455    1.8831439320
     34  C        -2.2090647861   -2.1854204126   -0.8710411459
     35  C        -2.0785994023   -2.7484120197   -2.3255426636
     36  C        -1.4141448906   -1.5400704685   -3.0469361526
     37  C        -1.2173158626   -0.5557200182   -1.8436981628
     38  O        -0.9847128385   -1.4268284009   -0.7025307278
     39  H        -4.1826179841   -1.4587494170   -1.4614771371
     40  H        -3.0959202203    0.5181209213   -2.3973345366
     41  H        -4.8955686892    0.7178955700    2.5364779817
     42  H        -2.3608058502   -2.9999903641   -0.1347062854
     43  H        -1.3618465027   -3.5888855616   -2.2974253450
     44  H        -3.0263787170   -3.1004588881   -2.7672222178
     45  H        -0.4303003866   -1.8490964873   -3.4413501430
     46  H        -2.0120564234   -1.0918007497   -3.8584538689
     47  H        -0.3968262796    0.1616376794   -2.0531224602
     48  H        -5.9083476149   -0.7715421462    2.4035293560
     49  H        -6.5060283744    0.7901326463    1.7246331058
     50  H         6.0691930401    0.7921157713   -2.0083358710
     51  H         4.6318847302    1.8723630792   -2.1619427859
     52  H         4.7377682230    0.3647864100   -3.1501154678
     53  H         0.9604778523    3.6273988584    0.0496804798
     54  H        -0.0152410578    3.9153552757    1.5230636217
     55  H        -2.0572332970    3.5836239156    0.3540073190
     56  H        -1.0950007321    4.2736186583   -0.9535314023
   Point Group: c1    Number of degrees of freedom:   162


   Energy is  -1510.260837827

              Constraints and their Current Values
                                        Value     Constraint
   Dihedral:        1   2   3   4     -102.839     -102.851
   Dihedral:        3   4   5   6      164.554      164.614
   Dihedral:        4   5   6   7      176.418      176.362
   Dihedral:        5   6   7   8       97.724       97.789
   Dihedral:        6   7   8   9      -30.614      -30.584
   Dihedral:        7   8   9  10      134.770      134.770
   Dihedral:        8   9  10  11     -177.246     -177.246
   Dihedral:        9  10  11  12      119.355      119.375
   Dihedral:       11  12  13  14      -83.259      -83.237
 Hessian Updated using BFGS Update

   Using Lagrange Multiplier Algorithm


158 Hessian modes will be used to form the next step
  Hessian Eigenvalues:
    -0.977753   -0.977753   -0.977753   -0.977753   -0.977753   -0.977241
    -0.954587    0.044824    0.045000    0.045000    0.045003    0.045022
     0.045054    0.045182    0.045576    0.045593    0.048871    0.048930
     0.054201    0.059655    0.060060    0.062699    0.062967    0.066724
     0.066810    0.067076    0.067094    0.069474    0.071160    0.071276
     0.073176    0.073476    0.075906    0.075979    0.076540    0.076990
     0.082468    0.082553    0.084050    0.084304    0.084473    0.084646
     0.085625    0.086472    0.086701    0.087045    0.087245    0.087873
     0.088507    0.088811    0.089033    0.089210    0.089709    0.089857
     0.093963    0.094226    0.096612    0.096672    0.111485    0.111561
     0.114648    0.114678    0.115890    0.115921    0.116266    0.117135
     0.117599    0.118375    0.118436    0.121945    0.123850    0.130154
     0.130424    0.130458    0.139378    0.140824    0.158943    0.160000
     0.161432    0.171323    0.172020    0.172276    0.172940    0.214081
     0.220093    0.238648    0.239224    0.241845    0.248453    0.249804
     0.249824    0.249928    0.254172    0.258522    0.260012    0.266790
     0.267915    0.279396    0.281977    0.282472    0.289105    0.295639
     0.296902    0.303218    0.307905    0.310428    0.312287    0.319606
     0.320754    0.321968    0.322027    0.322295    0.322765    0.322825
     0.322957    0.323302    0.323416    0.323495    0.323617    0.323921
     0.324283    0.324472    0.324575    0.324686    0.324855    0.324913
     0.324938    0.324993    0.325005    0.326720    0.326808    0.327801
     0.329658    0.332053    0.369838    0.375148    0.387078    0.390278
     0.405845    0.411573    0.462717    0.492315    0.515082    0.520725
     0.527577    0.534539    0.625190    0.929251    0.933799    0.942348
     0.993362    1.022753    1.022753    1.022753    1.022753    1.022753
     1.029675    1.122238

 Minimum Search - Taking P-RFO Step
 Searching for Lamda that Maximizes Along the Constraint modes Only
 Value Taken    Lamda =   0.00295298
 Searching for Lamda that Minimizes Along All other modes
 Value Taken    Lamda =  -0.04686379
 Calculated Step too Large.  Step scaled by  0.648889
 Step Taken.  Stepsize is  0.300000

                             Maximum     Tolerance    Cnvgd?
         Gradient            0.053039       0.000300      NO
         Displacement        0.074324       0.001200      NO
         Energy change     -0.032592       0.000001      NO


 New Cartesian Coordinates Obtained by Inverse Iteration

 Displacement from previous Coordinates is:  2.967109
 Adding empirical dispersion correction 
 ----------------------------------------------------------------
 Doing -D3(op) with
 s6 =   1.00000
 s8 =   0.78311
 a1 =   0.30000
 a2 =   4.25000
 n  =  10.00000
 -D3 energy without 3body term =     -0.0715304894 hartrees
 ----------------------------------------------------------------
             Standard Nuclear Orientation (Angstroms)
    I     Atom           X                Y                Z
 ----------------------------------------------------------------
    1      O      -3.2537161335    -1.2108279095     1.7532274632
    2      C      -3.7501755153    -0.8514275461     0.6623124190
    3      C      -3.1666977325    -1.1122494890    -0.7642230807
    4      C      -2.4530215397     0.1160061007    -1.4417321775
    5      C      -2.2804397332     1.3540752470    -0.5023447561
    6      O      -1.3301083055     2.2267194830    -1.0992760342
    7      C      -1.1775279267     3.4592742578    -0.3147542619
    8      C       0.0812996749     3.3449909397     0.6188921924
    9      O       0.2517689668     1.9283117247     0.9757938536
   10      C       1.6053382223     1.5180358523     0.8591975432
   11      C       1.7027020340     0.0016439651     1.1814602852
   12      C       2.2539431825    -0.8562452238    -0.0146097820
   13      C       2.8523892989     0.0152755437    -1.1661847107
   14      O       2.1938502399     0.5572644954    -2.0864174775
   15      O      -4.9620142427    -0.1256206188     0.5493408109
   16      O       4.2647384310     0.0524399414    -1.1205672939
   17      O       2.5532705169     2.2765635240     0.5519566545
   18      C       4.7968865762     0.8609242294    -2.2137052378
   19      C       2.7494061150    -0.3377654685     2.3239172229
   20      C       2.3430281146    -1.7279883351     2.9349200320
   21      C       2.7014477169    -2.6823709470     1.7452516156
   22      C       3.3860454160    -1.6695242540     0.7441477041
   23      O       4.0000679773    -0.6524929751     1.6129541661
   24      H       0.6985551924    -0.3512598921     1.4805952810
   25      H       1.5094923869    -1.5436719254    -0.4560941816
   26      H       2.8580909446     0.4601242433     3.0839881125
   27      H       3.0172218249    -1.9353989632     3.7831485097
   28      H       1.3006017451    -1.7869577466     3.2869593008
   29      H       3.4271770776    -3.4401588709     2.0822627264
   30      H       1.8345381216    -3.1850174080     1.2866120898
   31      H       4.1008342384    -2.1640724377     0.0590162027
   32      O      -2.7924990540     1.5368670271     0.6236166566
   33      C      -5.5232536792     0.1545974104     1.8667731295
   34      C      -1.9838432251    -2.1619261413    -0.7139518630
[...]
     15  O        -4.8763883227   -0.1300438881    0.5136838807
     16  O         4.0168326837    0.2366485542   -1.1454703841
     17  O         2.6044659954    2.2136324312    0.6075073399
     18  C         4.4106336239    1.1817443122   -2.2163535011
     19  C         2.5911099329   -0.4718755583    2.3700811140
     20  C         2.1835156098   -1.9245306640    2.8383513691
     21  C         2.7267311960   -2.7913694570    1.6425300617
     22  C         3.3504100925   -1.6769700303    0.7117768652
     23  O         3.8802658705   -0.6790876585    1.6723641574
     24  H         0.5515669465   -0.3258192901    1.4178182033
     25  H         1.3478765140   -1.5668456177   -0.3582304006
     26  H         2.7043645294    0.2739886342    3.1804587584
     27  H         2.6877794015   -2.1788883127    3.7841659495
     28  H         1.0951148908   -2.0248456780    2.9770897001
     29  H         3.5065464653   -3.4951586489    1.9748862177
     30  H         1.9307254085   -3.3596756270    1.1350363603
     31  H         4.1532974995   -2.0222862460    0.0328550892
     32  O        -2.7449871356    1.6106003834    0.4840162363
     33  C        -5.4343642993    0.2966232241    1.8147684177
     34  C        -1.8711596755   -2.1968976105   -0.6078408647
     35  C        -1.7298256023   -2.8781703656   -2.0228120877
     36  C        -1.0326427562   -1.7252558956   -2.8373761561
     37  C        -0.8433143320   -0.6131705448   -1.7295345748
     38  O        -0.6300296993   -1.4006882126   -0.4906953617
     39  H        -3.8569352985   -1.4531120134   -1.3123655294
     40  H        -2.7583907302    0.3510384490   -2.4024578944
     41  H        -4.8205474633    1.1021017647    2.2676017236
     42  H        -1.9747645289   -2.8830072804    0.2549527760
     43  H        -1.0906327265   -3.7733688713   -1.9592855985
     44  H        -2.7055737060   -3.1694120284   -2.4429189358
     45  H        -0.0525230479   -2.0415486865   -3.2286613027
     46  H        -1.6480796138   -1.3706371512   -3.6794539908
     47  H         0.0363349723    0.0580068391   -1.8973612146
     48  H        -5.4954865929   -0.5470616383    2.5326815501
     49  H        -6.4501653089    0.6792869569    1.6047845826
     50  H         5.5038844201    1.3118315322   -2.1185503996
     51  H         3.9057065661    2.1608370388   -2.0895590428
     52  H         4.1687396841    0.7832180570   -3.2229465061
     53  H         1.1265525287    3.7079811441    0.1543462155
     54  H        -0.0084585912    3.9765280427    1.5412261409
     55  H        -1.9904665197    3.6500832921    0.1955066965
     56  H        -0.8955682960    4.3155545692   -1.1018605392
   Point Group: c1    Number of degrees of freedom:   162


   Energy is  -1510.295763232

              Constraints and their Current Values
                                        Value     Constraint
   Dihedral:        1   2   3   4     -102.851     -102.851
   Dihedral:        3   4   5   6      164.614      164.614
   Dihedral:        4   5   6   7      176.362      176.362
   Dihedral:        5   6   7   8       97.789       97.789
   Dihedral:        6   7   8   9      -30.584      -30.584
   Dihedral:        7   8   9  10      134.770      134.770
   Dihedral:        8   9  10  11     -177.246     -177.246
   Dihedral:        9  10  11  12      119.375      119.375
   Dihedral:       11  12  13  14      -83.237      -83.237
 Hessian Updated using BFGS Update

153 Hessian modes will be used to form the next step
  Hessian Eigenvalues:
     0.003161    0.009318    0.020213    0.037368    0.044932    0.045002
     0.045027    0.045138    0.045255    0.045612    0.046695    0.048253
     0.050359    0.053549    0.056051    0.060228    0.063208    0.064917
     0.066764    0.067254    0.067572    0.069459    0.070820    0.072171
     0.073552    0.074458    0.076063    0.076318    0.077914    0.078116
     0.082625    0.082676    0.083857    0.084290    0.084494    0.084906
     0.085099    0.086373    0.086874    0.087214    0.087909    0.088535
     0.088903    0.089099    0.089536    0.089830    0.090223    0.091370
     0.094018    0.094922    0.096569    0.096901    0.111474    0.111656
     0.114656    0.114943    0.115881    0.115922    0.117747    0.118618
     0.119644    0.121588    0.121980    0.123579    0.124855    0.130452
     0.131319    0.134797    0.148324    0.159690    0.159986    0.160006
     0.160079    0.160178    0.161506    0.161910    0.171868    0.173494
     0.174425    0.201207    0.223989    0.236509    0.242222    0.243875
     0.248770    0.249220    0.249648    0.250020    0.250145    0.252849
     0.254866    0.259886    0.265079    0.267347    0.270729    0.278709
     0.280740    0.281225    0.290117    0.292866    0.295866    0.299768
     0.305446    0.308967    0.310752    0.313756    0.320739    0.321446
     0.322034    0.322279    0.322485    0.322728    0.322878    0.323314
     0.323416    0.323451    0.323684    0.323956    0.324220    0.324422
     0.324571    0.324671    0.324829    0.324907    0.324933    0.324993
     0.325040    0.326390    0.326811    0.328889    0.331341    0.334752
     0.335654    0.365907    0.371784    0.373490    0.385021    0.396584
     0.417005    0.433643    0.453092    0.488494    0.493375    0.515239
     0.527317    0.556476    0.590356    0.856245    0.931816    0.940451
     0.942556    1.004685    3.196122

 Minimum Search - Taking Simple RFO Step
 Searching for Lamda that Minimizes Along All modes
 Value Taken    Lamda =  -0.00000146
 Step Taken.  Stepsize is  0.007981

                             Maximum     Tolerance    Cnvgd?
         Gradient           0.000190      0.000300     YES
         Displacement       0.002620      0.001200      NO
         Energy change     -0.000000      0.000001     YES

 Final energy is   -1510.29576323155     


 ******************************
 **  OPTIMIZATION CONVERGED  **
 ******************************

                       Coordinates (Angstroms)
     ATOM                X               Y               Z
      1  O        -3.0933995924   -0.9972173138    1.8279369974
      2  C        -3.5759730565   -0.7077887771    0.7121346857
      3  C        -3.0068386288   -1.0983245588   -0.7026364880
      4  C        -2.2521923617    0.0749945863   -1.4594932060
      5  C        -2.1145511117    1.3594822770   -0.5688575116
      6  O        -1.1405289848    2.2291863827   -1.1443619511
      7  C        -1.0490764638    3.4956051748   -0.3719698719
      8  C         0.1720543138    3.3816724821    0.6205001240
      9  O         0.2756265640    1.9441240000    0.9609958597
     10  C         1.6291183342    1.4875929140    0.9015530179
     11  C         1.5985063095   -0.0435131560    1.2074966998
     12  C         2.1666768599   -0.9085743396   -0.0008893943
     13  C         2.6149018117   -0.0015408772   -1.1962647088
     14  O         1.8674987294    0.4650851586   -2.0933587049
     15  O        -4.8763883227   -0.1300438881    0.5136838807
     16  O         4.0168326837    0.2366485542   -1.1454703841
     17  O         2.6044659954    2.2136324312    0.6075073399
     18  C         4.4106336239    1.1817443122   -2.2163535011
     19  C         2.5911099329   -0.4718755583    2.3700811140
     20  C         2.1835156098   -1.9245306640    2.8383513691
     21  C         2.7267311960   -2.7913694570    1.6425300617
     22  C         3.3504100925   -1.6769700303    0.7117768652
     23  O         3.8802658705   -0.6790876585    1.6723641574
     24  H         0.5515669465   -0.3258192901    1.4178182033
     25  H         1.3478765140   -1.5668456177   -0.3582304006
     26  H         2.7043645294    0.2739886342    3.1804587584
     27  H         2.6877794015   -2.1788883127    3.7841659495
     28  H         1.0951148908   -2.0248456780    2.9770897001
     29  H         3.5065464653   -3.4951586489    1.9748862177
     30  H         1.9307254085   -3.3596756270    1.1350363603
     31  H         4.1532974995   -2.0222862460    0.0328550892
     32  O        -2.7449871356    1.6106003834    0.4840162363
     33  C        -5.4343642993    0.2966232241    1.8147684177
     34  C        -1.8711596755   -2.1968976105   -0.6078408647
     35  C        -1.7298256023   -2.8781703656   -2.0228120877
     36  C        -1.0326427562   -1.7252558956   -2.8373761561
     37  C        -0.8433143320   -0.6131705448   -1.7295345748
     38  O        -0.6300296993   -1.4006882126   -0.4906953617
     39  H        -3.8569352985   -1.4531120134   -1.3123655294
     40  H        -2.7583907302    0.3510384490   -2.4024578944
     41  H        -4.8205474633    1.1021017647    2.2676017236
     42  H        -1.9747645289   -2.8830072804    0.2549527760
     43  H        -1.0906327265   -3.7733688713   -1.9592855985
     44  H        -2.7055737060   -3.1694120284   -2.4429189358
     45  H        -0.0525230479   -2.0415486865   -3.2286613027
     46  H        -1.6480796138   -1.3706371512   -3.6794539908
     47  H         0.0363349723    0.0580068391   -1.8973612146
     48  H        -5.4954865929   -0.5470616383    2.5326815501
     49  H        -6.4501653089    0.6792869569    1.6047845826
     50  H         5.5038844201    1.3118315322   -2.1185503996
     51  H         3.9057065661    2.1608370388   -2.0895590428
     52  H         4.1687396841    0.7832180570   -3.2229465061
     53  H         1.1265525287    3.7079811441    0.1543462155
     54  H        -0.0084585912    3.9765280427    1.5412261409
     55  H        -1.9904665197    3.6500832921    0.1955066965
     56  H        -0.8955682960    4.3155545692   -1.1018605392

Z-matrix Print:
$molecule
0 1
O 
C  1 1.479215
H  2 1.107201 1 110.508829
C  1 1.483374 2 95.680592 3 -178.385833 0
H  4 1.119119 1 109.306618 2 -176.864346 0
C  2 1.576785 1 103.204363 3 -124.765886 0
H  6 1.101542 2 112.152892 1 -156.934721 0
H  6 1.101809 2 110.567085 1 81.531160 0
C  6 1.574417 2 100.811600 1 -36.613733 0
H  9 1.101641 6 112.569996 2 -117.926328 0
H  9 1.101717 6 111.559364 2 119.768643 0
C  2 1.582914 1 103.483159 3 122.642943 0
H  12 1.104676 2 111.239991 1 149.108196 0
C  12 1.574170 2 112.194486 1 -90.672247 0
O  14 1.249664 12 127.257292 2 12.329253 0
O  14 1.436750 12 107.629559 2 -158.732200 0
C  16 1.478581 14 109.636839 12 -178.073758 0
H  17 1.105611 16 106.228433 14 -177.005784 0
H  17 1.109335 16 111.095076 14 63.929793 0
H  17 1.109477 16 111.761888 14 -57.507309 0
C  12 1.587136 2 101.565538 1 32.235370 0
H  21 1.105269 12 111.944935 2 121.743445 0
C  21 1.569103 12 112.098987 2 -115.849839 0
O  23 1.252618 21 126.659509 12 -15.409417 0
O  23 1.426993 21 109.261241 12 164.613986 0
C  25 1.486193 23 110.593939 21 176.361957 0
H  26 1.108432 25 107.256198 23 -142.224319 0
H  26 1.110004 25 109.396184 23 -22.277781 0
C  26 1.577700 25 108.241479 23 97.789024 0
H  29 1.110934 26 110.911460 25 -149.608496 0
H  29 1.111235 26 112.317138 25 87.795107 0
O  29 1.480949 26 105.596471 25 -30.583984 0
C  32 1.429648 29 111.507564 26 134.769984 0
O  33 1.250959 32 124.234734 29 0.444580 0
C  33 1.561674 32 106.641186 29 -177.246045 0
H  35 1.104542 33 107.846463 32 -2.061281 0
C  35 1.587564 33 113.312815 32 -127.390593 0
H  37 1.107182 35 114.719915 33 34.850436 0
O  37 1.480429 35 103.714883 33 -85.757554 0
C  39 1.482985 37 95.067547 35 -56.285868 0
H  40 1.106710 39 110.371914 37 -179.834624 0
C  37 1.579752 35 107.690047 33 164.823881 0
H  42 1.101610 37 110.408636 35 -167.363159 0
H  42 1.101784 37 112.081551 35 -45.834932 0
C  42 1.573684 37 101.081755 35 74.463734 0
H  45 1.101768 42 111.528017 37 117.650843 0
H  45 1.101883 42 112.625934 37 -119.801012 0
C  40 1.580996 39 103.441776 37 56.967857 0
H  48 1.109706 40 114.160884 39 -151.009897 0
C  48 1.566058 40 114.284867 39 83.967533 0
O  50 1.257429 48 126.112782 40 163.106323 0
O  50 1.422928 48 110.590887 40 -16.755337 0
C  52 1.481579 50 110.050872 48 -175.502385 0
H  53 1.105299 52 105.903647 50 -179.645442 0
H  53 1.108896 52 111.072665 50 61.369463 0
H  53 1.109308 52 111.638134 50 -60.211975 0
$end

 
 --------------------------------------------------------------
 
                    Orbital Energies (a.u.)
 --------------------------------------------------------------
 
 Alpha MOs
 -- Occupied --
-18.938 -18.938 -18.931 -18.915 -18.885 -18.881 -18.879 -18.872
-18.872 -18.855 -10.103 -10.098 -10.096 -10.087 -10.074 -10.068
-10.061 -10.056 -10.052 -10.051 -10.051 -10.041 -10.036 -10.029
-10.026 -10.022 -10.017 -10.013 -10.012 -10.011  -1.020  -1.012
 -1.005  -0.993  -0.968  -0.961  -0.942  -0.934  -0.931  -0.920
 -0.759  -0.754  -0.724  -0.715  -0.709  -0.699  -0.691  -0.657
 -0.651  -0.615  -0.592  -0.573  -0.542  -0.538  -0.533  -0.529
 -0.507  -0.504  -0.484  -0.475  -0.460  -0.453  -0.449  -0.435
 -0.427  -0.424  -0.422  -0.411  -0.409  -0.403  -0.401  -0.398
 -0.394  -0.377  -0.375  -0.361  -0.355  -0.355  -0.351  -0.350
 -0.342  -0.335  -0.328  -0.324  -0.324  -0.321  -0.314  -0.309
 -0.301  -0.299  -0.297  -0.295  -0.293  -0.276  -0.273  -0.269
 -0.267  -0.251  -0.249  -0.244  -0.240  -0.235  -0.220  -0.179
 -0.176  -0.173  -0.162  -0.157  -0.155  -0.148  -0.143  -0.138
 -0.135
 -- Virtual --
  0.097   0.099   0.104   0.118   0.214   0.243   0.251   0.253
  0.270   0.280   0.289   0.294   0.311   0.322   0.334   0.336
  0.343   0.346   0.350   0.353   0.359   0.369   0.373   0.377
  0.380   0.382   0.386   0.397   0.409   0.413   0.415   0.417
  0.422   0.424   0.426   0.429   0.433   0.434   0.436   0.438
  0.441   0.442   0.444   0.446   0.450   0.454   0.460   0.469
  0.475   0.484   0.492   0.494   0.500   0.511   0.517   0.544
  0.549   0.561   0.565   0.636   0.642   0.660   0.661
 --------------------------------------------------------------
 
          Ground-State Mulliken Net Atomic Charges

     Atom                 Charge (a.u.)
  ----------------------------------------
      1 O                    -0.222224
      2 C                     0.215103
      3 C                    -0.081730
      4 C                    -0.077570
      5 C                     0.220730
      6 O                    -0.166259
      7 C                    -0.050975
      8 C                    -0.054084
      9 O                    -0.170070
     10 C                     0.208526
     11 C                    -0.080366
     12 C                    -0.087712
     13 C                     0.212225
     14 O                    -0.222328
     15 O                    -0.174931
     16 O                    -0.157651
     17 O                    -0.216171
     18 C                    -0.125847
     19 C                     0.025339
     20 C                    -0.143228
     21 C                    -0.143549
     22 C                     0.024666
     23 O                    -0.186854
     24 H                     0.100852
     25 H                     0.106088
     26 H                     0.081694
     27 H                     0.075899
     28 H                     0.078090
     29 H                     0.075308
     30 H                     0.074635
     31 H                     0.084890
     32 O                    -0.209440
     33 C                    -0.128050
     34 C                     0.024568
     35 C                    -0.144704
     36 C                    -0.145537
     37 C                     0.009241
     38 O                    -0.199808
     39 H                     0.083064
     40 H                     0.086436
     41 H                     0.091064
     42 H                     0.085539
     43 H                     0.074617
     44 H                     0.072807
     45 H                     0.075753
     46 H                     0.072068
     47 H                     0.114110
     48 H                     0.085580
     49 H                     0.085057
     50 H                     0.092714
     51 H                     0.093543
     52 H                     0.087646
     53 H                     0.098180
     54 H                     0.085320
     55 H                     0.098104
     56 H                     0.089635
  ----------------------------------------
  Sum of atomic charges =    -0.000000

 -----------------------------------------------------------------
                    Cartesian Multipole Moments
 -----------------------------------------------------------------
    Charge (ESU x 10^10)
                -0.0000
    Dipole Moment (Debye)
         X      -1.2627      Y       0.0510      Z      -1.7439
       Tot       2.1537
    Quadrupole Moments (Debye-Ang)
        XX    -161.7767     XY      -2.7245     YY    -146.6408
        XZ      -2.6936     YZ       1.6272     ZZ    -156.4145
    Octopole Moments (Debye-Ang^2)
       XXX     -56.9961    XXY       2.1032    XYY      -8.5270
       YYY      53.7189    XXZ     -30.4986    XYZ     -13.7608
       YYZ      -1.1194    XZZ       3.2622    YZZ       9.5894
       ZZZ       3.6819
    Hexadecapole Moments (Debye-Ang^3)
      XXXX   -7286.1880   XXXY      18.2229   XXYY   -1709.7171
      XYYY     -20.3494   YYYY   -2899.7398   XXXZ    -369.3372
      XXYZ      -9.6026   XYYZ     -18.0924   YYYZ      25.3371
      XXZZ   -1530.6667   XYZZ      11.7034   YYZZ    -905.9177
      XZZZ     -43.3414   YZZZ      45.4441   ZZZZ   -2396.6838
 -----------------------------------------------------------------
Archival summary:
1\1\vega02.cac.cornell.edu\OPT\ProcedureUnspecified\STO-3G\102026\jj585\MonJan1518:25:182018MonJan1518:25:182018\0\\#,OPT,ProcedureUnspecified,STO-3G,\\0,1\O\C,1,1.47921\H,2,1.1072,1,110.509\C,1,1.48337,2,95.6806,3,-178.386,0\H,4,1.11912,1,109.307,2,-176.864,0\C,2,1.57679,1,103.204,3,-124.766,0\H,6,1.10154,2,112.153,1,-156.935,0\H,6,1.10181,2,110.567,1,81.5312,0\C,6,1.57442,2,100.812,1,-36.6137,0\H,9,1.10164,6,112.57,2,-117.926,0\H,9,1.10172,6,111.559,2,119.769,0\C,2,1.58291,1,103.483,3,122.643,0\H,12,1.10468,2,111.24,1,149.108,0\C,12,1.57417,2,112.194,1,-90.6722,0\O,14,1.24966,12,127.257,2,12.3293,0\O,14,1.43675,12,107.63,2,-158.732,0\C,16,1.47858,14,109.637,12,-178.074,0\H,17,1.10561,16,106.228,14,-177.006,0\H,17,1.10934,16,111.095,14,63.9298,0\H,17,1.10948,16,111.762,14,-57.5073,0\C,12,1.58714,2,101.566,1,32.2354,0\H,21,1.10527,12,111.945,2,121.743,0\C,21,1.5691,12,112.099,2,-115.85,0\O,23,1.25262,21,126.66,12,-15.4094,0\O,23,1.42699,21,109.261,12,164.614,0\C,25,1.48619,23,110.594,21,176.362,0\H,26,1.10843,25,107.256,23,-142.224,0\H,26,1.11,25,109.396,23,-22.2778,0\C,26,1.5777,25,108.241,23,97.789,0\H,29,1.11093,26,110.911,25,-149.608,0\H,29,1.11124,26,112.317,25,87.7951,0\O,29,1.48095,26,105.596,25,-30.584,0\C,32,1.42965,29,111.508,26,134.77,0\O,33,1.25096,32,124.235,29,0.44458,0\C,33,1.56167,32,106.641,29,-177.246,0\H,35,1.10454,33,107.846,32,-2.06128,0\C,35,1.58756,33,113.313,32,-127.391,0\H,37,1.10718,35,114.72,33,34.8504,0\O,37,1.48043,35,103.715,33,-85.7576,0\C,39,1.48298,37,95.0675,35,-56.2859,0\H,40,1.10671,39,110.372,37,-179.835,0\C,37,1.57975,35,107.69,33,164.824,0\H,42,1.10161,37,110.409,35,-167.363,0\H,42,1.10178,37,112.082,35,-45.8349,0\C,42,1.57368,37,101.082,35,74.4637,0\H,45,1.10177,42,111.528,37,117.651,0\H,45,1.10188,42,112.626,37,-119.801,0\C,40,1.581,39,103.442,37,56.9679,0\H,48,1.10971,40,114.161,39,-151.01,0\C,48,1.56606,40,114.285,39,83.9675,0\O,50,1.25743,48,126.113,40,163.106,0\O,50,1.42293,48,110.591,40,-16.7553,0\C,52,1.48158,50,110.051,48,-175.502,0\H,53,1.1053,52,105.904,50,-179.645,0\H,53,1.1089,52,111.073,50,61.3695,0\H,53,1.10931,52,111.638,50,-60.212,0\\\@

 Total job time:  57.28s(wall), 2722.04s(cpu) 
 Mon Jan 15 18:25:18 2018

        *************************************************************
        *                                                           *
        *  Thank you very much for using Q-Chem.  Have a nice day.  *
        *                                                           *
        *************************************************************


0 sent ACK to 0 
now end server 0 ... 
