mFile = /opt/software/qchem/qchem-5.0.1//bin/mpi/machines
Process 0 of 1 is on vega02.cac.cornell.edu - thread support 0
initial socket setup ...start
initial socket setup ...done 
now start server 0 ... 
vega02.cac.cornell.edu 10.84.3
Q-Chem Developer Version! Running on 10.84.3.*
                  Welcome to Q-Chem
     A Quantum Leap Into The Future Of Chemistry


 Q-Chem 5.0, Q-Chem, Inc., Pleasanton, CA (2017)

 Yihan Shao,  Zhengting Gan,  E. Epifanovsky,  A. T. B. Gilbert,  M. Wormit,  
 J. Kussmann,  A. W. Lange,  A. Behn,  Jia Deng,  Xintian Feng,  D. Ghosh,  
 M. Goldey,  P. R. Horn,  L. D. Jacobson,  I. Kaliman,  T. Kus,  A. Landau,  
 Jie Liu,  E. I. Proynov,  R. M. Richard,  R. P. Steele,  E. J. Sundstrom,  
 H. L. Woodcock III,  P. M. Zimmerman,  D. Zuev,  B. Albrecht,  E. Alguire,  
 S. A. Baeppler,  Z. Benda,  Y. A. Bernard,  E. J. Berquist,  K. B. Bravaya,  
 D. Casanova,  Chun-Min Chang,  Yunqing Chen,  A. Chien,  K. D. Closser,  
 M. P. Coons,  S. Dasgupta,  M. Diedenhofen,  Hainam Do,  R. G. Edgar,  
 Po-Tung Fang,  S. Fatehi,  Qingguo Feng,  Qinghui Ge,  A. Ghysels,  
 J. Gomes,  J. Gonthier,  A. Gunina,  M. W. D. Hanson-Heine,  
 P. H. P. Harbach,  A. W. Hauser,  J. E. Herr,  E. G. Hohenstein,  
 Z. C. Holden,  Kerwin Hui,  T.-C. Jagau,  Hyunjun Ji,  B. Kaduk,  
 K. Khistyaev,  Jaehoon Kim,  P. Klunzinger,  K. Koh,  D. Kosenkov,  
 T. Kowalczyk,  C. M. Krauter,  A. Kunitsa,  Ka Un Lao,  A. Laurent,  
 K. V. Lawler,  Joonho Lee,  D. Lefrancois,  S. Lehtola,  D. S. Levine,  
 Yi-Pei Li,  You-Sheng Lin,  Fenglai Liu,  E. Livshits,  A. Luenser,  
 P. Manohar,  E. Mansoor,  S. F. Manzer,  Shan-Ping Mao,  Yuezhi Mao,  
 N. Mardirossian,  A. V. Marenich,  L. A. Martinez-Martinez,  S. A. Maurer,  
 N. J. Mayhall,  S. C. McKenzie,  J.-M. Mewes,  A. F. Morrison,  K. Nanda,  
 T. S. Nguyen-Beck,  R. Olivares-Amaya,  J. A. Parkhill,  T. M. Perrine,  
 F. Plasser,  S. Prager,  A. Prociuk,  D. R. Rehn,  F. Rob,  M. Schneider,  
 N. Sergueev,  S. M. Sharada,  S. Sharma,  D. W. Small,  T. Stauch,  
 T. Stein,  Yu-Chuan Su,  A. J. W. Thom,  T. Tsuchimochi,  L. Vogt,  
 O. Vydrov,  M. A. Watson,  J. Wenzel,  M. de Wergifosse,  T. A. Wesolowski,  
 A. White,  J. Witte,  A. Yamada,  Jun Yang,  K. Yao,  S. Yeganeh,  
 S. R. Yost,  Zhi-Qiang You,  A. Zech,  Igor Ying Zhang,  Xing Zhang,  
 Yan Zhao,  Ying Zhu,  B. R. Brooks,  G. K. L. Chan,  C. J. Cramer,  
 M. S. Gordon,  W. J. Hehre,  A. Klamt,  M. W. Schmidt,  C. D. Sherrill,  
 D. G. Truhlar,  A. Aspuru-Guzik,  R. Baer,  A. T. Bell,  N. A. Besley,  
 Jeng-Da Chai,  A. Dreuw,  B. D. Dunietz,  T. R. Furlani,  Chao-Ping Hsu,  
 Yousung Jung,  Jing Kong,  D. S. Lambrecht,  WanZhen Liang,  C. Ochsenfeld,  
 V. A. Rassolov,  L. V. Slipchenko,  J. E. Subotnik,  T. Van Voorhis,  
 J. M. Herbert,  A. I. Krylov,  P. M. W. Gill,  M. Head-Gordon

 Contributors to earlier versions of Q-Chem not listed above: 
 R. D. Adamson,  B. Austin,  J. Baker,  G. J. O. Beran,  K. Brandhorst,  
 S. T. Brown,  E. F. C. Byrd,  A. K. Chakraborty,  C.-L. Cheng,  
 Siu Hung Chien,  D. M. Chipman,  D. L. Crittenden,  H. Dachsel,  
 R. A. DiStasio Jr.,  R. J. Doerksen,  A. D. Dutoi,  L. Fusti-Molnar,  
 W. A. Goddard III,  A. Golubeva-Zadorozhnaya,  S. R. Gwaltney,  G. Hawkins,  
 A. Heyden,  S. Hirata,  G. Kedziora,  F. J. Keil,  C. Kelley,  Jihan Kim,  
 R. A. King,  R. Z. Khaliullin,  P. P. Korambath,  W. Kurlancheek,  
 A. M. Lee,  M. S. Lee,  S. V. Levchenko,  Ching Yeh Lin,  D. Liotard,  
 R. C. Lochan,  I. Lotan,  P. E. Maslen,  N. Nair,  D. P. O'Neill,  
 D. Neuhauser,  E. Neuscamman,  C. M. Oana,  R. Olson,  B. Peters,  
 R. Peverati,  P. A. Pieniazek,  Y. M. Rhee,  J. Ritchie,  M. A. Rohrdanz,  
 E. Rosta,  N. J. Russ,  H. F. Schaefer III,  N. E. Schultz,  N. Shenvi,  
 A. C. Simmonett,  A. Sodt,  D. Stuck,  K. S. Thanthiriwatte,  V. Vanovschi,  
 Tao Wang,  A. Warshel,  C. F. Williams,  Q. Wu,  X. Xu,  W. Zhang

 Please cite Q-Chem as follows:
 Y. Shao et al., Mol. Phys. 113, 184-215 (2015)
 DOI: 10.1080/00268976.2014.952696

 Q-Chem 5.0.1 for Intel X86 EM64T Linux

 Parts of Q-Chem use Armadillo 5.200.1 (Boston Tea Smuggler).
 http://arma.sourceforge.net/

 Q-Chem begins on Mon Jan 15 20:23:28 2018  

Host: vega02.cac.cornell.edu
0

     Scratch files written to /scratch/jj585/SOT1001/0908c.save//
 Parallel job on  1  processors

Checking the input file for inconsistencies... 	...done.

--------------------------------------------------------------
User input:
--------------------------------------------------------------
$molecule
0  1
O -3.94934 -3.66094 2.70899
C -3.26408 -4.56952 2.26188
C -3.36658 -6.02376 2.66595
C -4.70433 -6.49564 3.25891
C -5.84711 -5.50547 3.21741
O -5.76375 -4.65575 4.28345
C -6.22747 -3.3341 3.98772
C -5.09431 -2.49835 3.40155
O -5.35518 -2.22312 2.01625
C -5.45047 -0.91013 1.69049
C -5.72508 -0.68659 0.2224
C -6.9451 0.19533 -0.08098
C -7.48459 1.00043 1.08413
O -8.07808 2.06552 0.99529
O -2.21107 -4.24151 1.46668
O -7.73581 0.28675 2.21682
O -5.1237 0.01601 2.42808
C -8.36422 0.7788 3.3426
C -4.61015 0.09676 -0.4955
C -4.64694 -0.21476 -1.99
C -5.92788 0.48848 -2.39184
C -6.28812 1.18042 -1.07054
O -5.04348 1.43374 -0.46442
H -5.82692 -1.68494 -0.26378
H -7.79694 -0.37051 -0.5178
H -3.59698 -0.10108 -0.08197
H -3.78625 0.32164 -2.4505
H -4.59205 -1.29119 -2.26059
H -5.68439 1.23397 -3.18105
H -6.74918 -0.17786 -2.73414
H -6.92143 2.07269 -1.26945
O -6.76057 -5.50103 2.39998
C -1.94191 -2.96269 1.02416
C -3.29025 -6.93959 1.42001
C -2.84223 -8.34249 1.82751
C -4.08951 -8.8425 2.51819
C -5.02523 -7.65196 2.2868
O -4.62671 -7.13909 1.0429
H -2.4869 -6.24125 3.31152
H -4.63093 -6.89585 4.29497
H -1.76888 -2.28539 1.8877
H -2.61676 -6.55818 0.62204
H -2.69677 -8.93039 0.89277
H -1.9122 -8.38175 2.43445
H -4.46158 -9.73575 1.96836
H -3.97364 -9.08235 3.59727
H -6.08372 -7.9877 2.3591
H -2.79065 -2.58389 0.41511
H -1.02958 -2.97985 0.39364
H -8.4198 -0.02392 4.10632
H -9.39561 1.10877 3.09496
H -7.78544 1.63031 3.75984
H -5.49583 -1.59545 3.91766
H -4.18866 -2.08139 3.98144
H -6.55461 -2.9379 4.98228
H -7.15596 -3.30802 3.37104
$end

$opt
CONSTRAINT
tors           1           2           3           4     +23.537
tors           3           4           5           6     -83.555
tors           4           5           6           7    +146.506
tors           5           6           7           8     -86.726
tors           6           7           8           9    +111.090
tors           7           8           9          10    +119.979
tors           8           9          10          11    -180.000
tors           9          10          11          12    +126.354
tors          11          12          13          14    +152.028
ENDCONSTRAINT
$end

$rem
JOBTYPE                   OPT
METHOD                    B3LYP
DFT_D                     d3_op
BASIS                     STO-3G
GEOM_OPT_MAX_CYCLES       100
GEOM_OPT_TOL_GRADIENT     300
GEOM_OPT_TOL_DISPLACEMENT 1200
GEOM_OPT_TOL_ENERGY       100
SYMMETRY                  False
THRESH                    12
SCF_CONVERGENCE           8
MAX_SUB_FILE_NUM          128
MEM_STATIC                400
MEM_TOTAL                 4000
$end
--------------------------------------------------------------
 Adding empirical dispersion correction 
 ----------------------------------------------------------------
 Doing -D3(op) with
 s6 =   1.00000
 s8 =   0.78311
 a1 =   0.30000
 a2 =   4.25000
 n  =  10.00000
 -D3 energy without 3body term =     -0.0704200065 hartrees
 ----------------------------------------------------------------
             Standard Nuclear Orientation (Angstroms)
    I     Atom           X                Y                Z
 ----------------------------------------------------------------
    1      O       1.4301264446    -0.0699966174     1.2110300254
    2      C       2.3608160774     0.7122686287     1.0810910855
    3      C       3.7714290828     0.3364119804     0.6842340312
    4      C       3.9558770247    -0.9753633804    -0.0961964385
    5      C       2.6929090835    -1.6750842037    -0.5472039287
    6      O       2.1982902608    -2.4408950928     0.4698015540
    7      C       0.7684960678    -2.5106834535     0.4781288667
    8      C       0.1893984333    -1.3351290445     1.2584125832
    9      O      -0.4851646574    -0.4378041881     0.3625144089
   10      C      -1.8049127647    -0.2486952004     0.6107989750
   11      C      -2.4564090896     0.7034505920    -0.3636957456
   12      C      -3.7074025450     0.1555103365    -1.0658694864
   13      C      -4.3214478753    -1.0850831649    -0.4489473852
   14      O      -5.5019745771    -1.3968543911    -0.5097342477
   15      O       2.1742939103     1.9971913919     1.4847575738
   16      O      -3.4573769078    -2.1160414642    -0.2346027673
   17      O      -2.3790355930    -0.6063639354     1.6359862723
   18      C      -3.8189306230    -3.3832894448     0.1749755595
   19      C      -3.0252457270     1.9685531919     0.3056523172
   20      C      -3.1192224688     3.0932877916    -0.7229724523
   21      C      -4.2479562362     2.5820267107    -1.5955556038
   22      C      -4.6656817684     1.3361804889    -0.8032424823
   23      O      -4.3791690026     1.6671231776     0.5343181997
   24      H      -1.6865571215     1.0119411470    -1.1090859959
   25      H      -3.5470473708    -0.0540413002    -2.1461436800
   26      H      -2.4392306228     2.2993687975     1.1909819215
   27      H      -3.4721318348     3.9979283795    -0.1773967268
   28      H      -2.1773735841     3.3364685659    -1.2602965578
   29      H      -5.0585518483     3.3441335726    -1.6003544501
   30      H      -3.9624334029     2.3194163471    -2.6372966869
   31      H      -5.7259578046     1.0835133408    -1.0240739483
   32      O       2.2147883225    -1.6317302357    -1.6750965041
   33      C       0.9654425385     2.5092893195     1.9091226549
   34      C       4.3298954374     1.3426650786    -0.3513852880
   35      C       5.8576378596     1.3165414931    -0.3363111401
   36      C       6.1191255373    -0.0124014116    -1.0058566661
   37      C       4.6858866301    -0.4337212253    -1.3446996850
   38      O       4.0232075777     0.7769922403    -1.5980184860
   39      H       4.3933820173     0.4035076504     1.6043275839
   40      H       4.6034344669    -1.7243415080     0.4124066003
   41      H       0.6062897196     1.9564810174     2.8034314585
   42      H       3.9806492753     2.3867863819    -0.1975792039
   43      H       6.2113718164     2.1278993523    -1.0123988573
   44      H       6.3206374039     1.4455200853     0.6656216206
   45      H       6.6959785140     0.1720092950    -1.9396007482
   46      H       6.6420961835    -0.7672704740    -0.3797241499
   47      H       4.6987931949    -1.1667390477    -2.1818782862
   48      H       0.2129894508     2.4339165045     1.0949210707
   49      H       1.0961944001     3.5776886817     2.1767468661
   50      H      -2.9060299223    -4.0055271320     0.2757195147
   51      H      -4.4910954435    -3.8532406466    -0.5742316378
   52      H      -4.3287107706    -3.3335136450     1.1607703439
   53      H      -0.6346268308    -1.9887912934     1.6279045059
   54      H       0.2177677254    -1.2010362579     2.4036393224
   55      H       0.5523538736    -3.4842642438     0.9866243041
   56      H       0.3156942464    -2.6311911495    -0.5335610435
 ----------------------------------------------------------------
 Molecular Point Group                 C1    NOp =  1
 Largest Abelian Subgroup              C1    NOp =  1
 Nuclear Repulsion Energy =  3297.1013676077 hartrees
 There are      113 alpha and      113 beta electrons
 Requested basis set is STO-3G
 There are 86 shells and 176 basis functions

 Total QAlloc Memory Limit   4000 MB
 Mega-Array Size       392 MB
 MEM_STATIC part       400 MB
 A cutoff of  1.0D-12 yielded   2324 shell pairs
 There are     11084 function pairs
 
 -------------------------------------------------------
 OpenMP Integral Computing Module                       
 Release: version 1.0, May 2013, Q-Chem Inc. Pittsburgh 
 -------------------------------------------------------
 Integral Job Info:
 Integral job number is                      11
 Integral operator is                         1
 short-range coefficients                     0
 long-range coefficients              100000000
 Omega coefficients                           0
 if combine SR and LR in K                    0
 Integral screening is                        0
 Integral computing path is                   2
 max size of driver memory is            800000
 size of driver memory is                 45569
 size of scratch memory is              1046100
 max col of scratch BK array                289
 max len of scratch array in speh3           22
 max len of scratch index in speh4            8
 max int batch size is                      520
 min int batch size is                       52
 fixed nKL is                                52
 max L of basis functions is                  1
 order of int derivative is                   0
 number of shells is                         86
 number of basis is                         176
 number of cartesian basis is               176
 number of contracted shell pairs          2324
 number of primitive shell pairs          11700
 maxK2 (contraction) of shell pair            9
 max number of K2 of shell pair               1
 max number of CS2 of shell pair            339
 max number of PS2 of shell pair           1332
 mem total for path MDJ                   53962
 -------------------------------------------------------
 Smallest overlap matrix eigenvalue = 1.93E-01

 Scale SEOQF with 1.000000e-02/1.000000e-01/1.000000e-01

 Standard Electronic Orientation quadrupole field applied
 Nucleus-field energy     =     0.0000000318 hartrees
 Guess from superposition of atomic densities
 Warning:  Energy on first SCF cycle will be non-variational
 A restricted hybrid HF-DFT SCF calculation will be
 performed using Pulay DIIS extrapolation
 Exchange:     0.2000 Hartree-Fock + 0.0800 Slater + 0.7200 B88
 Correlation:  0.1900 VWN1RPA + 0.8100 LYP
 Using SG-1 standard quadrature grid
 Dispersion:   Grimme D3
 SCF converges when DIIS error is below 1.0E-08
 using 48 threads for integral computing
 -------------------------------------------------------
 OpenMP Integral computing Module                
 Release: version 1.0, May 2013, Q-Chem Inc. Pittsburgh 
 -------------------------------------------------------
 -------------------------------------------------------
 OpenMP BLAS3 based DFT computing Module                
 Release: version 1.0, May 2013, Q-Chem Inc. Pittsburgh 
 -------------------------------------------------------
 ---------------------------------------
  Cycle       Energy         DIIS Error
 ---------------------------------------
    1   -1509.5466259843      8.32E-02
    2   -1509.4784349575      1.02E-02
    3   -1507.7881180363      2.33E-02
    4   -1509.9408087157      3.53E-03
    5   -1509.9909842385      1.20E-03
    6   -1509.9959873771      6.07E-04
    7   -1509.9974748938      1.36E-04
    8   -1509.9975545143      2.58E-05
    9   -1509.9975559990      1.89E-05
   10   -1509.9975575351      3.26E-06
   11   -1509.9975575844      6.83E-07
   12   -1509.9975575865      1.71E-07
   13   -1509.9975575866      7.40E-08
   14   -1509.9975575866      3.77E-08
   15   -1509.9975575866      8.18E-09 Convergence criterion met
 ---------------------------------------
 SCF time:  CPU 115.03 s  wall 2.45 s
 SCF   energy in the final basis set = -1509.99755759
 Total energy in the final basis set = -1509.99755759
 
 --------------------------------------------------------------
 
                    Orbital Energies (a.u.)
 --------------------------------------------------------------
 
 Alpha MOs
 -- Occupied --
-18.956 -18.924 -18.917 -18.917 -18.903 -18.895 -18.895 -18.861
-18.847 -18.838 -10.137 -10.102 -10.101 -10.097 -10.091 -10.072
-10.071 -10.070 -10.066 -10.065 -10.062 -10.058 -10.054 -10.038
-10.038 -10.026 -10.018 -10.016 -10.014 -10.013  -1.069  -1.036
 -1.033  -1.028  -1.022  -1.019  -0.976  -0.942  -0.936  -0.928
 -0.789  -0.777  -0.748  -0.739  -0.733  -0.723  -0.709  -0.694
 -0.672  -0.634  -0.607  -0.586  -0.561  -0.548  -0.538  -0.536
 -0.534  -0.519  -0.504  -0.498  -0.484  -0.481  -0.474  -0.458
 -0.450  -0.446  -0.441  -0.437  -0.432  -0.421  -0.419  -0.415
 -0.412  -0.396  -0.391  -0.383  -0.372  -0.367  -0.362  -0.357
 -0.353  -0.346  -0.342  -0.338  -0.329  -0.322  -0.318  -0.313
 -0.311  -0.304  -0.302  -0.298  -0.293  -0.287  -0.281  -0.273
 -0.261  -0.241  -0.239  -0.234  -0.231  -0.216  -0.201  -0.185
 -0.177  -0.160  -0.157  -0.152  -0.148  -0.146  -0.139  -0.131
 -0.125
 -- Virtual --
  0.090   0.113   0.115   0.133   0.242   0.246   0.256   0.267
  0.304   0.306   0.325   0.330   0.334   0.339   0.342   0.350
  0.354   0.373   0.378   0.381   0.384   0.388   0.392   0.400
  0.402   0.406   0.411   0.413   0.415   0.417   0.423   0.425
  0.434   0.434   0.442   0.444   0.446   0.452   0.454   0.456
  0.467   0.468   0.474   0.483   0.486   0.487   0.490   0.497
  0.501   0.504   0.516   0.529   0.539   0.544   0.551   0.559
  0.567   0.577   0.584   0.689   0.691   0.696   0.711
 --------------------------------------------------------------
 
          Ground-State Mulliken Net Atomic Charges

     Atom                 Charge (a.u.)
  ----------------------------------------
      1 O                    -0.198942
      2 C                     0.252910
      3 C                    -0.081757
      4 C                    -0.084459
      5 C                     0.232501
      6 O                    -0.199181
      7 C                    -0.028744
      8 C                     0.008245
      9 O                    -0.193377
     10 C                     0.231560
     11 C                    -0.084923
     12 C                    -0.078101
     13 C                     0.242663
     14 O                    -0.236477
     15 O                    -0.205322
     16 O                    -0.213295
     17 O                    -0.240608
     18 C                    -0.096445
     19 C                     0.040390
     20 C                    -0.142141
     21 C                    -0.144152
     22 C                     0.040212
     23 O                    -0.208848
     24 H                     0.080636
     25 H                     0.090514
     26 H                     0.079035
     27 H                     0.073777
     28 H                     0.071029
     29 H                     0.075634
     30 H                     0.071860
     31 H                     0.091588
     32 O                    -0.224728
     33 C                    -0.098581
     34 C                     0.039652
     35 C                    -0.142769
     36 C                    -0.145085
     37 C                     0.042136
     38 O                    -0.209563
     39 H                     0.093564
     40 H                     0.087025
     41 H                     0.090857
     42 H                     0.087432
     43 H                     0.075291
     44 H                     0.071149
     45 H                     0.075544
     46 H                     0.071054
     47 H                     0.087877
     48 H                     0.091465
     49 H                     0.099247
     50 H                     0.090474
     51 H                     0.084299
     52 H                     0.089908
     53 H                     0.039249
     54 H                     0.077310
     55 H                     0.081986
     56 H                     0.099423
  ----------------------------------------
  Sum of atomic charges =    -0.000000

 -----------------------------------------------------------------
                    Cartesian Multipole Moments
 -----------------------------------------------------------------
    Charge (ESU x 10^10)
                -0.0000
    Dipole Moment (Debye)
         X       3.9975      Y       1.5336      Z       0.7831
       Tot       4.3526
    Quadrupole Moments (Debye-Ang)
        XX    -165.4730     XY      -0.9289     YY    -149.1186
        XZ      12.4080     YZ       0.5902     ZZ    -162.0989
    Octopole Moments (Debye-Ang^2)
       XXX     179.5994    XXY       3.7506    XYY     -27.3382
       YYY     -31.8255    XXZ     -17.2654    XYZ      13.4523
       YYZ      12.2636    XZZ     -10.5554    YZZ       0.0743
       ZZZ      18.9258
    Hexadecapole Moments (Debye-Ang^3)
      XXXX  -12726.3933   XXXY    -110.0415   XXYY   -2521.7809
      XYYY     122.9599   YYYY   -2908.8052   XXXZ      56.5106
      XXYZ     -36.5434   XYYZ     -18.2659   YYYZ      38.3674
      XXZZ   -2262.1395   XYZZ      21.4154   YYZZ    -697.0414
      XZZZ      18.0077   YZZZ      34.8853   ZZZZ   -1154.6082
 -----------------------------------------------------------------
 Calculating analytic gradient of the SCF energy
 Gradient of SCF Energy
            1           2           3           4           5           6
    1  -0.0251203   0.0032273  -0.0226665  -0.0360373  -0.0036968  -0.0252826
    2  -0.0230821  -0.0002440  -0.0200468   0.0265392  -0.0076916   0.0273131
    3   0.0152414  -0.0105341  -0.0277412  -0.0144651   0.0010335  -0.0334096
            7           8           9          10          11          12
    1  -0.0183549   0.1442988  -0.0411925   0.0235917  -0.0450979  -0.0135031
    2   0.0392220   0.1207034  -0.0284255  -0.0160974  -0.0043715  -0.0028285
    3  -0.0040928  -0.0918254   0.0441460  -0.0165850   0.0483744   0.0217027
           13          14          15          16          17          18
    1   0.0146235   0.0834624  -0.1093402  -0.1206632   0.0230248   0.0366922
    2   0.0344405  -0.0092202  -0.0500562  -0.0420123   0.0246181   0.0381777
    3   0.0152180  -0.0069266   0.0159852   0.0137388  -0.0477119  -0.0164960
           19          20          21          22          23          24
    1  -0.0601224  -0.0252108   0.0153623   0.0540066   0.0491857   0.0053876
    2  -0.0212978  -0.0462384  -0.0167219   0.0149634   0.0005411   0.0051246
    3  -0.0289415   0.0036594   0.0408113   0.0489880  -0.0719393  -0.0029660
           25          26          27          28          29          30
    1  -0.0009761   0.0105707  -0.0085413   0.0059585  -0.0022994   0.0014869
    2  -0.0020644   0.0069771   0.0036597   0.0031495   0.0110506  -0.0060116
    3  -0.0049047  -0.0047438   0.0063140  -0.0047996   0.0069554  -0.0068113
           31          32          33          34          35          36
    1  -0.0015408   0.0230566   0.0605495  -0.0015489  -0.0348651  -0.0434377
    2   0.0040454  -0.0066639   0.0013927  -0.0623452  -0.0367401   0.0233177
    3  -0.0135861   0.0481451  -0.0130662  -0.0394100  -0.0164133   0.0090720
           37          38          39          40          41          42
    1  -0.0233499   0.0457759   0.0031134   0.0062791   0.0083795   0.0106451
    2   0.0661403  -0.0300639   0.0064630  -0.0076501  -0.0012942   0.0061098
    3   0.0297566   0.0665021   0.0034054  -0.0053137  -0.0010669   0.0061252
           43          44          45          46          47          48
    1   0.0004513   0.0045476   0.0025664   0.0016949   0.0119892   0.0078717
    2   0.0027260   0.0006273   0.0103272  -0.0068919  -0.0080694  -0.0007365
    3  -0.0115786   0.0068548  -0.0074075   0.0049373   0.0013257  -0.0035403
           49          50          51          52          53          54
    1  -0.0035998  -0.0013624   0.0048690   0.0041336   0.0557421  -0.0537454
    2   0.0012123  -0.0032393   0.0067496   0.0079395   0.0160145  -0.0272340
    3   0.0010186   0.0008651  -0.0030754  -0.0011884   0.0322345   0.0209927
           55          56
    1  -0.0000132  -0.0009757
    2  -0.0088330  -0.0133739
    3  -0.0035926   0.0007296
 Max gradient component =       1.443E-01
 RMS gradient           =       3.233E-02
 Gradient time:  CPU 33.00 s  wall 0.70 s
 Geometry Optimization Parameters
   NAtoms,    NIC,     NZ,  NCons,   NDum,   NFix, NCnnct, MaxDiis
       56     474       0       9       0       0       0       0


** CONSTRAINED OPTIMIZATION IN DELOCALIZED INTERNAL COORDINATES **
   Searching for a Minimum

   Optimization Cycle:   1

                       Coordinates (Angstroms)
     ATOM                X               Y               Z
      1  O         1.4301264446   -0.0699966174    1.2110300254
      2  C         2.3608160774    0.7122686287    1.0810910855
      3  C         3.7714290828    0.3364119804    0.6842340312
      4  C         3.9558770247   -0.9753633804   -0.0961964385
      5  C         2.6929090835   -1.6750842037   -0.5472039287
      6  O         2.1982902608   -2.4408950928    0.4698015540
      7  C         0.7684960678   -2.5106834535    0.4781288667
      8  C         0.1893984333   -1.3351290445    1.2584125832
      9  O        -0.4851646574   -0.4378041881    0.3625144089
     10  C        -1.8049127647   -0.2486952004    0.6107989750
     11  C        -2.4564090896    0.7034505920   -0.3636957456
     12  C        -3.7074025450    0.1555103365   -1.0658694864
     13  C        -4.3214478753   -1.0850831649   -0.4489473852
     14  O        -5.5019745771   -1.3968543911   -0.5097342477
     15  O         2.1742939103    1.9971913919    1.4847575738
     16  O        -3.4573769078   -2.1160414642   -0.2346027673
     17  O        -2.3790355930   -0.6063639354    1.6359862723
     18  C        -3.8189306230   -3.3832894448    0.1749755595
     19  C        -3.0252457270    1.9685531919    0.3056523172
     20  C        -3.1192224688    3.0932877916   -0.7229724523
     21  C        -4.2479562362    2.5820267107   -1.5955556038
     22  C        -4.6656817684    1.3361804889   -0.8032424823
     23  O        -4.3791690026    1.6671231776    0.5343181997
     24  H        -1.6865571215    1.0119411470   -1.1090859959
     25  H        -3.5470473708   -0.0540413002   -2.1461436800
     26  H        -2.4392306228    2.2993687975    1.1909819215
     27  H        -3.4721318348    3.9979283795   -0.1773967268
     28  H        -2.1773735841    3.3364685659   -1.2602965578
     29  H        -5.0585518483    3.3441335726   -1.6003544501
     30  H        -3.9624334029    2.3194163471   -2.6372966869
     31  H        -5.7259578046    1.0835133408   -1.0240739483
     32  O         2.2147883225   -1.6317302357   -1.6750965041
     33  C         0.9654425385    2.5092893195    1.9091226549
     34  C         4.3298954374    1.3426650786   -0.3513852880
     35  C         5.8576378596    1.3165414931   -0.3363111401
     36  C         6.1191255373   -0.0124014116   -1.0058566661
     37  C         4.6858866301   -0.4337212253   -1.3446996850
     38  O         4.0232075777    0.7769922403   -1.5980184860
     39  H         4.3933820173    0.4035076504    1.6043275839
     40  H         4.6034344669   -1.7243415080    0.4124066003
     41  H         0.6062897196    1.9564810174    2.8034314585
     42  H         3.9806492753    2.3867863819   -0.1975792039
     43  H         6.2113718164    2.1278993523   -1.0123988573
     44  H         6.3206374039    1.4455200853    0.6656216206
     45  H         6.6959785140    0.1720092950   -1.9396007482
     46  H         6.6420961835   -0.7672704740   -0.3797241499
     47  H         4.6987931949   -1.1667390477   -2.1818782862
     48  H         0.2129894508    2.4339165045    1.0949210707
     49  H         1.0961944001    3.5776886817    2.1767468661
     50  H        -2.9060299223   -4.0055271320    0.2757195147
     51  H        -4.4910954435   -3.8532406466   -0.5742316378
     52  H        -4.3287107706   -3.3335136450    1.1607703439
     53  H        -0.6346268308   -1.9887912934    1.6279045059
     54  H         0.2177677254   -1.2010362579    2.4036393224
     55  H         0.5523538736   -3.4842642438    0.9866243041
     56  H         0.3156942464   -2.6311911495   -0.5335610435
   Point Group: c1    Number of degrees of freedom:   162


   Energy is  -1509.997557587

              Constraints and their Current Values
                                        Value     Constraint
   Dihedral:        1   2   3   4       23.537       23.537
   Dihedral:        3   4   5   6      -83.555      -83.555
   Dihedral:        4   5   6   7      146.506      146.506
   Dihedral:        5   6   7   8      -86.726      -86.726
   Dihedral:        6   7   8   9      111.090      111.090
   Dihedral:        7   8   9  10      119.979      119.979
   Dihedral:        8   9  10  11     -180.000     -180.000
   Dihedral:        9  10  11  12      126.354      126.354
   Dihedral:       11  12  13  14      152.028      152.028

 Attempting to Generate Delocalized Internal Coordinates

   Using Lagrange Multiplier Algorithm


167 Hessian modes will be used to form the next step
  Hessian Eigenvalues:
    -0.977753   -0.977753   -0.977753   -0.977753   -0.977753   -0.977753
    -0.977753    0.045000    0.045000    0.045000    0.045000    0.045076
     0.045478    0.045601    0.045650    0.046732    0.047332    0.048885
     0.050607    0.052194    0.054334    0.059976    0.060294    0.062755
     0.064721    0.066505    0.067073    0.067710    0.067714    0.068282
     0.072114    0.072763    0.073861    0.075817    0.076180    0.076836
     0.078139    0.078689    0.081730    0.082563    0.083667    0.084474
     0.084531    0.084825    0.085765    0.086697    0.087226    0.088098
     0.088847    0.088967    0.089070    0.089546    0.089873    0.093530
     0.093905    0.095004    0.096618    0.096657    0.097765    0.105370
     0.110347    0.111512    0.111518    0.114609    0.114662    0.115853
     0.115990    0.116535    0.118712    0.119654    0.120565    0.124123
     0.126481    0.128113    0.131029    0.139042    0.139496    0.151260
     0.159115    0.160000    0.160000    0.160000    0.160000    0.160000
     0.160000    0.170230    0.171265    0.172142    0.174333    0.179864
     0.197583    0.208533    0.236489    0.238700    0.241648    0.244910
     0.248289    0.249374    0.250000    0.250000    0.250000    0.250000
     0.250000    0.252065    0.258647    0.267059    0.267174    0.276765
     0.278468    0.280190    0.283750    0.284051    0.293048    0.295148
     0.296461    0.302103    0.308049    0.309066    0.313315    0.316207
     0.320661    0.320836    0.320871    0.322000    0.322022    0.322747
     0.322903    0.323041    0.323253    0.323255    0.323775    0.323837
     0.323857    0.324235    0.324285    0.324448    0.324653    0.324682
     0.324721    0.324918    0.325027    0.325110    0.326661    0.326910
     0.369038    0.372101    0.384201    0.385516    0.398392    0.401018
     0.470103    0.491027    0.491519    0.525164    0.530097    0.537334
     0.887746    0.918272    0.928529    0.942782    1.022753    1.022753
     1.022753    1.022753    1.022753    1.022753    1.022753

 Minimum Search - Taking P-RFO Step
 Searching for Lamda that Maximizes Along the Constraint modes Only
 Value Taken    Lamda =   0.00192922
 Searching for Lamda that Minimizes Along All other modes
 Value Taken    Lamda =  -0.21941849
 Calculated Step too Large.  Step scaled by  0.451550
 Step Taken.  Stepsize is  0.300000

                             Maximum     Tolerance    Cnvgd?
         Gradient            0.112842       0.000300      NO
         Displacement        0.096935       0.001200      NO
         Energy change     *********       0.000001      NO


 New Cartesian Coordinates Obtained by Inverse Iteration

 Displacement from previous Coordinates is:  1.187859
 Adding empirical dispersion correction 
 ----------------------------------------------------------------
 Doing -D3(op) with
 s6 =   1.00000
 s8 =   0.78311
 a1 =   0.30000
 a2 =   4.25000
 n  =  10.00000
 -D3 energy without 3body term =     -0.0694340723 hartrees
 ----------------------------------------------------------------
             Standard Nuclear Orientation (Angstroms)
    I     Atom           X                Y                Z
 ----------------------------------------------------------------
    1      O       1.4710277595    -0.0282510585     1.2276641084
    2      C       2.4271059194     0.7489204755     1.0866555243
    3      C       3.8465944300     0.3516217124     0.6891180417
    4      C       4.0159016527    -0.9831821046    -0.0885402832
    5      C       2.7276731639    -1.6875677324    -0.5340181000
    6      O       2.2173910352    -2.4543318381     0.5021372062
    7      C       0.7683341309    -2.5143585158     0.5139938769
    8      C       0.1591707131    -1.3310307303     1.2896278059
    9      O      -0.5309691557    -0.4259524114     0.3877126680
   10      C      -1.8711034338    -0.2595739116     0.6422839665
   11      C      -2.5246475487     0.7046490322    -0.3466183595
   12      C      -3.7774873644     0.1530611043    -1.0780879926
   13      C      -4.3926169085    -1.1174789833    -0.4847650060
   14      O      -5.5863750873    -1.4368008472    -0.5680192762
   15      O       2.2925326103     2.0593817626     1.4738463320
   16      O      -3.4721973986    -2.1240041499    -0.2757624826
   17      O      -2.4466483729    -0.6461502305     1.6707796799
   18      C      -3.8552421389    -3.4135678065     0.1162664233
   19      C      -3.1201475269     1.9698346227     0.3402469094
   20      C      -3.2073282888     3.1139555921    -0.6936695379
   21      C      -4.3328598437     2.5954650185    -1.5983185030
   22      C      -4.7632230990     1.3287397199    -0.8140116030
   23      O      -4.4967284676     1.6511063062     0.5524267566
   24      H      -1.7500368712     1.0252989468    -1.0770937047
   25      H      -3.5988411543    -0.0406520286    -2.1561815972
   26      H      -2.5537933825     2.2909106149     1.2397102112
   27      H      -3.5697932280     4.0116971357    -0.1508527831
   28      H      -2.2608165296     3.3642163390    -1.2118994447
   29      H      -5.1480436578     3.3465077942    -1.6155389131
   30      H      -4.0278866387     2.3444081661    -2.6335404344
   31      H      -5.8165712239     1.0651113627    -1.0476191466
   32      O       2.2437200899    -1.6461753462    -1.6716203996
   33      C       1.0546906605     2.5668872714     1.8962485160
   34      C       4.4185823059     1.3572429575    -0.3641069518
   35      C       5.9625701354     1.3079229636    -0.3437700183
   36      C       6.2095949859    -0.0471922675    -1.0118893343
   37      C       4.7563891926    -0.4576054817    -1.3577299128
   38      O       4.0978217196     0.7780853153    -1.6262944300
   39      H       4.4694367852     0.4166028715     1.6061283854
   40      H       4.6532739997    -1.7310577219     0.4283456602
   41      H       0.6867189044     2.0224078065     2.7936806227
   42      H       4.0743299540     2.4027560479    -0.2190301791
   43      H       6.3302954843     2.1093050138    -1.0176341896
   44      H       6.4212472977     1.4360674629     0.6563011878
   45      H       6.7911939108     0.1156004095    -1.9418449694
   46      H       6.7181062418    -0.8013177612    -0.3794104802
   47      H       4.7535114461    -1.1954936667    -2.1880847243
   48      H       0.2972506148     2.4855713520     1.0856441608
   49      H       1.1829238466     3.6369714182     2.1564528367
   50      H      -2.9413496204    -4.0318323842     0.2281193700
   51      H      -4.5121774115    -3.8839640267    -0.6484480359
   52      H      -4.3887888589    -3.3879692209     1.0916274249
   53      H      -0.6893702480    -1.9931488824     1.6422412903
   54      H       0.2036947143    -1.1857723924     2.4251469026
   55      H       0.5523176882    -3.4802070600     1.0312725092
   56      H       0.3172182501    -2.6306896465    -0.4983686436
 ----------------------------------------------------------------
 Molecular Point Group                 C1    NOp =  1
 Largest Abelian Subgroup              C1    NOp =  1
 Nuclear Repulsion Energy =  3253.9016599371 hartrees
 There are      113 alpha and      113 beta electrons
 Applying Cartesian multipole field
    Component          Value
    ---------          -----
     (2,0,0)        1.00000E-12
     (0,2,0)        2.00000E-11
     (0,0,2)       -3.00000E-11
 Nucleus-field energy     =     0.0000000326 hartrees
 Requested basis set is STO-3G
 There are 86 shells and 176 basis functions
 A cutoff of  1.0D-12 yielded   2291 shell pairs
 There are     10907 function pairs
 Smallest overlap matrix eigenvalue = 2.00E-01
 Guess MOs from SCF MO coefficient file
 Reading MOs from coefficient file
 Reading MOs from coefficient file
 A restricted hybrid HF-DFT SCF calculation will be
 performed using Pulay DIIS extrapolation
 Exchange:     0.2000 Hartree-Fock + 0.0800 Slater + 0.7200 B88
 Correlation:  0.1900 VWN1RPA + 0.8100 LYP
 Using SG-1 standard quadrature grid
 Dispersion:   Grimme D3
 SCF converges when DIIS error is below 1.0E-08
 Geometry optimization detected.  Setting ReadMinima to 0
 Setting SaveMinima to 0
 using 48 threads for integral computing
 -------------------------------------------------------
 OpenMP Integral computing Module                
 Release: version 1.0, May 2013, Q-Chem Inc. Pittsburgh 
 -------------------------------------------------------
 -------------------------------------------------------
 OpenMP BLAS3 based DFT computing Module                
 Release: version 1.0, May 2013, Q-Chem Inc. Pittsburgh 
 -------------------------------------------------------
 ---------------------------------------
  Cycle       Energy         DIIS Error
 ---------------------------------------
    1   -1509.9283181082      2.92E-03
    2   -1510.0785305602      7.21E-04
    3   -1510.0753952414      1.14E-03
    4   -1510.0807265841      2.35E-04
    5   -1510.0809843404      4.77E-05
    6   -1510.0809937140      1.91E-05
    7   -1510.0809948468      1.07E-05
    8   -1510.0809953395      1.71E-06
    9   -1510.0809953506      1.01E-06
   10   -1510.0809953546      3.47E-07
   11   -1510.0809953550      6.75E-08
   12   -1510.0809953551      1.64E-08
   13   -1510.0809953551      8.77E-09 Convergence criterion met
 ---------------------------------------
 SCF time:  CPU 97.75 s  wall 2.04 s
 SCF   energy in the final basis set = -1510.08099536
 Total energy in the final basis set = -1510.08099536
 
 --------------------------------------------------------------
 
                    Orbital Energies (a.u.)
 --------------------------------------------------------------
 
 Alpha MOs
 -- Occupied --
-18.955 -18.924 -18.923 -18.915 -18.900 -18.893 -18.888 -18.863
-18.851 -18.841 -10.128 -10.099 -10.098 -10.091 -10.090 -10.070
-10.070 -10.068 -10.063 -10.063 -10.060 -10.056 -10.051 -10.037
-10.037 -10.028 -10.018 -10.016 -10.015 -10.013  -1.055  -1.027
 -1.019  -1.014  -1.009  -1.003  -0.964  -0.935  -0.932  -0.924
 -0.780  -0.771  -0.740  -0.733  -0.726  -0.717  -0.704  -0.687
 -0.669  -0.628  -0.604  -0.582  -0.555  -0.546  -0.536  -0.533
 -0.531  -0.515  -0.496  -0.490  -0.476  -0.475  -0.467  -0.453
 -0.444  -0.440  -0.435  -0.431  -0.426  -0.417  -0.414  -0.411
 -0.406  -0.390  -0.387  -0.378  -0.368  -0.363  -0.357  -0.354
 -0.348  -0.343  -0.340  -0.337  -0.330  -0.321  -0.318  -0.310
 -0.308  -0.301  -0.300  -0.298  -0.291  -0.285  -0.279  -0.273
 -0.262  -0.242  -0.239  -0.233  -0.232  -0.222  -0.198  -0.187
 -0.174  -0.162  -0.154  -0.153  -0.149  -0.147  -0.142  -0.136
 -0.129
 -- Virtual --
  0.089   0.108   0.109   0.126   0.234   0.243   0.253   0.256
  0.294   0.298   0.315   0.319   0.325   0.334   0.336   0.346
  0.351   0.364   0.372   0.373   0.376   0.381   0.386   0.390
  0.397   0.400   0.404   0.408   0.408   0.412   0.415   0.418
  0.427   0.429   0.432   0.434   0.441   0.443   0.443   0.446
  0.453   0.458   0.469   0.471   0.476   0.477   0.477   0.485
  0.491   0.495   0.502   0.506   0.525   0.531   0.534   0.550
  0.558   0.564   0.569   0.665   0.666   0.675   0.690
 --------------------------------------------------------------
 
          Ground-State Mulliken Net Atomic Charges

     Atom                 Charge (a.u.)
  ----------------------------------------
      1 O                    -0.199863
      2 C                     0.239347
      3 C                    -0.080506
      4 C                    -0.082355
      5 C                     0.224889
      6 O                    -0.194166
      7 C                    -0.031846
      8 C                    -0.001010
      9 O                    -0.187008
     10 C                     0.224511
     11 C                    -0.083331
     12 C                    -0.077036
     13 C                     0.231935
     14 O                    -0.228604
     15 O                    -0.196100
     16 O                    -0.202005
     17 O                    -0.233975
     18 C                    -0.103104
     19 C                     0.036108
     20 C                    -0.142915
     21 C                    -0.144776
     22 C                     0.035883
     23 O                    -0.201493
     24 H                     0.081879
     25 H                     0.089642
     26 H                     0.079655
     27 H                     0.074249
     28 H                     0.071652
     29 H                     0.075841
     30 H                     0.072358
     31 H                     0.091266
     32 O                    -0.218884
     33 C                    -0.104669
     34 C                     0.035360
     35 C                    -0.143595
     36 C                    -0.145574
     37 C                     0.037618
     38 O                    -0.202295
     39 H                     0.092281
     40 H                     0.086199
     41 H                     0.090528
     42 H                     0.087555
     43 H                     0.075468
     44 H                     0.071727
     45 H                     0.075833
     46 H                     0.071558
     47 H                     0.087567
     48 H                     0.091605
     49 H                     0.098011
     50 H                     0.090641
     51 H                     0.085002
     52 H                     0.090236
     53 H                     0.041358
     54 H                     0.084584
     55 H                     0.083419
     56 H                     0.099347
  ----------------------------------------
  Sum of atomic charges =    -0.000000

 -----------------------------------------------------------------
                    Cartesian Multipole Moments
 -----------------------------------------------------------------
    Charge (ESU x 10^10)
                -0.0000
    Dipole Moment (Debye)
         X       3.7780      Y       1.4239      Z       0.7829
       Tot       4.1127
    Quadrupole Moments (Debye-Ang)
        XX    -165.1298     XY      -0.8434     YY    -148.5299
        XZ      12.4058     YZ       0.5537     ZZ    -162.0588
    Octopole Moments (Debye-Ang^2)
       XXX     185.8124    XXY       2.7503    XYY     -28.4995
       YYY     -32.2443    XXZ     -17.9973    XYZ      14.2753
       YYZ      12.2341    XZZ     -10.5973    YZZ       0.1545
       ZZZ      18.6043
    Hexadecapole Moments (Debye-Ang^3)
      XXXX  -13170.6617   XXXY    -119.9220   XXYY   -2600.4259
      XYYY     122.5162   YYYY   -2948.7157   XXXZ      49.5254
      XXYZ     -40.9096   XYYZ     -21.2809   YYYZ      28.3993
      XXZZ   -2345.4759   XYZZ      15.6873   YYZZ    -706.8214
      XZZZ       9.3761   YZZZ      25.4635   ZZZZ   -1169.5558
 -----------------------------------------------------------------
 Calculating analytic gradient of the SCF energy
 Gradient of SCF Energy
            1           2           3           4           5           6
    1  -0.0341492   0.0167358  -0.0165332  -0.0252706   0.0030684  -0.0172036
    2  -0.0341786   0.0157432  -0.0167364   0.0192808  -0.0069350   0.0156856
    3   0.0151380  -0.0117103  -0.0148229  -0.0072312   0.0044828  -0.0236400
            7           8           9          10          11          12
    1  -0.0248946   0.1383148  -0.0383116   0.0229623  -0.0314961  -0.0098792
    2   0.0261657   0.1110070  -0.0253319  -0.0118728  -0.0030090  -0.0049988
    3  -0.0034224  -0.0744359   0.0317189  -0.0233606   0.0343146   0.0097388
           13          14          15          16          17          18
    1   0.0238462   0.0439612  -0.0823355  -0.0882411   0.0107391   0.0309311
    2   0.0333305  -0.0088443  -0.0398326  -0.0356990   0.0168746   0.0310555
    3   0.0199239  -0.0092826   0.0124229   0.0084234  -0.0255950  -0.0121901
           19          20          21          22          23          24
    1  -0.0425348  -0.0138198   0.0085846   0.0347475   0.0330033   0.0037262
    2  -0.0156045  -0.0302862  -0.0111166   0.0088208   0.0008934   0.0044104
    3  -0.0170850   0.0012240   0.0243843   0.0387289  -0.0486110  -0.0016918
           25          26          27          28          29          30
    1  -0.0010757   0.0094515  -0.0065913   0.0037353  -0.0009773   0.0004269
    2  -0.0020454   0.0060932   0.0017320   0.0033887   0.0079399  -0.0044003
    3  -0.0030213  -0.0049194   0.0046963  -0.0028368   0.0057291  -0.0045908
           31          32          33          34          35          36
    1  -0.0005463   0.0140892   0.0478330  -0.0056992  -0.0228458  -0.0267182
    2   0.0036802  -0.0049455   0.0028522  -0.0423764  -0.0226749   0.0135052
    3  -0.0124937   0.0267502  -0.0098384  -0.0290733  -0.0079154   0.0054505
           37          38          39          40          41          42
    1  -0.0179813   0.0305144   0.0021727   0.0044197   0.0049832   0.0099170
    2   0.0474981  -0.0205428   0.0063201  -0.0062232  -0.0008047   0.0048805
    3   0.0171621   0.0448660   0.0021626  -0.0057424   0.0003952   0.0058704
           43          44          45          46          47          48
    1  -0.0003776   0.0037329   0.0015155   0.0009419   0.0107367   0.0043300
    2   0.0013387   0.0012187   0.0081540  -0.0049524  -0.0073019   0.0000523
    3  -0.0085514   0.0040544  -0.0048474   0.0027243   0.0025023  -0.0029334
           49          50          51          52          53          54
    1  -0.0035630  -0.0010227   0.0028037   0.0024014   0.0373758  -0.0487089
    2   0.0014650  -0.0034173   0.0035579   0.0049172   0.0074774  -0.0265098
    3   0.0010823   0.0009001  -0.0026231   0.0003333   0.0281881   0.0216853
           55          56
    1   0.0000405  -0.0012654
    2  -0.0070640  -0.0116344
    3  -0.0035025   0.0009149
 Max gradient component =       1.383E-01
 RMS gradient           =       2.541E-02
 Gradient time:  CPU 30.90 s  wall 0.65 s
 Geometry Optimization Parameters
   NAtoms,    NIC,     NZ,  NCons,   NDum,   NFix, NCnnct, MaxDiis
       56     474       0       9       0       0       0       0

 Cartesian Hessian Update
 Hessian Updated using BFGS Update


** CONSTRAINED OPTIMIZATION IN DELOCALIZED INTERNAL COORDINATES **
   Searching for a Minimum

   Optimization Cycle:   2

                       Coordinates (Angstroms)
     ATOM                X               Y               Z
      1  O         1.4710277595   -0.0282510585    1.2276641084
      2  C         2.4271059194    0.7489204755    1.0866555243
      3  C         3.8465944300    0.3516217124    0.6891180417
      4  C         4.0159016527   -0.9831821046   -0.0885402832
      5  C         2.7276731639   -1.6875677324   -0.5340181000
      6  O         2.2173910352   -2.4543318381    0.5021372062
      7  C         0.7683341309   -2.5143585158    0.5139938769
      8  C         0.1591707131   -1.3310307303    1.2896278059
      9  O        -0.5309691557   -0.4259524114    0.3877126680
     10  C        -1.8711034338   -0.2595739116    0.6422839665
     11  C        -2.5246475487    0.7046490322   -0.3466183595
     12  C        -3.7774873644    0.1530611043   -1.0780879926
     13  C        -4.3926169085   -1.1174789833   -0.4847650060
     14  O        -5.5863750873   -1.4368008472   -0.5680192762
     15  O         2.2925326103    2.0593817626    1.4738463320
     16  O        -3.4721973986   -2.1240041499   -0.2757624826
     17  O        -2.4466483729   -0.6461502305    1.6707796799
     18  C        -3.8552421389   -3.4135678065    0.1162664233
     19  C        -3.1201475269    1.9698346227    0.3402469094
     20  C        -3.2073282888    3.1139555921   -0.6936695379
     21  C        -4.3328598437    2.5954650185   -1.5983185030
     22  C        -4.7632230990    1.3287397199   -0.8140116030
     23  O        -4.4967284676    1.6511063062    0.5524267566
     24  H        -1.7500368712    1.0252989468   -1.0770937047
     25  H        -3.5988411543   -0.0406520286   -2.1561815972
     26  H        -2.5537933825    2.2909106149    1.2397102112
     27  H        -3.5697932280    4.0116971357   -0.1508527831
     28  H        -2.2608165296    3.3642163390   -1.2118994447
     29  H        -5.1480436578    3.3465077942   -1.6155389131
     30  H        -4.0278866387    2.3444081661   -2.6335404344
     31  H        -5.8165712239    1.0651113627   -1.0476191466
     32  O         2.2437200899   -1.6461753462   -1.6716203996
     33  C         1.0546906605    2.5668872714    1.8962485160
     34  C         4.4185823059    1.3572429575   -0.3641069518
     35  C         5.9625701354    1.3079229636   -0.3437700183
     36  C         6.2095949859   -0.0471922675   -1.0118893343
     37  C         4.7563891926   -0.4576054817   -1.3577299128
     38  O         4.0978217196    0.7780853153   -1.6262944300
     39  H         4.4694367852    0.4166028715    1.6061283854
     40  H         4.6532739997   -1.7310577219    0.4283456602
     41  H         0.6867189044    2.0224078065    2.7936806227
     42  H         4.0743299540    2.4027560479   -0.2190301791
     43  H         6.3302954843    2.1093050138   -1.0176341896
     44  H         6.4212472977    1.4360674629    0.6563011878
     45  H         6.7911939108    0.1156004095   -1.9418449694
     46  H         6.7181062418   -0.8013177612   -0.3794104802
     47  H         4.7535114461   -1.1954936667   -2.1880847243
     48  H         0.2972506148    2.4855713520    1.0856441608
     49  H         1.1829238466    3.6369714182    2.1564528367
     50  H        -2.9413496204   -4.0318323842    0.2281193700
     51  H        -4.5121774115   -3.8839640267   -0.6484480359
     52  H        -4.3887888589   -3.3879692209    1.0916274249
     53  H        -0.6893702480   -1.9931488824    1.6422412903
     54  H         0.2036947143   -1.1857723924    2.4251469026
     55  H         0.5523176882   -3.4802070600    1.0312725092
     56  H         0.3172182501   -2.6306896465   -0.4983686436
   Point Group: c1    Number of degrees of freedom:   162


   Energy is  -1510.080995355

              Constraints and their Current Values
                                        Value     Constraint
   Dihedral:        1   2   3   4       23.582       23.537
   Dihedral:        3   4   5   6      -83.560      -83.555
   Dihedral:        4   5   6   7      146.506      146.506
   Dihedral:        5   6   7   8      -86.726      -86.726
   Dihedral:        6   7   8   9      111.152      111.090
   Dihedral:        7   8   9  10      119.871      119.979
   Dihedral:        8   9  10  11      179.994     -180.000
   Dihedral:        9  10  11  12      126.374      126.354
   Dihedral:       11  12  13  14      152.069      152.028
 Hessian Updated using BFGS Update

   Using Lagrange Multiplier Algorithm


158 Hessian modes will be used to form the next step
  Hessian Eigenvalues:
    -0.977753   -0.977753   -0.977753   -0.977753   -0.977753   -0.977753
    -0.976168    0.044999    0.045000    0.045078    0.045472    0.045593
     0.045647    0.046730    0.047365    0.048879    0.050643    0.052153
     0.054268    0.059924    0.060254    0.062757    0.064725    0.066443
     0.066991    0.067101    0.067717    0.068061    0.072035    0.072762
     0.073861    0.075816    0.076178    0.076831    0.078084    0.078688
     0.081731    0.082559    0.083670    0.084503    0.084535    0.084839
     0.085753    0.086700    0.087230    0.088102    0.088841    0.088977
     0.089081    0.089566    0.089884    0.093527    0.093903    0.094982
     0.096615    0.096657    0.097773    0.105480    0.110772    0.111513
     0.111579    0.114616    0.114677    0.115852    0.115990    0.116509
     0.118703    0.119646    0.120565    0.124145    0.126167    0.128116
     0.131001    0.139000    0.139553    0.154196    0.158936    0.159895
     0.163544    0.170182    0.171348    0.172142    0.174347    0.181022
     0.197907    0.208253    0.232067    0.236588    0.239180    0.242694
     0.245168    0.248806    0.249375    0.251699    0.254136    0.259437
     0.267134    0.267220    0.277792    0.279933    0.281350    0.282863
     0.286573    0.293012    0.295633    0.298503    0.302994    0.308064
     0.311416    0.316058    0.316237    0.320643    0.320835    0.321921
     0.322012    0.322685    0.322839    0.323028    0.323179    0.323252
     0.323753    0.323798    0.323841    0.324130    0.324236    0.324358
     0.324517    0.324639    0.324672    0.324828    0.324980    0.325076
     0.326631    0.326888    0.331877    0.368956    0.372100    0.384814
     0.393752    0.399279    0.422345    0.466514    0.481078    0.491470
     0.524124    0.528661    0.537271    0.902577    0.922174    0.930602
     0.975730    1.022753    1.022753    1.022753    1.022753    1.022753
     1.022753    1.035741

 Minimum Search - Taking P-RFO Step
 Searching for Lamda that Maximizes Along the Constraint modes Only
 Value Taken    Lamda =   0.00016434
 Searching for Lamda that Minimizes Along All other modes
 Value Taken    Lamda =  -0.13107620
 Calculated Step too Large.  Step scaled by  0.491001
 Step Taken.  Stepsize is  0.300000

                             Maximum     Tolerance    Cnvgd?
         Gradient            0.069890       0.000300      NO
         Displacement        0.063859       0.001200      NO
         Energy change     -0.083438       0.000001      NO


 New Cartesian Coordinates Obtained by Inverse Iteration

 Displacement from previous Coordinates is:  1.143994
 Adding empirical dispersion correction 
 ----------------------------------------------------------------
 Doing -D3(op) with
 s6 =   1.00000
 s8 =   0.78311
 a1 =   0.30000
 a2 =   4.25000
 n  =  10.00000
 -D3 energy without 3body term =     -0.0688834045 hartrees
 ----------------------------------------------------------------
             Standard Nuclear Orientation (Angstroms)
    I     Atom           X                Y                Z
 ----------------------------------------------------------------
    1      O       1.5119563627     0.0299314091     1.2267945683
    2      C       2.4879463584     0.7905242080     1.0773379880
    3      C       3.9150812869     0.3700128776     0.6912706430
    4      C       4.0687076498    -0.9870812679    -0.0700386293
    5      C       2.7600940350    -1.6983434939    -0.5010839559
    6      O       2.2347158159    -2.4572395283     0.5564767851
    7      C       0.7724888543    -2.4961134563     0.5546023193
    8      C       0.1263366063    -1.3033675615     1.3054600760
    9      O      -0.5632038490    -0.3914442659     0.3952862770
   10      C      -1.9201048366    -0.2593909216     0.6654502854
   11      C      -2.5816026458     0.7132694113    -0.3292087590
   12      C      -3.8313161064     0.1573256357    -1.0850400121
   13      C      -4.4306467752    -1.1520476459    -0.5247477684
   14      O      -5.6232919889    -1.4978538994    -0.6168233444
   15      O       2.3961528765     2.1275021837     1.4382949374
   16      O      -3.4542779126    -2.1280287353    -0.3276823245
   17      O      -2.4813213373    -0.6859828209     1.6937878792
   18      C      -3.8830561039    -3.4341483900     0.0431728602
   19      C      -3.2057782524     1.9652495635     0.3848244370
   20      C      -3.2981559749     3.1309707598    -0.6419621683
   21      C      -4.4164458341     2.6076265854    -1.5736252804
   22      C      -4.8467638639     1.3162793330    -0.8081232287
   23      O      -4.5971082906     1.6206399838     0.5846094639
   24      H      -1.8074191380     1.0543913767    -1.0465010772
   25      H      -3.6385337610    -0.0113494911    -2.1634873373
   26      H      -2.6586803704     2.2712632444     1.2996606890
   27      H      -3.6725952715     4.0176932722    -0.0953105075
   28      H      -2.3499918951     3.3946936593    -1.1446384457
   29      H      -5.2408112837     3.3440256017    -1.5955394388
   30      H      -4.0939029452     2.3765700561    -2.6052519042
   31      H      -5.8929651980     1.0355737137    -1.0478321319
   32      O       2.2706213181    -1.6687447951    -1.6438829274
   33      C       1.1106424941     2.5947113014     1.8414883734
   34      C       4.5019169605     1.3632746375    -0.3817339365
   35      C       6.0558524246     1.2879984863    -0.3518851511
   36      C       6.2862579651    -0.0923611705    -1.0045236731
   37      C       4.8192024731    -0.4911440072    -1.3578834463
   38      O       4.1694762656     0.7644654295    -1.6529510276
   39      H       4.5365842595     0.4360772467     1.6069319791
   40      H       4.6944815945    -1.7293641027     0.4646896723
   41      H       0.7436409055     2.0454294964     2.7358112172
   42      H       4.1594703814     2.4104326834    -0.2552905247
   43      H       6.4428887094     2.0740569186    -1.0279705616
   44      H       6.5062672851     1.4200433592     0.6485115490
   45      H       6.8763975922     0.0405543149    -1.9302514271
   46      H       6.7768039683    -0.8414756512    -0.3566547869
   47      H       4.7988218656    -1.2382474921    -2.1776620181
   48      H       0.3670225236     2.4810292152     1.0227441846
   49      H       1.2058745872     3.6689807905     2.0932889331
   50      H      -2.9788958975    -4.0628887935     0.1635528270
   51      H      -4.5323167462    -3.8845777828    -0.7393889600
   52      H      -4.4384348082    -3.4179511741     1.0057909169
   53      H      -0.7439255123    -1.9641863413     1.6376390447
   54      H       0.1900355235    -1.1315817208     2.4216557842
   55      H       0.5497634394    -3.4471035684     1.0902785346
   56      H       0.3316203997    -2.6136002879    -0.4615285309
 ----------------------------------------------------------------
 Molecular Point Group                 C1    NOp =  1
 Largest Abelian Subgroup              C1    NOp =  1
 Nuclear Repulsion Energy =  3224.6193263341 hartrees
 There are      113 alpha and      113 beta electrons
 Applying Cartesian multipole field
    Component          Value
    ---------          -----
     (2,0,0)        1.00000E-12
     (0,2,0)        2.00000E-11
     (0,0,2)       -3.00000E-11
 Nucleus-field energy     =     0.0000000335 hartrees
 Requested basis set is STO-3G
 There are 86 shells and 176 basis functions
 A cutoff of  1.0D-12 yielded   2258 shell pairs
 There are     10697 function pairs
 Smallest overlap matrix eigenvalue = 2.04E-01
 Guess MOs from SCF MO coefficient file
 Reading MOs from coefficient file
 Reading MOs from coefficient file
 A restricted hybrid HF-DFT SCF calculation will be
 performed using Pulay DIIS extrapolation
 Exchange:     0.2000 Hartree-Fock + 0.0800 Slater + 0.7200 B88
 Correlation:  0.1900 VWN1RPA + 0.8100 LYP
 Using SG-1 standard quadrature grid
 Dispersion:   Grimme D3
 SCF converges when DIIS error is below 1.0E-08
 Geometry optimization detected.  Setting ReadMinima to 0
 Setting SaveMinima to 0
 using 48 threads for integral computing
 -------------------------------------------------------
 OpenMP Integral computing Module                
 Release: version 1.0, May 2013, Q-Chem Inc. Pittsburgh 
 -------------------------------------------------------
 -------------------------------------------------------
 OpenMP BLAS3 based DFT computing Module                
 Release: version 1.0, May 2013, Q-Chem Inc. Pittsburgh 
 -------------------------------------------------------
 ---------------------------------------
  Cycle       Energy         DIIS Error
 ---------------------------------------
    1   -1510.0160969417      2.57E-03
    2   -1510.1341319046      6.49E-04
    3   -1510.1309402973      1.09E-03
    4   -1510.1359388763      2.00E-04
    5   -1510.1361235940      4.34E-05
    6   -1510.1361313315      1.76E-05
    7   -1510.1361322426      1.08E-05
    8   -1510.1361327556      1.60E-06
    9   -1510.1361327675      7.75E-07
   10   -1510.1361327696      3.96E-07
   11   -1510.1361327702      6.83E-08
   12   -1510.1361327702      2.21E-08
   13   -1510.1361327703      1.40E-08
   14   -1510.1361327704      6.03E-09 Convergence criterion met
 ---------------------------------------
 SCF time:  CPU 100.48 s  wall 2.10 s
 SCF   energy in the final basis set = -1510.13613277
 Total energy in the final basis set = -1510.13613277
 
 --------------------------------------------------------------
 
                    Orbital Energies (a.u.)
 --------------------------------------------------------------
 
 Alpha MOs
 -- Occupied --
-18.954 -18.927 -18.925 -18.913 -18.897 -18.892 -18.885 -18.865
-18.857 -18.848 -10.120 -10.097 -10.095 -10.090 -10.085 -10.070
-10.067 -10.065 -10.061 -10.061 -10.059 -10.054 -10.049 -10.038
-10.037 -10.030 -10.018 -10.017 -10.016 -10.014  -1.045  -1.022
 -1.012  -1.007  -0.997  -0.992  -0.957  -0.932  -0.931  -0.923
 -0.775  -0.768  -0.735  -0.729  -0.721  -0.713  -0.700  -0.680
 -0.666  -0.623  -0.602  -0.579  -0.552  -0.545  -0.535  -0.533
 -0.526  -0.513  -0.491  -0.484  -0.472  -0.469  -0.463  -0.451
 -0.440  -0.437  -0.430  -0.427  -0.421  -0.415  -0.411  -0.408
 -0.401  -0.387  -0.381  -0.374  -0.365  -0.360  -0.353  -0.351
 -0.345  -0.340  -0.339  -0.336  -0.332  -0.322  -0.317  -0.309
 -0.308  -0.300  -0.300  -0.298  -0.291  -0.284  -0.280  -0.274
 -0.263  -0.246  -0.239  -0.234  -0.233  -0.231  -0.197  -0.192
 -0.173  -0.164  -0.157  -0.153  -0.150  -0.147  -0.143  -0.141
 -0.133
 -- Virtual --
  0.090   0.104   0.105   0.121   0.229   0.242   0.251   0.252
  0.287   0.290   0.307   0.309   0.321   0.326   0.333   0.342
  0.349   0.357   0.362   0.364   0.370   0.373   0.378   0.384
  0.392   0.397   0.399   0.401   0.408   0.412   0.414   0.416
  0.422   0.424   0.428   0.431   0.433   0.436   0.438   0.442
  0.444   0.452   0.457   0.461   0.464   0.469   0.473   0.474
  0.483   0.490   0.494   0.495   0.523   0.524   0.525   0.545
  0.552   0.558   0.561   0.653   0.655   0.661   0.677
 --------------------------------------------------------------
 
          Ground-State Mulliken Net Atomic Charges

     Atom                 Charge (a.u.)
  ----------------------------------------
      1 O                    -0.201363
      2 C                     0.229854
      3 C                    -0.080160
      4 C                    -0.081193
      5 C                     0.219646
      6 O                    -0.189963
      7 C                    -0.034936
      8 C                    -0.012200
      9 O                    -0.181387
     10 C                     0.220765
     11 C                    -0.082664
     12 C                    -0.076501
     13 C                     0.224705
     14 O                    -0.223425
     15 O                    -0.186740
     16 O                    -0.191229
     17 O                    -0.228190
     18 C                    -0.110762
     19 C                     0.032442
     20 C                    -0.143482
     21 C                    -0.145244
     22 C                     0.032045
     23 O                    -0.195666
     24 H                     0.083330
     25 H                     0.088942
     26 H                     0.080251
     27 H                     0.074913
     28 H                     0.072250
     29 H                     0.076275
     30 H                     0.072900
     31 H                     0.090796
     32 O                    -0.214562
     33 C                    -0.112120
     34 C                     0.031584
     35 C                    -0.144219
     36 C                    -0.145887
     37 C                     0.033796
     38 O                    -0.196513
     39 H                     0.091324
     40 H                     0.085458
     41 H                     0.090360
     42 H                     0.087717
     43 H                     0.075825
     44 H                     0.072293
     45 H                     0.076184
     46 H                     0.072026
     47 H                     0.087294
     48 H                     0.092013
     49 H                     0.096130
     50 H                     0.090356
     51 H                     0.086404
     52 H                     0.090999
     53 H                     0.046982
     54 H                     0.089154
     55 H                     0.084261
     56 H                     0.099133
  ----------------------------------------
  Sum of atomic charges =    -0.000000

 -----------------------------------------------------------------
                    Cartesian Multipole Moments
 -----------------------------------------------------------------
    Charge (ESU x 10^10)
                -0.0000
    Dipole Moment (Debye)
         X       3.4802      Y       1.3683      Z       0.7143
       Tot       3.8071
    Quadrupole Moments (Debye-Ang)
        XX    -164.2486     XY      -1.1591     YY    -148.6602
        XZ      12.3951     YZ       0.4345     ZZ    -162.1962
    Octopole Moments (Debye-Ang^2)
       XXX     185.7578    XXY       2.4382    XYY     -29.9794
       YYY     -32.2608    XXZ     -18.6857    XYZ      14.3100
       YYZ      10.9977    XZZ     -11.4088    YZZ      -0.0545
       ZZZ      17.1689
    Hexadecapole Moments (Debye-Ang^3)
      XXXX  -13518.7623   XXXY    -126.1587   XXYY   -2667.6644
      XYYY     122.2089   YYYY   -2977.1119   XXXZ      50.5289
      XXYZ     -44.8671   XYYZ     -24.2931   YYYZ      15.8684
      XXZZ   -2413.3453   XYZZ      12.3471   YYZZ    -711.4904
      XZZZ       3.5416   YZZZ      13.9165   ZZZZ   -1163.6924
 -----------------------------------------------------------------
 Calculating analytic gradient of the SCF energy
 Gradient of SCF Energy
            1           2           3           4           5           6
    1  -0.0323547   0.0143310  -0.0111222  -0.0176498   0.0057022  -0.0122087
    2  -0.0326401   0.0177901  -0.0144989   0.0161040  -0.0066671   0.0053771
    3   0.0143674  -0.0119382  -0.0059600  -0.0028423   0.0051210  -0.0158051
            7           8           9          10          11          12
    1  -0.0266446   0.1282256  -0.0335880   0.0191849  -0.0201848  -0.0058849
    2   0.0180500   0.1027417  -0.0219299  -0.0106302  -0.0022994  -0.0043841
    3  -0.0037384  -0.0573227   0.0222981  -0.0216615   0.0225583   0.0021717
           13          14          15          16          17          18
    1   0.0193415   0.0261465  -0.0560394  -0.0613461   0.0047982   0.0220083
    2   0.0269550  -0.0081168  -0.0295877  -0.0252046   0.0114692   0.0225832
    3   0.0231988  -0.0102841   0.0089538   0.0030755  -0.0127404  -0.0078716
           19          20          21          22          23          24
    1  -0.0294151  -0.0066212   0.0052122   0.0219761   0.0206515   0.0019927
    2  -0.0118624  -0.0199741  -0.0073495   0.0051505   0.0014987   0.0038404
    3  -0.0092606  -0.0007291   0.0136574   0.0291875  -0.0308135  -0.0009298
           25          26          27          28          29          30
    1  -0.0010422   0.0081511  -0.0051515   0.0020650  -0.0001000  -0.0002466
    2  -0.0021255   0.0051864   0.0001850   0.0033085   0.0054964  -0.0031412
    3  -0.0017805  -0.0046482   0.0033543  -0.0013584   0.0048211  -0.0028494
           31          32          33          34          35          36
    1   0.0002349   0.0086246   0.0339895  -0.0072117  -0.0146214  -0.0160484
    2   0.0031479  -0.0039319   0.0020190  -0.0285220  -0.0142937   0.0076562
    3  -0.0109468   0.0143381  -0.0068308  -0.0204865  -0.0023786   0.0036773
           37          38          39          40          41          42
    1  -0.0133120   0.0190075   0.0017217   0.0028773   0.0028549   0.0086255
    2   0.0337768  -0.0131046   0.0057080  -0.0051780  -0.0003896   0.0036593
    3   0.0090374   0.0281635   0.0010129  -0.0055294   0.0007696   0.0053329
           43          44          45          46          47          48
    1  -0.0009556   0.0029894   0.0006356   0.0003700   0.0091847   0.0023329
    2   0.0001941   0.0015366   0.0064341  -0.0034272  -0.0064305   0.0004504
    3  -0.0062759   0.0020533  -0.0030452   0.0012677   0.0032244  -0.0020421
           49          50          51          52          53          54
    1  -0.0026987  -0.0008261   0.0017031   0.0014195   0.0233983  -0.0436560
    2   0.0009684  -0.0025840   0.0016533   0.0027506   0.0017937  -0.0250384
    3   0.0007397   0.0006584  -0.0018345   0.0006734   0.0229149   0.0169035
           55          56
    1   0.0011561  -0.0019821
    2  -0.0050377  -0.0091356
    3  -0.0027582   0.0011298
 Max gradient component =       1.282E-01
 RMS gradient           =       2.011E-02
 Gradient time:  CPU 31.38 s  wall 0.66 s
 Geometry Optimization Parameters
   NAtoms,    NIC,     NZ,  NCons,   NDum,   NFix, NCnnct, MaxDiis
       56     474       0       9       0       0       0       0

 Cartesian Hessian Update
 Hessian Updated using BFGS Update


** CONSTRAINED OPTIMIZATION IN DELOCALIZED INTERNAL COORDINATES **
   Searching for a Minimum

   Optimization Cycle:   3

                       Coordinates (Angstroms)
     ATOM                X               Y               Z
      1  O         1.5119563627    0.0299314091    1.2267945683
      2  C         2.4879463584    0.7905242080    1.0773379880
      3  C         3.9150812869    0.3700128776    0.6912706430
      4  C         4.0687076498   -0.9870812679   -0.0700386293
      5  C         2.7600940350   -1.6983434939   -0.5010839559
      6  O         2.2347158159   -2.4572395283    0.5564767851
      7  C         0.7724888543   -2.4961134563    0.5546023193
      8  C         0.1263366063   -1.3033675615    1.3054600760
      9  O        -0.5632038490   -0.3914442659    0.3952862770
     10  C        -1.9201048366   -0.2593909216    0.6654502854
     11  C        -2.5816026458    0.7132694113   -0.3292087590
     12  C        -3.8313161064    0.1573256357   -1.0850400121
     13  C        -4.4306467752   -1.1520476459   -0.5247477684
     14  O        -5.6232919889   -1.4978538994   -0.6168233444
     15  O         2.3961528765    2.1275021837    1.4382949374
     16  O        -3.4542779126   -2.1280287353   -0.3276823245
     17  O        -2.4813213373   -0.6859828209    1.6937878792
     18  C        -3.8830561039   -3.4341483900    0.0431728602
     19  C        -3.2057782524    1.9652495635    0.3848244370
     20  C        -3.2981559749    3.1309707598   -0.6419621683
     21  C        -4.4164458341    2.6076265854   -1.5736252804
     22  C        -4.8467638639    1.3162793330   -0.8081232287
     23  O        -4.5971082906    1.6206399838    0.5846094639
     24  H        -1.8074191380    1.0543913767   -1.0465010772
     25  H        -3.6385337610   -0.0113494911   -2.1634873373
     26  H        -2.6586803704    2.2712632444    1.2996606890
     27  H        -3.6725952715    4.0176932722   -0.0953105075
     28  H        -2.3499918951    3.3946936593   -1.1446384457
     29  H        -5.2408112837    3.3440256017   -1.5955394388
     30  H        -4.0939029452    2.3765700561   -2.6052519042
     31  H        -5.8929651980    1.0355737137   -1.0478321319
     32  O         2.2706213181   -1.6687447951   -1.6438829274
     33  C         1.1106424941    2.5947113014    1.8414883734
     34  C         4.5019169605    1.3632746375   -0.3817339365
     35  C         6.0558524246    1.2879984863   -0.3518851511
     36  C         6.2862579651   -0.0923611705   -1.0045236731
     37  C         4.8192024731   -0.4911440072   -1.3578834463
     38  O         4.1694762656    0.7644654295   -1.6529510276
     39  H         4.5365842595    0.4360772467    1.6069319791
     40  H         4.6944815945   -1.7293641027    0.4646896723
     41  H         0.7436409055    2.0454294964    2.7358112172
     42  H         4.1594703814    2.4104326834   -0.2552905247
     43  H         6.4428887094    2.0740569186   -1.0279705616
     44  H         6.5062672851    1.4200433592    0.6485115490
     45  H         6.8763975922    0.0405543149   -1.9302514271
     46  H         6.7768039683   -0.8414756512   -0.3566547869
     47  H         4.7988218656   -1.2382474921   -2.1776620181
     48  H         0.3670225236    2.4810292152    1.0227441846
     49  H         1.2058745872    3.6689807905    2.0932889331
     50  H        -2.9788958975   -4.0628887935    0.1635528270
     51  H        -4.5323167462   -3.8845777828   -0.7393889600
     52  H        -4.4384348082   -3.4179511741    1.0057909169
     53  H        -0.7439255123   -1.9641863413    1.6376390447
     54  H         0.1900355235   -1.1315817208    2.4216557842
     55  H         0.5497634394   -3.4471035684    1.0902785346
     56  H         0.3316203997   -2.6136002879   -0.4615285309
   Point Group: c1    Number of degrees of freedom:   162


   Energy is  -1510.136132770

              Constraints and their Current Values
                                        Value     Constraint
   Dihedral:        1   2   3   4       23.546       23.537
   Dihedral:        3   4   5   6      -83.530      -83.555
   Dihedral:        4   5   6   7      146.506      146.506
   Dihedral:        5   6   7   8      -86.726      -86.726
   Dihedral:        6   7   8   9      111.176      111.090
   Dihedral:        7   8   9  10      119.958      119.979
   Dihedral:        8   9  10  11     -179.995     -180.000
   Dihedral:        9  10  11  12      126.368      126.354
   Dihedral:       11  12  13  14      152.048      152.028
 Hessian Updated using BFGS Update

   Using Lagrange Multiplier Algorithm


161 Hessian modes will be used to form the next step
  Hessian Eigenvalues:
    -0.977759   -0.977753   -0.977753   -0.977753   -0.977753   -0.977752
    -0.975549    0.044993    0.045000    0.045001    0.045059    0.045440
     0.045568    0.045637    0.046725    0.047315    0.048863    0.050641
     0.052016    0.054080    0.059710    0.060192    0.062760    0.064722
     0.065281    0.066575    0.067078    0.067716    0.068012    0.071992
     0.072762    0.073861    0.075812    0.076178    0.076817    0.078082
     0.078686    0.081731    0.082564    0.083672    0.084502    0.084534
     0.084839    0.085731    0.086701    0.087224    0.088081    0.088841
     0.088977    0.089084    0.089566    0.089887    0.093543    0.093889
     0.094925    0.096609    0.096658    0.097718    0.105496    0.110777
     0.111512    0.111644    0.114619    0.114672    0.115852    0.115990
     0.116510    0.118666    0.119631    0.120570    0.124032    0.125874
     0.127876    0.131001    0.139110    0.139561    0.149248    0.158557
     0.159998    0.160070    0.163337    0.170266    0.171342    0.172143
     0.174395    0.180729    0.197843    0.208259    0.236490    0.238343
     0.242515    0.243043    0.245808    0.248794    0.249375    0.250708
     0.252113    0.253831    0.259337    0.267133    0.267206    0.277794
     0.279989    0.281306    0.283763    0.286367    0.293004    0.295635
     0.298473    0.302960    0.308100    0.310853    0.314805    0.316204
     0.320628    0.320833    0.321909    0.322012    0.322692    0.322839
     0.323028    0.323183    0.323252    0.323755    0.323811    0.323844
     0.324153    0.324240    0.324378    0.324536    0.324633    0.324671
     0.324831    0.324985    0.325077    0.326645    0.326901    0.334283
     0.368922    0.372101    0.384828    0.395030    0.399900    0.411771
     0.458782    0.478064    0.491363    0.519751    0.528834    0.536329
     0.902291    0.922750    0.931719    0.977755    1.022752    1.022753
     1.022753    1.022753    1.022753    1.022758    1.039559

 Minimum Search - Taking P-RFO Step
 Searching for Lamda that Maximizes Along the Constraint modes Only
 Value Taken    Lamda =   0.00000665
 Searching for Lamda that Minimizes Along All other modes
 Value Taken    Lamda =  -0.08615167
 Calculated Step too Large.  Step scaled by  0.498114
 Step Taken.  Stepsize is  0.300000

                             Maximum     Tolerance    Cnvgd?
         Gradient            0.048057       0.000300      NO
         Displacement        0.064201       0.001200      NO
         Energy change     -0.055137       0.000001      NO


 New Cartesian Coordinates Obtained by Inverse Iteration

 Displacement from previous Coordinates is:  1.068652
 Adding empirical dispersion correction 
 ----------------------------------------------------------------
 Doing -D3(op) with
 s6 =   1.00000
 s8 =   0.78311
 a1 =   0.30000
 a2 =   4.25000
 n  =  10.00000
 -D3 energy without 3body term =     -0.0683450625 hartrees
 ----------------------------------------------------------------
             Standard Nuclear Orientation (Angstroms)
    I     Atom           X                Y                Z
 ----------------------------------------------------------------
    1      O       1.5519039886     0.0832966003     1.2297541647
    2      C       2.5425490264     0.8271909021     1.0703601464
    3      C       3.9741827992     0.3859153118     0.6919761128
    4      C       4.1096009913    -0.9898128745    -0.0530860122
    5      C       2.7833956090    -1.7075945835    -0.4628733882
    6      O       2.2479747365    -2.4603114469     0.6141711604
    7      C       0.7758413534    -2.4808715135     0.6038360950
    8      C       0.0926150733    -1.2847817689     1.3324122949
    9      O      -0.6023320565    -0.3660388130     0.4187971565
   10      C      -1.9760833341    -0.2618706689     0.6916285373
   11      C      -2.6352594965     0.7202815098    -0.3095844951
   12      C      -3.8760101970     0.1646948898    -1.0955776831
   13      C      -4.4572841875    -1.1816555949    -0.5767674530
   14      O      -5.6447241792    -1.5529960103    -0.6840433836
   15      O       2.4898184597     2.1892456854     1.4053328316
   16      O      -3.4289905845    -2.1249674742    -0.3798905809
   17      O      -2.5322886274    -0.7266000474     1.7097186947
   18      C      -3.8871736641    -3.4497899101    -0.0344089848
   19      C      -3.2905157436     1.9564133859     0.4269183065
   20      C      -3.3829569348     3.1440755952    -0.5872783910
   21      C      -4.4868667129     2.6196360508    -1.5509953202
   22      C      -4.9193863771     1.3044847590    -0.8118563276
   23      O      -4.6929632934     1.5868552095     0.6036055614
   24      H      -1.8554618430     1.0808329134    -1.0079361552
   25      H      -3.6635260535     0.0230995175    -2.1733708880
   26      H      -2.7691446289     2.2434141652     1.3616169027
   27      H      -3.7714445905     4.0201989366    -0.0371298195
   28      H      -2.4298007363     3.4207597949    -1.0696150890
   29      H      -5.3205020566     3.3424255883    -1.5813648354
   30      H      -4.1411158294     2.4106094113    -2.5780243727
   31      H      -5.9578845058     1.0072932044    -1.0615475379
   32      O       2.2845002277    -1.6874499744    -1.6058437307
   33      C       1.1700305753     2.6333895119     1.7973917364
[...]
     15  O         2.6975984989    2.5142901687    0.8780447389
     16  O        -2.9778486605   -1.9230888643   -0.7890299066
     17  O        -2.6290732130   -0.8001797977    1.7734099622
     18  C        -3.1064628380   -3.3923908253   -0.6633058880
     19  C        -3.5035570654    1.9679741423    0.7100863571
     20  C        -3.9913623769    3.1270343947   -0.2481743543
     21  C        -5.2989480825    2.4952159479   -0.8574067800
     22  C        -5.2617491264    1.0568359802   -0.2110280539
     23  O        -4.7569373097    1.3180813282    1.1567748762
     24  H        -2.0608012901    1.2198040134   -0.8650176030
     25  H        -4.0358664861    0.4942513826   -1.9811494658
     26  H        -2.9082948975    2.2980558887    1.5833936581
     27  H        -4.2109392764    4.0401427726    0.3274283721
     28  H        -3.2394440532    3.3652927837   -1.0172880758
     29  H        -6.1989019120    3.0392758962   -0.5290134175
     30  H        -5.2861921330    2.4628513722   -1.9585412902
     31  H        -6.2266243948    0.5138957954   -0.1781092094
     32  O         2.1257941334   -1.4574916104   -1.7976454681
     33  C         1.4529823968    3.2605793383    0.5777780746
     34  C         5.0831152380    1.1778175841    0.2009600785
     35  C         6.4467970537    0.4272771198    0.4772404648
     36  C         6.4352553450   -0.6712606314   -0.6516160028
     37  C         4.9859042224   -0.4639842744   -1.2365533639
     38  O         4.8588826746    1.0130116700   -1.2568168935
     39  H         3.9287053439    0.1342777892    1.8629045328
     40  H         4.4273297762   -1.7494812197    0.4856504547
     41  H         0.5733365346    2.8010062634    1.0733718426
     42  H         5.0625489928    2.2492300010    0.4786139058
     43  H         7.2985443428    1.1166074140    0.3677131422
     44  H         6.4741091077   -0.0080459678    1.4892485189
     45  H         7.1938457187   -0.4601726521   -1.4224636872
     46  H         6.5951837804   -1.6896831374   -0.2631330447
     47  H         4.7984253750   -0.8849416706   -2.2433592015
     48  H         1.2588189616    3.3021550940   -0.5134382023
     49  H         1.6094751246    4.2836654781    0.9660985817
     50  H        -2.0773597539   -3.7933071108   -0.7090435007
     51  H        -3.7117065159   -3.8207537949   -1.4878295841
     52  H        -3.5722397137   -3.6745540347    0.3030311567
     53  H        -0.7774106519   -1.6405078642    2.0326985058
     54  H         0.7673410940   -0.7042966484    1.8645262211
     55  H         0.3255777763   -3.3816498437    0.8972808223
     56  H         0.1641948166   -2.3503591616   -0.5764932825
   Point Group: c1    Number of degrees of freedom:   162


   Energy is  -1510.272165810

              Constraints and their Current Values
                                        Value     Constraint
   Dihedral:        1   2   3   4       23.537       23.537
   Dihedral:        3   4   5   6      -83.555      -83.555
   Dihedral:        4   5   6   7      146.506      146.506
   Dihedral:        5   6   7   8      -86.726      -86.726
   Dihedral:        6   7   8   9      111.090      111.090
   Dihedral:        7   8   9  10      119.979      119.979
   Dihedral:        8   9  10  11     -180.000     -180.000
   Dihedral:        9  10  11  12      126.354      126.354
   Dihedral:       11  12  13  14      152.028      152.028
 Hessian Updated using BFGS Update

153 Hessian modes will be used to form the next step
  Hessian Eigenvalues:
     0.004106    0.006386    0.008505    0.014579    0.023441    0.024119
     0.034441    0.045016    0.045040    0.045262    0.045994    0.046963
     0.047848    0.051427    0.054187    0.058034    0.059765    0.060961
     0.063202    0.064838    0.066751    0.066999    0.067824    0.068195
     0.072190    0.072311    0.073936    0.075304    0.075939    0.076366
     0.078021    0.078479    0.079202    0.082328    0.082475    0.084043
     0.084448    0.084615    0.084933    0.085639    0.086503    0.087567
     0.088072    0.088847    0.089003    0.089216    0.089782    0.090809
     0.092000    0.093650    0.094086    0.096628    0.096796    0.097718
     0.104343    0.110276    0.111571    0.111811    0.113797    0.114795
     0.114812    0.115865    0.116002    0.117501    0.119969    0.120510
     0.123514    0.127719    0.130041    0.131585    0.138962    0.156924
     0.159990    0.160035    0.160050    0.160700    0.160770    0.161669
     0.161873    0.172114    0.172868    0.178316    0.193627    0.202794
     0.221726    0.237033    0.239035    0.243087    0.246223    0.250146
     0.252045    0.252505    0.255277    0.265025    0.266839    0.267175
     0.273265    0.274548    0.279413    0.281366    0.282229    0.288273
     0.290813    0.295787    0.296614    0.299949    0.303950    0.311154
     0.314210    0.316563    0.317924    0.320610    0.320902    0.321966
     0.322028    0.322824    0.323046    0.323162    0.323253    0.323652
     0.323705    0.323816    0.323871    0.324224    0.324284    0.324453
     0.324585    0.324692    0.324792    0.325009    0.325159    0.325436
     0.326905    0.327045    0.328338    0.337157    0.358314    0.369281
     0.372442    0.387372    0.402978    0.422269    0.446604    0.476504
     0.496958    0.501401    0.528969    0.535702    0.570877    0.923477
     0.931769    0.957208    1.054180

 Minimum Search - Taking Simple RFO Step
 Searching for Lamda that Minimizes Along All modes
 Value Taken    Lamda =  -0.00000113
 Step Taken.  Stepsize is  0.010542

                             Maximum     Tolerance    Cnvgd?
         Gradient           0.000060      0.000300     YES
         Displacement       0.003673      0.001200      NO
         Energy change     -0.000001      0.000001     YES

 Final energy is   -1510.27216580954     


 ******************************
 **  OPTIMIZATION CONVERGED  **
 ******************************

                       Coordinates (Angstroms)
     ATOM                X               Y               Z
      1  O         1.5061493060    0.6945304693   -0.0458111397
      2  C         2.5521363147    1.1554411596    0.4601334195
      3  C         3.8601574806    0.3513598927    0.7814180492
      4  C         3.9643612777   -0.9459865139   -0.1162873490
      5  C         2.6128776323   -1.5536774736   -0.6525474892
      6  O         2.0720294473   -2.3924588753    0.3975782234
      7  C         0.5969172904   -2.4039393679    0.4479356792
      8  C        -0.0317073643   -1.2391116629    1.3106657952
      9  O        -0.7355452333   -0.2753468604    0.4346674124
     10  C        -2.1223142216   -0.2036769109    0.7965255557
     11  C        -2.8146686394    0.8277692089   -0.1604819864
     12  C        -4.0866491434    0.2466407992   -0.9037053890
     13  C        -4.2725963100   -1.3075361766   -0.8104290945
     14  O        -5.3476182109   -1.9415098087   -0.8585507379
     15  O         2.6975984989    2.5142901687    0.8780447389
     16  O        -2.9778486605   -1.9230888643   -0.7890299066
     17  O        -2.6290732130   -0.8001797977    1.7734099622
     18  C        -3.1064628380   -3.3923908253   -0.6633058880
     19  C        -3.5035570654    1.9679741423    0.7100863571
     20  C        -3.9913623769    3.1270343947   -0.2481743543
     21  C        -5.2989480825    2.4952159479   -0.8574067800
     22  C        -5.2617491264    1.0568359802   -0.2110280539
     23  O        -4.7569373097    1.3180813282    1.1567748762
     24  H        -2.0608012901    1.2198040134   -0.8650176030
     25  H        -4.0358664861    0.4942513826   -1.9811494658
     26  H        -2.9082948975    2.2980558887    1.5833936581
     27  H        -4.2109392764    4.0401427726    0.3274283721
     28  H        -3.2394440532    3.3652927837   -1.0172880758
     29  H        -6.1989019120    3.0392758962   -0.5290134175
     30  H        -5.2861921330    2.4628513722   -1.9585412902
     31  H        -6.2266243948    0.5138957954   -0.1781092094
     32  O         2.1257941334   -1.4574916104   -1.7976454681
     33  C         1.4529823968    3.2605793383    0.5777780746
     34  C         5.0831152380    1.1778175841    0.2009600785
     35  C         6.4467970537    0.4272771198    0.4772404648
     36  C         6.4352553450   -0.6712606314   -0.6516160028
     37  C         4.9859042224   -0.4639842744   -1.2365533639
     38  O         4.8588826746    1.0130116700   -1.2568168935
     39  H         3.9287053439    0.1342777892    1.8629045328
     40  H         4.4273297762   -1.7494812197    0.4856504547
     41  H         0.5733365346    2.8010062634    1.0733718426
     42  H         5.0625489928    2.2492300010    0.4786139058
     43  H         7.2985443428    1.1166074140    0.3677131422
     44  H         6.4741091077   -0.0080459678    1.4892485189
     45  H         7.1938457187   -0.4601726521   -1.4224636872
     46  H         6.5951837804   -1.6896831374   -0.2631330447
     47  H         4.7984253750   -0.8849416706   -2.2433592015
     48  H         1.2588189616    3.3021550940   -0.5134382023
     49  H         1.6094751246    4.2836654781    0.9660985817
     50  H        -2.0773597539   -3.7933071108   -0.7090435007
     51  H        -3.7117065159   -3.8207537949   -1.4878295841
     52  H        -3.5722397137   -3.6745540347    0.3030311567
     53  H        -0.7774106519   -1.6405078642    2.0326985058
     54  H         0.7673410940   -0.7042966484    1.8645262211
     55  H         0.3255777763   -3.3816498437    0.8972808223
     56  H         0.1641948166   -2.3503591616   -0.5764932825

Z-matrix Print:
$molecule
0 1
O 
C  1 1.434993
O  2 1.251768 1 124.348273
C  1 1.480407 2 110.045004 3 4.762489 0
H  4 1.109625 1 108.901762 2 -119.298969 0
H  4 1.112890 1 107.466281 2 -0.861652 0
C  2 1.568152 1 107.796153 3 175.237522 0
H  7 1.103801 2 108.759674 1 0.542617 0
C  4 1.579967 1 110.243578 2 119.979021 0
H  9 1.109709 4 109.339404 1 -131.132272 0
H  9 1.113362 4 108.198406 1 -12.947801 0
O  9 1.476016 4 114.237721 1 111.089976 0
C  12 1.448736 9 113.723854 4 -86.726046 0
O  13 1.248099 12 124.330271 9 -39.302053 0
C  13 1.575872 12 107.263561 9 146.505950 0
H  15 1.105564 13 105.316579 12 36.800029 0
C  15 1.581089 13 116.943241 12 -83.555031 0
H  17 1.105186 15 112.975784 13 99.366768 0
C  17 1.568659 15 111.055285 13 -25.653220 0
O  19 1.250003 17 126.273890 15 23.536948 0
O  19 1.429084 17 110.037192 15 -158.626161 0
C  21 1.481950 19 109.517750 17 -179.615939 0
H  22 1.105436 21 106.021675 19 177.330505 0
H  22 1.109135 21 111.422482 19 -63.470185 0
H  22 1.109323 21 111.519584 19 57.854183 0
C  7 1.583675 2 113.556842 1 126.354022 0
H  26 1.106696 7 109.751567 2 -132.782998 0
C  26 1.568038 7 115.533251 2 -12.302174 0
O  28 1.248964 26 127.077255 7 152.027988 0
O  28 1.433783 26 108.622223 7 -33.578380 0
C  30 1.480269 28 110.422934 26 178.429905 0
H  31 1.105386 30 105.997910 28 177.024379 0
H  31 1.108898 30 111.574128 28 57.640931 0
H  31 1.109221 30 111.282827 28 -63.938615 0
C  17 1.586061 15 99.726970 13 -138.801708 0
H  35 1.106996 17 113.466212 15 164.333153 0
O  35 1.484101 17 100.668054 15 46.221167 0
C  37 1.482586 35 94.833413 17 -61.072685 0
H  38 1.107254 37 110.598283 35 176.826356 0
C  38 1.576621 37 102.403996 35 -58.615090 0
H  40 1.101672 38 112.694212 37 161.671528 0
H  40 1.101918 38 110.373115 37 -76.341133 0
C  40 1.575194 38 100.423951 37 41.155864 0
H  43 1.101202 40 111.773971 38 -125.065662 0
H  43 1.102004 40 112.507850 38 112.395280 0
C  26 1.586530 7 101.689522 2 110.576443 0
H  46 1.107634 26 114.070817 7 -151.125634 0
O  46 1.481205 26 103.934441 7 -30.298823 0
C  48 1.480829 46 95.009240 26 54.931597 0
H  49 1.107229 48 110.362225 46 178.932369 0
C  46 1.577380 26 107.711730 7 78.561322 0
H  51 1.101684 46 112.489497 26 49.094982 0
H  51 1.101708 46 110.330482 26 170.758314 0
C  51 1.574846 46 100.820660 26 -71.408029 0
H  54 1.101499 51 111.667396 46 -121.516427 0
H  54 1.101673 51 112.543691 46 115.827673 0
$end

 
 --------------------------------------------------------------
 
                    Orbital Energies (a.u.)
 --------------------------------------------------------------
 
 Alpha MOs
 -- Occupied --
-18.941 -18.938 -18.924 -18.910 -18.886 -18.885 -18.884 -18.878
-18.874 -18.862 -10.103 -10.101 -10.096 -10.092 -10.069 -10.066
-10.065 -10.060 -10.059 -10.057 -10.057 -10.056 -10.043 -10.037
-10.034 -10.033 -10.021 -10.020 -10.019 -10.019  -1.019  -1.014
 -1.001  -0.996  -0.970  -0.969  -0.942  -0.938  -0.930  -0.924
 -0.763  -0.762  -0.725  -0.723  -0.710  -0.704  -0.691  -0.665
 -0.663  -0.616  -0.597  -0.578  -0.546  -0.542  -0.537  -0.534
 -0.511  -0.508  -0.481  -0.476  -0.462  -0.456  -0.453  -0.449
 -0.432  -0.430  -0.423  -0.416  -0.412  -0.412  -0.408  -0.400
 -0.383  -0.380  -0.375  -0.369  -0.360  -0.356  -0.352  -0.350
 -0.346  -0.336  -0.332  -0.329  -0.329  -0.326  -0.322  -0.311
 -0.310  -0.306  -0.304  -0.301  -0.293  -0.289  -0.281  -0.271
 -0.270  -0.259  -0.251  -0.238  -0.234  -0.234  -0.232  -0.183
 -0.180  -0.171  -0.157  -0.157  -0.155  -0.147  -0.146  -0.144
 -0.141
 -- Virtual --
  0.095   0.097   0.101   0.115   0.230   0.236   0.242   0.255
  0.259   0.266   0.283   0.284   0.307   0.312   0.328   0.330
  0.338   0.339   0.341   0.346   0.353   0.359   0.371   0.373
  0.379   0.383   0.386   0.399   0.403   0.407   0.409   0.413
  0.417   0.419   0.421   0.423   0.424   0.426   0.427   0.431
  0.434   0.435   0.438   0.440   0.441   0.446   0.452   0.465
  0.467   0.479   0.487   0.490   0.495   0.508   0.509   0.536
  0.542   0.552   0.554   0.636   0.641   0.653   0.658
 --------------------------------------------------------------
 
          Ground-State Mulliken Net Atomic Charges

     Atom                 Charge (a.u.)
  ----------------------------------------
      1 O                    -0.201888
      2 C                     0.211415
      3 C                    -0.076901
      4 C                    -0.082171
      5 C                     0.218334
      6 O                    -0.189625
      7 C                    -0.048928
      8 C                    -0.056507
      9 O                    -0.163967
     10 C                     0.213899
     11 C                    -0.078459
     12 C                    -0.078882
     13 C                     0.214425
     14 O                    -0.210361
     15 O                    -0.169530
     16 O                    -0.168967
     17 O                    -0.223050
     18 C                    -0.127868
     19 C                     0.025395
     20 C                    -0.144934
     21 C                    -0.142845
     22 C                     0.024524
     23 O                    -0.186708
     24 H                     0.089784
     25 H                     0.085701
     26 H                     0.080725
     27 H                     0.077277
     28 H                     0.073474
     29 H                     0.078180
     30 H                     0.073524
     31 H                     0.090222
     32 O                    -0.201768
     33 C                    -0.127488
     34 C                     0.023278
     35 C                    -0.145632
     36 C                    -0.141834
     37 C                     0.022622
     38 O                    -0.192478
     39 H                     0.086627
     40 H                     0.083456
     41 H                     0.090121
     42 H                     0.089643
     43 H                     0.078226
     44 H                     0.073270
     45 H                     0.077780
     46 H                     0.073558
     47 H                     0.088388
     48 H                     0.092053
     49 H                     0.091088
     50 H                     0.090218
     51 H                     0.091697
     52 H                     0.092327
     53 H                     0.097843
     54 H                     0.082450
     55 H                     0.082973
     56 H                     0.096293
  ----------------------------------------
  Sum of atomic charges =    -0.000000

 -----------------------------------------------------------------
                    Cartesian Multipole Moments
 -----------------------------------------------------------------
    Charge (ESU x 10^10)
                 0.0000
    Dipole Moment (Debye)
         X       2.2144      Y       1.1246      Z       0.5374
       Tot       2.5411
    Quadrupole Moments (Debye-Ang)
        XX    -161.6348     XY      -7.8095     YY    -148.5771
        XZ      14.6793     YZ       0.1595     ZZ    -164.3839
    Octopole Moments (Debye-Ang^2)
       XXX     129.9540    XXY      10.5605    XYY     -26.0149
       YYY     -24.2671    XXZ     -11.7404    XYZ      12.2691
       YYZ       5.7847    XZZ      -2.6803    YZZ      -7.4595
       ZZZ       9.8838
    Hexadecapole Moments (Debye-Ang^3)
      XXXX  -14327.6461   XXXY    -163.4748   XXYY   -2931.4343
      XYYY     223.5494   YYYY   -3042.2413   XXXZ     125.9639
      XXYZ     -56.9903   XYYZ     -13.7595   YYYZ    -108.6158
      XXZZ   -2601.3234   XYZZ      42.9236   YYZZ    -685.6628
      XZZZ       6.5874   YZZZ    -140.7766   ZZZZ    -887.7202
 -----------------------------------------------------------------
Archival summary:
1\1\vega02.cac.cornell.edu\OPT\ProcedureUnspecified\STO-3G\102026\jj585\MonJan1520:25:222018MonJan1520:25:222018\0\\#,OPT,ProcedureUnspecified,STO-3G,\\0,1\O\C,1,1.43499\O,2,1.25177,1,124.348\C,1,1.48041,2,110.045,3,4.76249,0\H,4,1.10962,1,108.902,2,-119.299,0\H,4,1.11289,1,107.466,2,-0.861652,0\C,2,1.56815,1,107.796,3,175.238,0\H,7,1.1038,2,108.76,1,0.542617,0\C,4,1.57997,1,110.244,2,119.979,0\H,9,1.10971,4,109.339,1,-131.132,0\H,9,1.11336,4,108.198,1,-12.9478,0\O,9,1.47602,4,114.238,1,111.09,0\C,12,1.44874,9,113.724,4,-86.726,0\O,13,1.2481,12,124.33,9,-39.3021,0\C,13,1.57587,12,107.264,9,146.506,0\H,15,1.10556,13,105.317,12,36.8,0\C,15,1.58109,13,116.943,12,-83.555,0\H,17,1.10519,15,112.976,13,99.3668,0\C,17,1.56866,15,111.055,13,-25.6532,0\O,19,1.25,17,126.274,15,23.5369,0\O,19,1.42908,17,110.037,15,-158.626,0\C,21,1.48195,19,109.518,17,-179.616,0\H,22,1.10544,21,106.022,19,177.331,0\H,22,1.10914,21,111.422,19,-63.4702,0\H,22,1.10932,21,111.52,19,57.8542,0\C,7,1.58367,2,113.557,1,126.354,0\H,26,1.1067,7,109.752,2,-132.783,0\C,26,1.56804,7,115.533,2,-12.3022,0\O,28,1.24896,26,127.077,7,152.028,0\O,28,1.43378,26,108.622,7,-33.5784,0\C,30,1.48027,28,110.423,26,178.43,0\H,31,1.10539,30,105.998,28,177.024,0\H,31,1.1089,30,111.574,28,57.6409,0\H,31,1.10922,30,111.283,28,-63.9386,0\C,17,1.58606,15,99.727,13,-138.802,0\H,35,1.107,17,113.466,15,164.333,0\O,35,1.4841,17,100.668,15,46.2212,0\C,37,1.48259,35,94.8334,17,-61.0727,0\H,38,1.10725,37,110.598,35,176.826,0\C,38,1.57662,37,102.404,35,-58.6151,0\H,40,1.10167,38,112.694,37,161.672,0\H,40,1.10192,38,110.373,37,-76.3411,0\C,40,1.57519,38,100.424,37,41.1559,0\H,43,1.1012,40,111.774,38,-125.066,0\H,43,1.102,40,112.508,38,112.395,0\C,26,1.58653,7,101.69,2,110.576,0\H,46,1.10763,26,114.071,7,-151.126,0\O,46,1.48121,26,103.934,7,-30.2988,0\C,48,1.48083,46,95.0092,26,54.9316,0\H,49,1.10723,48,110.362,46,178.932,0\C,46,1.57738,26,107.712,7,78.5613,0\H,51,1.10168,46,112.489,26,49.095,0\H,51,1.10171,46,110.33,26,170.758,0\C,51,1.57485,46,100.821,26,-71.408,0\H,54,1.1015,51,111.667,46,-121.516,0\H,54,1.10167,51,112.544,46,115.828,0\\\@

 Total job time:  113.96s(wall), 5434.57s(cpu) 
 Mon Jan 15 20:25:22 2018

        *************************************************************
        *                                                           *
        *  Thank you very much for using Q-Chem.  Have a nice day.  *
        *                                                           *
        *************************************************************


0 sent ACK to 0 
now end server 0 ... 
