mFile = /opt/software/qchem/qchem-5.0.1//bin/mpi/machines
Process 0 of 1 is on vega02.cac.cornell.edu - thread support 0
initial socket setup ...start
initial socket setup ...done 
now start server 0 ... 
vega02.cac.cornell.edu 10.84.3
Q-Chem Developer Version! Running on 10.84.3.*
                  Welcome to Q-Chem
     A Quantum Leap Into The Future Of Chemistry


 Q-Chem 5.0, Q-Chem, Inc., Pleasanton, CA (2017)

 Yihan Shao,  Zhengting Gan,  E. Epifanovsky,  A. T. B. Gilbert,  M. Wormit,  
 J. Kussmann,  A. W. Lange,  A. Behn,  Jia Deng,  Xintian Feng,  D. Ghosh,  
 M. Goldey,  P. R. Horn,  L. D. Jacobson,  I. Kaliman,  T. Kus,  A. Landau,  
 Jie Liu,  E. I. Proynov,  R. M. Richard,  R. P. Steele,  E. J. Sundstrom,  
 H. L. Woodcock III,  P. M. Zimmerman,  D. Zuev,  B. Albrecht,  E. Alguire,  
 S. A. Baeppler,  Z. Benda,  Y. A. Bernard,  E. J. Berquist,  K. B. Bravaya,  
 D. Casanova,  Chun-Min Chang,  Yunqing Chen,  A. Chien,  K. D. Closser,  
 M. P. Coons,  S. Dasgupta,  M. Diedenhofen,  Hainam Do,  R. G. Edgar,  
 Po-Tung Fang,  S. Fatehi,  Qingguo Feng,  Qinghui Ge,  A. Ghysels,  
 J. Gomes,  J. Gonthier,  A. Gunina,  M. W. D. Hanson-Heine,  
 P. H. P. Harbach,  A. W. Hauser,  J. E. Herr,  E. G. Hohenstein,  
 Z. C. Holden,  Kerwin Hui,  T.-C. Jagau,  Hyunjun Ji,  B. Kaduk,  
 K. Khistyaev,  Jaehoon Kim,  P. Klunzinger,  K. Koh,  D. Kosenkov,  
 T. Kowalczyk,  C. M. Krauter,  A. Kunitsa,  Ka Un Lao,  A. Laurent,  
 K. V. Lawler,  Joonho Lee,  D. Lefrancois,  S. Lehtola,  D. S. Levine,  
 Yi-Pei Li,  You-Sheng Lin,  Fenglai Liu,  E. Livshits,  A. Luenser,  
 P. Manohar,  E. Mansoor,  S. F. Manzer,  Shan-Ping Mao,  Yuezhi Mao,  
 N. Mardirossian,  A. V. Marenich,  L. A. Martinez-Martinez,  S. A. Maurer,  
 N. J. Mayhall,  S. C. McKenzie,  J.-M. Mewes,  A. F. Morrison,  K. Nanda,  
 T. S. Nguyen-Beck,  R. Olivares-Amaya,  J. A. Parkhill,  T. M. Perrine,  
 F. Plasser,  S. Prager,  A. Prociuk,  D. R. Rehn,  F. Rob,  M. Schneider,  
 N. Sergueev,  S. M. Sharada,  S. Sharma,  D. W. Small,  T. Stauch,  
 T. Stein,  Yu-Chuan Su,  A. J. W. Thom,  T. Tsuchimochi,  L. Vogt,  
 O. Vydrov,  M. A. Watson,  J. Wenzel,  M. de Wergifosse,  T. A. Wesolowski,  
 A. White,  J. Witte,  A. Yamada,  Jun Yang,  K. Yao,  S. Yeganeh,  
 S. R. Yost,  Zhi-Qiang You,  A. Zech,  Igor Ying Zhang,  Xing Zhang,  
 Yan Zhao,  Ying Zhu,  B. R. Brooks,  G. K. L. Chan,  C. J. Cramer,  
 M. S. Gordon,  W. J. Hehre,  A. Klamt,  M. W. Schmidt,  C. D. Sherrill,  
 D. G. Truhlar,  A. Aspuru-Guzik,  R. Baer,  A. T. Bell,  N. A. Besley,  
 Jeng-Da Chai,  A. Dreuw,  B. D. Dunietz,  T. R. Furlani,  Chao-Ping Hsu,  
 Yousung Jung,  Jing Kong,  D. S. Lambrecht,  WanZhen Liang,  C. Ochsenfeld,  
 V. A. Rassolov,  L. V. Slipchenko,  J. E. Subotnik,  T. Van Voorhis,  
 J. M. Herbert,  A. I. Krylov,  P. M. W. Gill,  M. Head-Gordon

 Contributors to earlier versions of Q-Chem not listed above: 
 R. D. Adamson,  B. Austin,  J. Baker,  G. J. O. Beran,  K. Brandhorst,  
 S. T. Brown,  E. F. C. Byrd,  A. K. Chakraborty,  C.-L. Cheng,  
 Siu Hung Chien,  D. M. Chipman,  D. L. Crittenden,  H. Dachsel,  
 R. A. DiStasio Jr.,  R. J. Doerksen,  A. D. Dutoi,  L. Fusti-Molnar,  
 W. A. Goddard III,  A. Golubeva-Zadorozhnaya,  S. R. Gwaltney,  G. Hawkins,  
 A. Heyden,  S. Hirata,  G. Kedziora,  F. J. Keil,  C. Kelley,  Jihan Kim,  
 R. A. King,  R. Z. Khaliullin,  P. P. Korambath,  W. Kurlancheek,  
 A. M. Lee,  M. S. Lee,  S. V. Levchenko,  Ching Yeh Lin,  D. Liotard,  
 R. C. Lochan,  I. Lotan,  P. E. Maslen,  N. Nair,  D. P. O'Neill,  
 D. Neuhauser,  E. Neuscamman,  C. M. Oana,  R. Olson,  B. Peters,  
 R. Peverati,  P. A. Pieniazek,  Y. M. Rhee,  J. Ritchie,  M. A. Rohrdanz,  
 E. Rosta,  N. J. Russ,  H. F. Schaefer III,  N. E. Schultz,  N. Shenvi,  
 A. C. Simmonett,  A. Sodt,  D. Stuck,  K. S. Thanthiriwatte,  V. Vanovschi,  
 Tao Wang,  A. Warshel,  C. F. Williams,  Q. Wu,  X. Xu,  W. Zhang

 Please cite Q-Chem as follows:
 Y. Shao et al., Mol. Phys. 113, 184-215 (2015)
 DOI: 10.1080/00268976.2014.952696

 Q-Chem 5.0.1 for Intel X86 EM64T Linux

 Parts of Q-Chem use Armadillo 5.200.1 (Boston Tea Smuggler).
 http://arma.sourceforge.net/

 Q-Chem begins on Mon Jan 15 20:25:25 2018  

Host: vega02.cac.cornell.edu
0

     Scratch files written to /scratch/jj585/SOT1001/0908r.save//
 Parallel job on  1  processors

Checking the input file for inconsistencies... 	...done.

--------------------------------------------------------------
User input:
--------------------------------------------------------------
$molecule
0  1
O 1.506149306 0.6945304693 -0.0458111397
C 2.5521363147 1.1554411596 0.4601334195
C 3.8601574806 0.3513598927 0.7814180492
C 3.9643612777 -0.9459865139 -0.116287349
C 2.6128776323 -1.5536774736 -0.6525474892
O 2.0720294473 -2.3924588753 0.3975782234
C 0.5969172904 -2.4039393679 0.4479356792
C -0.0317073643 -1.2391116629 1.3106657952
O -0.7355452333 -0.2753468604 0.4346674124
C -2.1223142216 -0.2036769109 0.7965255557
C -2.8146686394 0.8277692089 -0.1604819864
C -4.0866491434 0.2466407992 -0.903705389
C -4.27259631 -1.3075361766 -0.8104290945
O -5.3476182109 -1.9415098087 -0.8585507379
O 2.6975984989 2.5142901687 0.8780447389
O -2.9778486605 -1.9230888643 -0.7890299066
O -2.629073213 -0.8001797977 1.7734099622
C -3.106462838 -3.3923908253 -0.663305888
C -3.5035570654 1.9679741423 0.7100863571
C -3.9913623769 3.1270343947 -0.2481743543
C -5.2989480825 2.4952159479 -0.85740678
C -5.2617491264 1.0568359802 -0.2110280539
O -4.7569373097 1.3180813282 1.1567748762
H -2.0608012901 1.2198040134 -0.865017603
H -4.0358664861 0.4942513826 -1.9811494658
H -2.9082948975 2.2980558887 1.5833936581
H -4.2109392764 4.0401427726 0.3274283721
H -3.2394440532 3.3652927837 -1.0172880758
H -6.198901912 3.0392758962 -0.5290134175
H -5.286192133 2.4628513722 -1.9585412902
H -6.2266243948 0.5138957954 -0.1781092094
O 2.1257941334 -1.4574916104 -1.7976454681
C 1.4529823968 3.2605793383 0.5777780746
C 5.083115238 1.1778175841 0.2009600785
C 6.4467970537 0.4272771198 0.4772404648
C 6.435255345 -0.6712606314 -0.6516160028
C 4.9859042224 -0.4639842744 -1.2365533639
O 4.8588826746 1.01301167 -1.2568168935
H 3.9287053439 0.1342777892 1.8629045328
H 4.4273297762 -1.7494812197 0.4856504547
H 0.5733365346 2.8010062634 1.0733718426
H 5.0625489928 2.249230001 0.4786139058
H 7.2985443428 1.116607414 0.3677131422
H 6.4741091077 -0.0080459678 1.4892485189
H 7.1938457187 -0.4601726521 -1.4224636872
H 6.5951837804 -1.6896831374 -0.2631330447
H 4.798425375 -0.8849416706 -2.2433592015
H 1.2588189616 3.302155094 -0.5134382023
H 1.6094751246 4.2836654781 0.9660985817
H -2.0773597539 -3.7933071108 -0.7090435007
H -3.7117065159 -3.8207537949 -1.4878295841
H -3.5722397137 -3.6745540347 0.3030311567
H -0.7774106519 -1.6405078642 2.0326985058
H 0.767341094 -0.7042966484 1.8645262211
H 0.3255777763 -3.3816498437 0.8972808223
H 0.1641948166 -2.3503591616 -0.5764932825
$end

$rem
JOBTYPE                   OPT
METHOD                    B3LYP
DFT_D                     d3_op
BASIS                     STO-3G
GEOM_OPT_MAX_CYCLES       100
GEOM_OPT_TOL_GRADIENT     300
GEOM_OPT_TOL_DISPLACEMENT 1200
GEOM_OPT_TOL_ENERGY       100
SYMMETRY                  False
THRESH                    12
SCF_CONVERGENCE           8
MAX_SUB_FILE_NUM          128
MEM_STATIC                400
MEM_TOTAL                 4000
$end
--------------------------------------------------------------
 Adding empirical dispersion correction 
 ----------------------------------------------------------------
 Doing -D3(op) with
 s6 =   1.00000
 s8 =   0.78311
 a1 =   0.30000
 a2 =   4.25000
 n  =  10.00000
 -D3 energy without 3body term =     -0.0690690455 hartrees
 ----------------------------------------------------------------
             Standard Nuclear Orientation (Angstroms)
    I     Atom           X                Y                Z
 ----------------------------------------------------------------
    1      O      -1.4888245571     0.6868035924     0.1123021261
    2      C      -2.5281879570     1.2241981034    -0.3275140244
    3      C      -3.8477531569     0.4872085983    -0.7473759305
    4      C      -3.9704212142    -0.9137973651    -0.0248968994
    5      C      -2.6277018361    -1.6050045686     0.4253347717
    6      O      -2.0992809876    -2.3084397577    -0.7256584311
    7      C      -0.6245010186    -2.3343491928    -0.7802138573
    8      C       0.0206313554    -1.0767421675    -1.4862765894
    9      O       0.7385240128    -0.2446072193    -0.4944171904
   10      C       2.1260877317    -0.1464955156    -0.8469042741
   11      C       2.8334953811     0.7424230885     0.2340662649
   12      C       4.0971570666     0.0518987117     0.8931268744
   13      C       4.2606468254    -1.4796251817     0.5991055304
   14      O       5.3264265731    -2.1297661381     0.5624911565
   15      O      -2.6541475164     2.6276438775    -0.5657447865
   16      O       2.9571510359    -2.0686956229     0.5009767657
   17      O       2.6239361172    -0.6187085263    -1.8938452326
   18      C       3.0645293189    -3.5110494327     0.1858866521
   19      C       3.5385281089     1.9757717634    -0.4830834357
   20      C       4.0432486557     2.9939739264     0.6160797944
   21      C       5.3417457807     2.2700259442     1.1356407736
   22      C       5.2836380144     0.9280860790     0.3086298686
   23      O       4.7822887126     1.3713471767    -1.0127850680
   24      H       2.0855443955     1.0506850971     0.9850133739
   25      H       4.0502322915     0.1586691793     1.9936602681
   26      H       2.9478598655     2.4245697267    -1.3050615767
   27      H       4.2758206995     3.9706768840     0.1630224025
   28      H       3.2950456768     3.1413825194     1.4111566154
   29      H       6.2493663404     2.8391192088     0.8785063749
   30      H       5.3288122680     2.0955962563     2.2233513958
   31      H       6.2405742483     0.3802641513     0.2036719820
   32      O      -2.1389825063    -1.6647995780     1.5722128864
   33      C      -1.3988197317     3.3109583237    -0.1740684448
   34      C      -5.0585131251     1.2489465742    -0.0622445538
   35      C      -6.4329492768     0.5600110679    -0.4304334566
   36      C      -6.4369563081    -0.6754487280     0.5467350870
   37      C      -4.9846137967    -0.5663242153     1.1504957612
   38      O      -4.8362995584     0.8936610798     1.3614647846
   39      H      -3.9197072765     0.4129323185    -1.8477131980
   40      H      -4.4450865670    -1.6259355303    -0.7247716945
   41      H      -0.5260227048     2.9068948040    -0.7268391556
   42      H      -5.0225701493     2.3468805886    -0.1989493003
   43      H      -7.2746380973     1.2414471160    -0.2308068672
   44      H      -6.4668010924     0.2597709376    -1.4902081304
   45      H      -7.1922220296    -0.5551084497     1.3400292001
   46      H      -6.6116569193    -1.6326360182     0.0300604294
   47      H      -4.8029621228    -1.1166855206     2.0939556412
   48      H      -1.2037916425     3.2081711502     0.9129365172
   49      H      -1.5406431808     4.3778274021    -0.4263867326
   50      H       2.0297634054    -3.8997904615     0.1815424835
   51      H       3.6637479109    -4.0511200265     0.9467512271
   52      H       3.5259358826    -3.6723796855    -0.8098281621
   53      H       0.7602795485    -1.3919047004    -2.2557677635
   54      H      -0.7707658927    -0.4633936424    -1.9645661381
   55      H      -0.3674073243    -3.2494461978    -1.3528867724
   56      H      -0.1907830446    -2.4199930595     0.2416120196
 ----------------------------------------------------------------
 Molecular Point Group                 C1    NOp =  1
 Largest Abelian Subgroup              C1    NOp =  1
 Nuclear Repulsion Energy =  3175.0947275866 hartrees
 There are      113 alpha and      113 beta electrons
 Requested basis set is STO-3G
 There are 86 shells and 176 basis functions

 Total QAlloc Memory Limit   4000 MB
 Mega-Array Size       392 MB
 MEM_STATIC part       400 MB
 A cutoff of  1.0D-12 yielded   2229 shell pairs
 There are     10566 function pairs
 
 -------------------------------------------------------
 OpenMP Integral Computing Module                       
 Release: version 1.0, May 2013, Q-Chem Inc. Pittsburgh 
 -------------------------------------------------------
 Integral Job Info:
 Integral job number is                      11
 Integral operator is                         1
 short-range coefficients                     0
 long-range coefficients              100000000
 Omega coefficients                           0
 if combine SR and LR in K                    0
 Integral screening is                        0
 Integral computing path is                   2
 max size of driver memory is            800000
 size of driver memory is                 45569
 size of scratch memory is              1046100
 max col of scratch BK array                289
 max len of scratch array in speh3           22
 max len of scratch index in speh4            8
 max int batch size is                      520
 min int batch size is                       52
 fixed nKL is                                52
 max L of basis functions is                  1
 order of int derivative is                   0
 number of shells is                         86
 number of basis is                         176
 number of cartesian basis is               176
 number of contracted shell pairs          2229
 number of primitive shell pairs          11244
 maxK2 (contraction) of shell pair            9
 max number of K2 of shell pair               1
 max number of CS2 of shell pair            352
 max number of PS2 of shell pair           1266
 mem total for path MDJ                   49782
 -------------------------------------------------------
 Smallest overlap matrix eigenvalue = 2.13E-01

 Scale SEOQF with 1.000000e-02/1.000000e-01/1.000000e-01

 Standard Electronic Orientation quadrupole field applied
 Nucleus-field energy     =     0.0000000447 hartrees
 Guess from superposition of atomic densities
 Warning:  Energy on first SCF cycle will be non-variational
 A restricted hybrid HF-DFT SCF calculation will be
 performed using Pulay DIIS extrapolation
 Exchange:     0.2000 Hartree-Fock + 0.0800 Slater + 0.7200 B88
 Correlation:  0.1900 VWN1RPA + 0.8100 LYP
 Using SG-1 standard quadrature grid
 Dispersion:   Grimme D3
 SCF converges when DIIS error is below 1.0E-08
 using 48 threads for integral computing
 -------------------------------------------------------
 OpenMP Integral computing Module                
 Release: version 1.0, May 2013, Q-Chem Inc. Pittsburgh 
 -------------------------------------------------------
 -------------------------------------------------------
 OpenMP BLAS3 based DFT computing Module                
 Release: version 1.0, May 2013, Q-Chem Inc. Pittsburgh 
 -------------------------------------------------------
 ---------------------------------------
  Cycle       Energy         DIIS Error
 ---------------------------------------
    1   -1507.6261122713      7.46E-02
    2   -1509.7302710125      1.04E-02
    3   -1507.5370917740      2.61E-02
    4   -1510.1895107726      4.22E-03
    5   -1510.2634586950      1.38E-03
    6   -1510.2709863853      5.06E-04
    7   -1510.2719813215      1.64E-04
    8   -1510.2720946201      3.29E-05
    9   -1510.2720984131      1.62E-05
   10   -1510.2720995182      5.10E-06
   11   -1510.2720996310      1.32E-06
   12   -1510.2720996387      2.71E-07
   13   -1510.2720996390      1.60E-07
   14   -1510.2720996391      6.28E-08
   15   -1510.2720996391      1.35E-08
   16   -1510.2720996390      5.26E-09 Convergence criterion met
 ---------------------------------------
 SCF time:  CPU 120.61 s  wall 2.57 s
 SCF   energy in the final basis set = -1510.27209964
 Total energy in the final basis set = -1510.27209964
 
 --------------------------------------------------------------
 
                    Orbital Energies (a.u.)
 --------------------------------------------------------------
 
 Alpha MOs
 -- Occupied --
-18.941 -18.938 -18.924 -18.910 -18.886 -18.885 -18.884 -18.878
-18.874 -18.862 -10.103 -10.101 -10.096 -10.092 -10.069 -10.066
-10.065 -10.060 -10.059 -10.057 -10.057 -10.056 -10.043 -10.037
-10.034 -10.033 -10.021 -10.020 -10.019 -10.019  -1.019  -1.014
 -1.001  -0.996  -0.970  -0.969  -0.942  -0.938  -0.930  -0.924
 -0.763  -0.762  -0.725  -0.723  -0.710  -0.704  -0.691  -0.665
 -0.663  -0.616  -0.597  -0.578  -0.546  -0.542  -0.537  -0.534
 -0.511  -0.508  -0.481  -0.476  -0.462  -0.456  -0.453  -0.449
 -0.432  -0.430  -0.423  -0.416  -0.412  -0.412  -0.408  -0.400
 -0.383  -0.380  -0.375  -0.369  -0.360  -0.356  -0.352  -0.350
 -0.346  -0.336  -0.332  -0.329  -0.329  -0.326  -0.322  -0.311
 -0.310  -0.306  -0.304  -0.301  -0.293  -0.289  -0.281  -0.271
 -0.270  -0.259  -0.251  -0.238  -0.234  -0.234  -0.232  -0.183
 -0.180  -0.171  -0.157  -0.157  -0.155  -0.147  -0.146  -0.144
 -0.141
 -- Virtual --
  0.095   0.097   0.101   0.115   0.230   0.236   0.242   0.255
  0.259   0.266   0.283   0.284   0.307   0.312   0.328   0.330
  0.338   0.339   0.341   0.346   0.353   0.359   0.371   0.373
  0.379   0.383   0.386   0.399   0.403   0.407   0.409   0.413
  0.417   0.419   0.421   0.423   0.424   0.426   0.427   0.431
  0.434   0.435   0.438   0.440   0.441   0.446   0.452   0.465
  0.467   0.479   0.487   0.490   0.495   0.508   0.509   0.536
  0.542   0.552   0.554   0.636   0.641   0.653   0.658
 --------------------------------------------------------------
 
          Ground-State Mulliken Net Atomic Charges

     Atom                 Charge (a.u.)
  ----------------------------------------
      1 O                    -0.201858
      2 C                     0.211376
      3 C                    -0.076892
      4 C                    -0.082141
      5 C                     0.218320
      6 O                    -0.189623
      7 C                    -0.048924
      8 C                    -0.056510
      9 O                    -0.163972
     10 C                     0.213912
     11 C                    -0.078477
     12 C                    -0.078876
     13 C                     0.214422
     14 O                    -0.210360
     15 O                    -0.169524
     16 O                    -0.168970
     17 O                    -0.223059
     18 C                    -0.127885
     19 C                     0.025386
     20 C                    -0.144963
     21 C                    -0.142827
     22 C                     0.024527
     23 O                    -0.186674
     24 H                     0.089787
     25 H                     0.085697
     26 H                     0.080716
     27 H                     0.077282
     28 H                     0.073482
     29 H                     0.078188
     30 H                     0.073514
     31 H                     0.090212
     32 O                    -0.201764
     33 C                    -0.127494
     34 C                     0.023245
     35 C                    -0.145682
     36 C                    -0.141790
     37 C                     0.022650
     38 O                    -0.192466
     39 H                     0.086625
     40 H                     0.083442
     41 H                     0.090122
     42 H                     0.089643
     43 H                     0.078233
     44 H                     0.073267
     45 H                     0.077779
     46 H                     0.073560
     47 H                     0.088373
     48 H                     0.092055
     49 H                     0.091087
     50 H                     0.090228
     51 H                     0.091697
     52 H                     0.092332
     53 H                     0.097859
     54 H                     0.082439
     55 H                     0.082972
     56 H                     0.096301
  ----------------------------------------
  Sum of atomic charges =    -0.000000

 -----------------------------------------------------------------
                    Cartesian Multipole Moments
 -----------------------------------------------------------------
    Charge (ESU x 10^10)
                 0.0000
    Dipole Moment (Debye)
         X      -2.1978      Y       1.2163      Z      -0.3828
       Tot       2.5409
    Quadrupole Moments (Debye-Ang)
        XX    -161.4320     XY       6.0760     YY    -149.0119
        XZ      15.6390     YZ       1.6143     ZZ    -164.2064
    Octopole Moments (Debye-Ang^2)
       XXX    -132.8729    XXY      14.3932    XYY      20.5774
       YYY     -14.9847    XXZ      18.1827    XYZ      14.1037
       YYZ      -3.4369    XZZ       4.0362    YZZ      -5.0127
       ZZZ       0.0452
    Hexadecapole Moments (Debye-Ang^3)
      XXXX  -14319.5532   XXXY     226.7183   XXYY   -2951.0218
      XYYY    -133.7046   YYYY   -3053.9774   XXXZ     164.1621
      XXYZ       8.7578   XYYZ     -27.3561   YYYZ     -17.9300
      XXZZ   -2594.6669   XYZZ     -22.2616   YYZZ    -688.9901
      XZZZ       2.9253   YZZZ     -14.2985   ZZZZ    -854.1483
 -----------------------------------------------------------------
 Calculating analytic gradient of the SCF energy
 Gradient of SCF Energy
            1           2           3           4           5           6
    1   0.0014904  -0.0036357   0.0031207   0.0029684  -0.0083819   0.0033358
    2  -0.0006379   0.0008879  -0.0027731   0.0112408  -0.0065527  -0.0108398
    3  -0.0043566   0.0072829  -0.0082052   0.0034279  -0.0012716   0.0102602
            7           8           9          10          11          12
    1  -0.0010477   0.0010958  -0.0004144  -0.0002151  -0.0028622   0.0026896
    2   0.0073728   0.0011583   0.0008652  -0.0011452  -0.0012211   0.0009655
    3  -0.0108563   0.0027356  -0.0000805   0.0003835   0.0033502  -0.0023721
           13          14          15          16          17          18
    1  -0.0001564  -0.0002837   0.0001097   0.0000076   0.0001777   0.0000975
    2   0.0007213  -0.0006305   0.0000751   0.0001113   0.0000740  -0.0001235
    3  -0.0041001   0.0034706  -0.0002150   0.0000688  -0.0001326  -0.0000360
           19          20          21          22          23          24
    1   0.0003705  -0.0004453   0.0003894   0.0001373  -0.0002654   0.0000120
    2   0.0005312  -0.0000232  -0.0003765  -0.0001923   0.0002455   0.0002356
    3   0.0000521  -0.0003204   0.0000980   0.0000160   0.0001132   0.0000032
           25          26          27          28          29          30
    1   0.0001235   0.0000523   0.0000551   0.0001025  -0.0000564   0.0000349
    2   0.0001421   0.0000052   0.0000439  -0.0000284  -0.0001297   0.0000201
    3  -0.0000066   0.0000085  -0.0000530  -0.0000180  -0.0000394   0.0000727
           31          32          33          34          35          36
    1   0.0000473   0.0001106  -0.0000582   0.0005625  -0.0001403   0.0000184
    2  -0.0000276  -0.0001140  -0.0001565  -0.0002525   0.0000078  -0.0001803
    3  -0.0000385  -0.0001031   0.0001010   0.0001115  -0.0000427   0.0001380
           37          38          39          40          41          42
    1  -0.0000849  -0.0000693   0.0001872   0.0000597   0.0000839   0.0000742
    2  -0.0000797   0.0001966   0.0000036  -0.0000197   0.0000370   0.0000170
    3   0.0004260  -0.0002146   0.0000100   0.0000421  -0.0000485   0.0000507
           43          44          45          46          47          48
    1   0.0000580   0.0000962   0.0000063  -0.0000036  -0.0000183   0.0000555
    2  -0.0000504  -0.0000297   0.0000801   0.0000085  -0.0000148   0.0000409
    3  -0.0000300   0.0000841  -0.0000368   0.0000664  -0.0000802   0.0000121
           49          50          51          52          53          54
    1   0.0000349   0.0000285  -0.0000185   0.0000847   0.0000390   0.0001352
    2  -0.0000086   0.0000634  -0.0000317   0.0000394   0.0001400   0.0001597
    3   0.0000634  -0.0000095  -0.0000172   0.0000504   0.0002099  -0.0000027
           55          56
    1   0.0001317  -0.0000271
    2   0.0000461   0.0001036
    3  -0.0000138  -0.0000079
 Max gradient component =       1.124E-02
 RMS gradient           =       2.343E-03
 Gradient time:  CPU 32.07 s  wall 0.69 s
 Geometry Optimization Parameters
   NAtoms,    NIC,     NZ,  NCons,   NDum,   NFix, NCnnct, MaxDiis
       56     458       0       0       0       0       0       0


** GEOMETRY OPTIMIZATION IN DELOCALIZED INTERNAL COORDINATES **
   Searching for a Minimum

   Optimization Cycle:   1

                       Coordinates (Angstroms)
     ATOM                X               Y               Z
      1  O        -1.4888245571    0.6868035924    0.1123021261
      2  C        -2.5281879570    1.2241981034   -0.3275140244
      3  C        -3.8477531569    0.4872085983   -0.7473759305
      4  C        -3.9704212142   -0.9137973651   -0.0248968994
      5  C        -2.6277018361   -1.6050045686    0.4253347717
      6  O        -2.0992809876   -2.3084397577   -0.7256584311
      7  C        -0.6245010186   -2.3343491928   -0.7802138573
      8  C         0.0206313554   -1.0767421675   -1.4862765894
      9  O         0.7385240128   -0.2446072193   -0.4944171904
     10  C         2.1260877317   -0.1464955156   -0.8469042741
     11  C         2.8334953811    0.7424230885    0.2340662649
     12  C         4.0971570666    0.0518987117    0.8931268744
     13  C         4.2606468254   -1.4796251817    0.5991055304
     14  O         5.3264265731   -2.1297661381    0.5624911565
     15  O        -2.6541475164    2.6276438775   -0.5657447865
     16  O         2.9571510359   -2.0686956229    0.5009767657
     17  O         2.6239361172   -0.6187085263   -1.8938452326
     18  C         3.0645293189   -3.5110494327    0.1858866521
     19  C         3.5385281089    1.9757717634   -0.4830834357
     20  C         4.0432486557    2.9939739264    0.6160797944
     21  C         5.3417457807    2.2700259442    1.1356407736
     22  C         5.2836380144    0.9280860790    0.3086298686
     23  O         4.7822887126    1.3713471767   -1.0127850680
     24  H         2.0855443955    1.0506850971    0.9850133739
     25  H         4.0502322915    0.1586691793    1.9936602681
     26  H         2.9478598655    2.4245697267   -1.3050615767
     27  H         4.2758206995    3.9706768840    0.1630224025
     28  H         3.2950456768    3.1413825194    1.4111566154
     29  H         6.2493663404    2.8391192088    0.8785063749
     30  H         5.3288122680    2.0955962563    2.2233513958
     31  H         6.2405742483    0.3802641513    0.2036719820
     32  O        -2.1389825063   -1.6647995780    1.5722128864
     33  C        -1.3988197317    3.3109583237   -0.1740684448
     34  C        -5.0585131251    1.2489465742   -0.0622445538
     35  C        -6.4329492768    0.5600110679   -0.4304334566
     36  C        -6.4369563081   -0.6754487280    0.5467350870
     37  C        -4.9846137967   -0.5663242153    1.1504957612
     38  O        -4.8362995584    0.8936610798    1.3614647846
     39  H        -3.9197072765    0.4129323185   -1.8477131980
     40  H        -4.4450865670   -1.6259355303   -0.7247716945
     41  H        -0.5260227048    2.9068948040   -0.7268391556
     42  H        -5.0225701493    2.3468805886   -0.1989493003
     43  H        -7.2746380973    1.2414471160   -0.2308068672
     44  H        -6.4668010924    0.2597709376   -1.4902081304
     45  H        -7.1922220296   -0.5551084497    1.3400292001
     46  H        -6.6116569193   -1.6326360182    0.0300604294
     47  H        -4.8029621228   -1.1166855206    2.0939556412
     48  H        -1.2037916425    3.2081711502    0.9129365172
     49  H        -1.5406431808    4.3778274021   -0.4263867326
     50  H         2.0297634054   -3.8997904615    0.1815424835
     51  H         3.6637479109   -4.0511200265    0.9467512271
     52  H         3.5259358826   -3.6723796855   -0.8098281621
     53  H         0.7602795485   -1.3919047004   -2.2557677635
     54  H        -0.7707658927   -0.4633936424   -1.9645661381
     55  H        -0.3674073243   -3.2494461978   -1.3528867724
     56  H        -0.1907830446   -2.4199930595    0.2416120196
   Point Group: c1    Number of degrees of freedom:   162


   Energy is  -1510.272099639


 Attempting to Generate Delocalized Internal Coordinates

162 Hessian modes will be used to form the next step
  Hessian Eigenvalues:
     0.002000    0.002000    0.002000    0.002000    0.002000    0.002713
     0.002844    0.004067    0.004377    0.004383    0.004500    0.004805
     0.005009    0.005027    0.005590    0.006804    0.006805    0.009199
     0.011016    0.011177    0.011798    0.021436    0.021690    0.025554
     0.026008    0.030568    0.030835    0.035186    0.035359    0.038409
     0.040242    0.042031    0.042091    0.044585    0.045392    0.045509
     0.047512    0.047642    0.048980    0.051025    0.051212    0.053178
     0.053394    0.054627    0.054781    0.055681    0.055817    0.056440
     0.057363    0.059185    0.060442    0.060459    0.061464    0.062925
     0.063522    0.064270    0.064579    0.069868    0.070563    0.072973
     0.073561    0.090486    0.092014    0.092475    0.092923    0.096234
     0.096912    0.096988    0.097523    0.102603    0.102818    0.110618
     0.111004    0.112281    0.115637    0.121678    0.122063    0.136762
     0.139777    0.157086    0.157719    0.160000    0.160000    0.160000
     0.160000    0.160000    0.160000    0.163523    0.163890    0.218343
     0.219240    0.220626    0.221161    0.228661    0.229585    0.238183
     0.238300    0.239641    0.239817    0.245962    0.246063    0.248966
     0.249160    0.249323    0.249880    0.250000    0.250000    0.250000
     0.250000    0.250000    0.250000    0.250000    0.250000    0.252525
     0.253387    0.253482    0.255635    0.261238    0.261638    0.261728
     0.290523    0.292644    0.305732    0.307232    0.322467    0.322960
     0.326309    0.326398    0.326718    0.326826    0.326918    0.327170
     0.328519    0.328925    0.328951    0.329202    0.329524    0.330742
     0.330881    0.330934    0.331150    0.332652    0.334615    0.334709
     0.334939    0.334966    0.334977    0.334979    0.335169    0.335495
     0.343472    0.345231    0.345388    0.350297    0.384111    0.402801
     0.404505    0.411213    0.825869    0.832357    0.836209    0.839431

 Minimum Search - Taking Simple RFO Step
 Searching for Lamda that Minimizes Along All modes
 Value Taken    Lamda =  -0.02092238
 Calculated Step too Large.  Step scaled by  0.346599
 Step Taken.  Stepsize is  0.300000

                             Maximum     Tolerance    Cnvgd?
         Gradient           0.008265      0.000300      NO
         Displacement       0.108918      0.001200      NO
         Energy change     *********      0.000001      NO


 New Cartesian Coordinates Obtained by Inverse Iteration

 Displacement from previous Coordinates is:  4.910773
 Adding empirical dispersion correction 
 ----------------------------------------------------------------
 Doing -D3(op) with
 s6 =   1.00000
 s8 =   0.78311
 a1 =   0.30000
 a2 =   4.25000
 n  =  10.00000
 -D3 energy without 3body term =     -0.0672741981 hartrees
 ----------------------------------------------------------------
             Standard Nuclear Orientation (Angstroms)
    I     Atom           X                Y                Z
 ----------------------------------------------------------------
    1      O      -1.7386528803     1.0834078616     0.0466706337
    2      C      -2.8436754084     1.4779128787    -0.3843847994
    3      C      -4.0692459637     0.5749016384    -0.7649154254
    4      C      -3.9777590632    -0.8374279155    -0.0601348734
    5      C      -2.5403160871    -1.3471618736     0.3368222299
    6      O      -2.0160170281    -2.0623354114    -0.8089073694
    7      C      -0.5438265818    -2.1667900746    -0.8214777149
    8      C       0.1850708767    -0.9705566679    -1.5519202733
    9      O       0.9263106412    -0.1485540663    -0.5690203185
   10      C       2.3269356343    -0.1464208556    -0.8813114472
   11      C       3.0558098848     0.7213979544     0.2020847582
   12      C       4.2333648122    -0.0412720978     0.9361897604
   13      C       4.2926086791    -1.5884380086     0.6878020240
   14      O       5.3097747268    -2.3132050349     0.6855030356
   15      O      -3.1614258767     2.8530116359    -0.6089774093
   16      O       2.9530912513    -2.0826781977     0.5557362855
   17      O       2.8269689955    -0.6876027880    -1.8932051381
   18      C       2.9633015333    -3.5343719229     0.2666015482
   19      C       3.8798103055     1.8761253317    -0.5175525709
   20      C       4.4132125298     2.8876710928     0.5743991392
   21      C       5.6302303580     2.0858806491     1.1704719179
   22      C       5.5055887837     0.7267016531     0.3793187684
   23      O       5.0952852695     1.1646778238    -0.9748881317
   24      H       2.3029382979     1.1061663028     0.9116250383
   25      H       4.1509584170     0.1014942029     2.0305397517
   26      H       3.3591622780     2.3416362607    -1.3767456986
   27      H       4.7374046529     3.8300571477     0.1053381724
   28      H       3.6454220381     3.1144934930     1.3312573747
   29      H       6.5881562590     2.5780528388     0.9380517129
   30      H       5.5585516147     1.9465586215     2.2609256033
   31      H       6.4220219345     0.1064903956     0.3316132518
   32      O      -2.0288466192    -1.3794342998     1.4748604831
   33      C      -2.0019862773     3.6971054378    -0.2357873690
   34      C      -5.3452314149     1.1639342522    -0.0302079852
   35      C      -6.6282330384     0.3011697731    -0.3595019137
   36      C      -6.4320646995    -0.9321076851     0.6005168935
   37      C      -4.9858348842    -0.6357226846     1.1544051494
   38      O      -5.0256715904     0.8291850167     1.3798171629
   39      H      -4.1691603952     0.4983970575    -1.8629260276
   40      H      -4.3801351942    -1.6019695471    -0.7499814401
   41      H      -1.0937700777     3.4165542381    -0.8075753486
   42      H      -5.4602925165     2.2579448868    -0.1540263334
   43      H      -7.5452289541     0.8626059538    -0.1214912776
   44      H      -6.6605673902     0.0081877296    -1.4213941128
   45      H      -7.1670727449    -0.9204005033     1.4214144538
   46      H      -6.4968208160    -1.8995666892     0.0774958843
   47      H      -4.6987345884    -1.1646853194     2.0838419115
   48      H      -1.7739616420     3.6162336810     0.8466312844
   49      H      -2.2907936191     4.7363688669    -0.4777405390
   50      H       1.9032813382    -3.8463323037     0.2353264155
   51      H       3.4974177095    -4.1032063530     1.0545133932
   52      H       3.4417030572    -3.7469163948    -0.7113300125
   53      H       0.9226099850    -1.3521021634    -2.2929814515
   54      H      -0.5598134234    -0.3305296285    -2.0684380111
   55      H      -0.3240069315    -3.1089463150    -1.3650545416
   56      H      -0.1398395252    -2.2499911296     0.2126748584
 ----------------------------------------------------------------
 Molecular Point Group                 C1    NOp =  1
 Largest Abelian Subgroup              C1    NOp =  1
 Nuclear Repulsion Energy =  3128.2839710153 hartrees
 There are      113 alpha and      113 beta electrons
 Applying Cartesian multipole field
    Component          Value
    ---------          -----
     (2,0,0)        1.00000E-12
     (0,2,0)        2.00000E-11
     (0,0,2)       -3.00000E-11
 Nucleus-field energy     =     0.0000000455 hartrees
 Requested basis set is STO-3G
 There are 86 shells and 176 basis functions
 A cutoff of  1.0D-12 yielded   2143 shell pairs
 There are     10153 function pairs
 Smallest overlap matrix eigenvalue = 2.13E-01
 Guess MOs from SCF MO coefficient file
 Reading MOs from coefficient file
 Reading MOs from coefficient file
 A restricted hybrid HF-DFT SCF calculation will be
 performed using Pulay DIIS extrapolation
 Exchange:     0.2000 Hartree-Fock + 0.0800 Slater + 0.7200 B88
 Correlation:  0.1900 VWN1RPA + 0.8100 LYP
 Using SG-1 standard quadrature grid
 Dispersion:   Grimme D3
 SCF converges when DIIS error is below 1.0E-08
 Geometry optimization detected.  Setting ReadMinima to 0
 Setting SaveMinima to 0
 using 48 threads for integral computing
 -------------------------------------------------------
 OpenMP Integral computing Module                
 Release: version 1.0, May 2013, Q-Chem Inc. Pittsburgh 
 -------------------------------------------------------
 -------------------------------------------------------
 OpenMP BLAS3 based DFT computing Module                
 Release: version 1.0, May 2013, Q-Chem Inc. Pittsburgh 
 -------------------------------------------------------
 ---------------------------------------
  Cycle       Energy         DIIS Error
 ---------------------------------------
    1   -1510.1242495971      5.60E-03
    2   -1510.2725192997      6.51E-04
    3   -1510.2709938838      9.58E-04
    4   -1510.2746710716      3.27E-04
    5   -1510.2751144479      9.23E-05
    6   -1510.2751476420      3.69E-05
    7   -1510.2751519989      2.05E-05
    8   -1510.2751538134      3.57E-06
    9   -1510.2751538780      8.60E-07
   10   -1510.2751538807      5.73E-07
   11   -1510.2751538820      2.55E-07
   12   -1510.2751538823      4.47E-08
   13   -1510.2751538823      1.68E-08
   14   -1510.2751538823      1.91E-09 Convergence criterion met
 ---------------------------------------
 SCF time:  CPU 100.09 s  wall 2.09 s
 SCF   energy in the final basis set = -1510.27515388
 Total energy in the final basis set = -1510.27515388
 
 --------------------------------------------------------------
 
                    Orbital Energies (a.u.)
 --------------------------------------------------------------
 
 Alpha MOs
 -- Occupied --
-18.941 -18.938 -18.923 -18.914 -18.885 -18.885 -18.883 -18.877
-18.871 -18.862 -10.104 -10.101 -10.095 -10.092 -10.068 -10.065
-10.065 -10.059 -10.058 -10.057 -10.057 -10.056 -10.042 -10.037
-10.033 -10.032 -10.021 -10.019 -10.019 -10.018  -1.018  -1.014
 -1.002  -0.996  -0.969  -0.968  -0.942  -0.938  -0.930  -0.924
 -0.763  -0.761  -0.725  -0.722  -0.710  -0.703  -0.691  -0.665
 -0.663  -0.616  -0.596  -0.578  -0.545  -0.542  -0.537  -0.534
 -0.510  -0.508  -0.480  -0.476  -0.463  -0.456  -0.452  -0.449
 -0.432  -0.429  -0.422  -0.416  -0.412  -0.412  -0.407  -0.400
 -0.383  -0.378  -0.375  -0.370  -0.360  -0.356  -0.352  -0.349
 -0.346  -0.336  -0.332  -0.329  -0.328  -0.326  -0.321  -0.312
 -0.309  -0.306  -0.303  -0.301  -0.293  -0.289  -0.280  -0.270
 -0.270  -0.258  -0.251  -0.240  -0.236  -0.234  -0.232  -0.183
 -0.180  -0.172  -0.159  -0.157  -0.155  -0.148  -0.146  -0.144
 -0.140
 -- Virtual --
  0.095   0.097   0.104   0.115   0.229   0.236   0.242   0.255
  0.259   0.266   0.284   0.284   0.308   0.312   0.328   0.330
  0.338   0.339   0.341   0.347   0.353   0.360   0.371   0.373
  0.379   0.383   0.386   0.400   0.404   0.406   0.409   0.413
  0.418   0.420   0.421   0.423   0.424   0.426   0.427   0.431
  0.434   0.435   0.439   0.440   0.441   0.447   0.452   0.465
  0.468   0.479   0.487   0.490   0.494   0.509   0.509   0.536
  0.543   0.553   0.554   0.635   0.642   0.654   0.658
 --------------------------------------------------------------
 
          Ground-State Mulliken Net Atomic Charges

     Atom                 Charge (a.u.)
  ----------------------------------------
      1 O                    -0.204665
      2 C                     0.213308
      3 C                    -0.076643
      4 C                    -0.082119
      5 C                     0.216939
      6 O                    -0.185796
      7 C                    -0.050648
      8 C                    -0.057609
      9 O                    -0.167699
     10 C                     0.215194
     11 C                    -0.078256
     12 C                    -0.078928
     13 C                     0.214347
     14 O                    -0.210103
     15 O                    -0.169267
     16 O                    -0.169270
     17 O                    -0.222514
     18 C                    -0.127949
     19 C                     0.025563
     20 C                    -0.144843
     21 C                    -0.142868
     22 C                     0.024457
     23 O                    -0.186795
     24 H                     0.090041
     25 H                     0.085713
     26 H                     0.081794
     27 H                     0.077323
     28 H                     0.073818
     29 H                     0.078062
     30 H                     0.073366
     31 H                     0.090078
     32 O                    -0.205326
     33 C                    -0.127539
     34 C                     0.023127
     35 C                    -0.145595
     36 C                    -0.141859
     37 C                     0.022919
     38 O                    -0.192384
     39 H                     0.086474
     40 H                     0.083829
     41 H                     0.090275
     42 H                     0.089546
     43 H                     0.078228
     44 H                     0.073348
     45 H                     0.077875
     46 H                     0.073542
     47 H                     0.088572
     48 H                     0.092560
     49 H                     0.091308
     50 H                     0.089964
     51 H                     0.091670
     52 H                     0.092372
     53 H                     0.098559
     54 H                     0.084389
     55 H                     0.082702
     56 H                     0.097413
  ----------------------------------------
  Sum of atomic charges =    -0.000000

 -----------------------------------------------------------------
                    Cartesian Multipole Moments
 -----------------------------------------------------------------
    Charge (ESU x 10^10)
                -0.0000
    Dipole Moment (Debye)
         X      -2.4014      Y       1.1558      Z      -0.4326
       Tot       2.7000
    Quadrupole Moments (Debye-Ang)
        XX    -161.6926     XY       7.5057     YY    -147.4837
        XZ      15.7931     YZ       0.5960     ZZ    -163.6981
    Octopole Moments (Debye-Ang^2)
       XXX    -139.2518    XXY      17.8846    XYY       8.8185
       YYY     -13.6935    XXZ      20.5959    XYZ      13.5797
       YYZ      -2.8160    XZZ       2.7357    YZZ      -6.8363
       ZZZ       1.6457
    Hexadecapole Moments (Debye-Ang^3)
      XXXX  -15422.9787   XXXY     407.1433   XXYY   -3145.6389
      XYYY      -7.3883   YYYY   -3044.7193   XXXZ     176.1505
      XXYZ      17.5684   XYYZ     -48.0495   YYYZ       7.2241
      XXZZ   -2793.9092   XYZZ      30.0785   YYZZ    -692.8660
      XZZZ     -29.2250   YZZZ       7.8198   ZZZZ    -878.5324
 -----------------------------------------------------------------
 Calculating analytic gradient of the SCF energy
 Gradient of SCF Energy
            1           2           3           4           5           6
    1  -0.0028429  -0.0027787   0.0027403   0.0004257  -0.0013947   0.0021364
    2   0.0022426   0.0008707  -0.0017143   0.0067769   0.0041464  -0.0135676
    3   0.0001712   0.0042485  -0.0059445   0.0048389  -0.0039134   0.0091802
            7           8           9          10          11          12
    1  -0.0008335   0.0010874   0.0020784  -0.0001779  -0.0020474   0.0022086
    2   0.0074893  -0.0000074  -0.0007289   0.0000650  -0.0011019   0.0006737
    3  -0.0081989   0.0006970  -0.0006426  -0.0005609   0.0031270  -0.0022900
           13          14          15          16          17          18
    1  -0.0005743  -0.0000700   0.0000790   0.0001618   0.0007479  -0.0000499
    2   0.0002188  -0.0003411   0.0003688   0.0002455  -0.0004136  -0.0000565
    3  -0.0019438   0.0025017   0.0004668  -0.0004161  -0.0000349  -0.0000865
           19          20          21          22          23          24
    1   0.0001982  -0.0001650   0.0003185  -0.0004143  -0.0003398   0.0000585
    2   0.0004036  -0.0000687  -0.0002265  -0.0000214   0.0002693  -0.0001825
    3  -0.0002028  -0.0002702   0.0001086  -0.0001825  -0.0001118   0.0000587
           25          26          27          28          29          30
    1   0.0003912   0.0000447   0.0000423   0.0000176  -0.0000138   0.0000292
    2  -0.0000278  -0.0000935   0.0000089   0.0001680   0.0001007   0.0000564
    3   0.0000839   0.0000864  -0.0000443   0.0001030   0.0000163  -0.0000177
           31          32          33          34          35          36
    1  -0.0000155  -0.0028960  -0.0000170  -0.0004670  -0.0000276  -0.0002601
    2  -0.0000315  -0.0033892  -0.0001009  -0.0004674   0.0001939   0.0001318
    3  -0.0000372   0.0000178   0.0000412  -0.0002240   0.0000393   0.0002082
           37          38          39          40          41          42
    1  -0.0001144   0.0001415   0.0004015  -0.0004779   0.0001399   0.0000113
    2   0.0000899   0.0003267  -0.0004392  -0.0003169  -0.0002633  -0.0000087
    3  -0.0002881  -0.0002905   0.0001277   0.0004195   0.0000376  -0.0000206
           43          44          45          46          47          48
    1   0.0000670  -0.0000162   0.0000774   0.0002184   0.0001684   0.0000840
    2  -0.0001115   0.0000028   0.0000574  -0.0000630   0.0000079   0.0000090
    3   0.0000664  -0.0000050  -0.0000961  -0.0000160  -0.0000545  -0.0000369
           49          50          51          52          53          54
    1  -0.0000134  -0.0001168  -0.0000106   0.0000464   0.0002460   0.0010180
    2   0.0000118   0.0001052   0.0000030  -0.0000455  -0.0000496  -0.0007961
    3   0.0000684  -0.0001125  -0.0000076   0.0000455   0.0001705  -0.0004420
           55          56
    1   0.0000937   0.0006555
    2   0.0003149  -0.0007244
    3  -0.0003174  -0.0001211
 Max gradient component =       1.357E-02
 RMS gradient           =       1.979E-03
 Gradient time:  CPU 29.11 s  wall 0.61 s
 Geometry Optimization Parameters
   NAtoms,    NIC,     NZ,  NCons,   NDum,   NFix, NCnnct, MaxDiis
       56     458       0       0       0       0       0       0

 Cartesian Hessian Update
 Hessian Updated using BFGS Update


** GEOMETRY OPTIMIZATION IN DELOCALIZED INTERNAL COORDINATES **
   Searching for a Minimum

   Optimization Cycle:   2

                       Coordinates (Angstroms)
     ATOM                X               Y               Z
      1  O        -1.7386528803    1.0834078616    0.0466706337
      2  C        -2.8436754084    1.4779128787   -0.3843847994
      3  C        -4.0692459637    0.5749016384   -0.7649154254
      4  C        -3.9777590632   -0.8374279155   -0.0601348734
      5  C        -2.5403160871   -1.3471618736    0.3368222299
      6  O        -2.0160170281   -2.0623354114   -0.8089073694
      7  C        -0.5438265818   -2.1667900746   -0.8214777149
      8  C         0.1850708767   -0.9705566679   -1.5519202733
      9  O         0.9263106412   -0.1485540663   -0.5690203185
     10  C         2.3269356343   -0.1464208556   -0.8813114472
     11  C         3.0558098848    0.7213979544    0.2020847582
     12  C         4.2333648122   -0.0412720978    0.9361897604
     13  C         4.2926086791   -1.5884380086    0.6878020240
     14  O         5.3097747268   -2.3132050349    0.6855030356
     15  O        -3.1614258767    2.8530116359   -0.6089774093
     16  O         2.9530912513   -2.0826781977    0.5557362855
     17  O         2.8269689955   -0.6876027880   -1.8932051381
     18  C         2.9633015333   -3.5343719229    0.2666015482
     19  C         3.8798103055    1.8761253317   -0.5175525709
     20  C         4.4132125298    2.8876710928    0.5743991392
     21  C         5.6302303580    2.0858806491    1.1704719179
     22  C         5.5055887837    0.7267016531    0.3793187684
     23  O         5.0952852695    1.1646778238   -0.9748881317
     24  H         2.3029382979    1.1061663028    0.9116250383
     25  H         4.1509584170    0.1014942029    2.0305397517
     26  H         3.3591622780    2.3416362607   -1.3767456986
     27  H         4.7374046529    3.8300571477    0.1053381724
     28  H         3.6454220381    3.1144934930    1.3312573747
     29  H         6.5881562590    2.5780528388    0.9380517129
     30  H         5.5585516147    1.9465586215    2.2609256033
     31  H         6.4220219345    0.1064903956    0.3316132518
     32  O        -2.0288466192   -1.3794342998    1.4748604831
     33  C        -2.0019862773    3.6971054378   -0.2357873690
     34  C        -5.3452314149    1.1639342522   -0.0302079852
     35  C        -6.6282330384    0.3011697731   -0.3595019137
     36  C        -6.4320646995   -0.9321076851    0.6005168935
     37  C        -4.9858348842   -0.6357226846    1.1544051494
     38  O        -5.0256715904    0.8291850167    1.3798171629
     39  H        -4.1691603952    0.4983970575   -1.8629260276
     40  H        -4.3801351942   -1.6019695471   -0.7499814401
     41  H        -1.0937700777    3.4165542381   -0.8075753486
     42  H        -5.4602925165    2.2579448868   -0.1540263334
     43  H        -7.5452289541    0.8626059538   -0.1214912776
     44  H        -6.6605673902    0.0081877296   -1.4213941128
     45  H        -7.1670727449   -0.9204005033    1.4214144538
     46  H        -6.4968208160   -1.8995666892    0.0774958843
     47  H        -4.6987345884   -1.1646853194    2.0838419115
     48  H        -1.7739616420    3.6162336810    0.8466312844
     49  H        -2.2907936191    4.7363688669   -0.4777405390
     50  H         1.9032813382   -3.8463323037    0.2353264155
     51  H         3.4974177095   -4.1032063530    1.0545133932
     52  H         3.4417030572   -3.7469163948   -0.7113300125
     53  H         0.9226099850   -1.3521021634   -2.2929814515
     54  H        -0.5598134234   -0.3305296285   -2.0684380111
     55  H        -0.3240069315   -3.1089463150   -1.3650545416
     56  H        -0.1398395252   -2.2499911296    0.2126748584
   Point Group: c1    Number of degrees of freedom:   162


   Energy is  -1510.275153882

 Hessian Updated using BFGS Update

149 Hessian modes will be used to form the next step
  Hessian Eigenvalues:
     0.001857    0.002124    0.002711    0.002755    0.004251    0.004374
     0.004438    0.004764    0.004805    0.005027    0.005052    0.005886
     0.006650    0.006806    0.011007    0.011175    0.011798    0.021304
     0.021688    0.025103    0.025995    0.029100    0.030834    0.032731
     0.035342    0.036949    0.039805    0.040259    0.042068    0.042090
     0.044224    0.045441    0.047248    0.047573    0.048487    0.050965
     0.051208    0.052816    0.053394    0.054626    0.054706    0.055656
     0.055728    0.056135    0.056896    0.059154    0.059596    0.060452
     0.061267    0.062905    0.063519    0.064270    0.064577    0.069759
     0.069947    0.072501    0.072979    0.074878    0.091382    0.092014
     0.092502    0.092929    0.096229    0.096919    0.096988    0.098433
     0.102604    0.102819    0.110609    0.112258    0.115410    0.115901
     0.121683    0.123777    0.136731    0.139658    0.157531    0.157760
     0.159995    0.160005    0.163472    0.167055    0.218296    0.219014
     0.220435    0.226822    0.228674    0.230450    0.238177    0.238303
     0.239640    0.239823    0.245964    0.246061    0.248154    0.249159
     0.249222    0.249355    0.249883    0.252518    0.253363    0.253481
     0.255485    0.261148    0.261611    0.261727    0.290494    0.292633
     0.305730    0.307200    0.322458    0.322945    0.326165    0.326310
     0.326716    0.326826    0.326917    0.327170    0.328518    0.328924
     0.328948    0.329202    0.329523    0.330732    0.330881    0.330928
     0.331147    0.332647    0.334611    0.334703    0.334928    0.334959
     0.334969    0.334979    0.335168    0.335494    0.343177    0.343501
     0.345231    0.345388    0.368168    0.402764    0.404486    0.411206
     0.439366    0.825886    0.834462    0.836219    0.839782

 Minimum Search - Taking Simple RFO Step
 Searching for Lamda that Minimizes Along All modes
 Value Taken    Lamda =  -0.01300010
 Calculated Step too Large.  Step scaled by  0.384556
 Step Taken.  Stepsize is  0.300000

                             Maximum     Tolerance    Cnvgd?
         Gradient           0.021336      0.000300      NO
         Displacement       0.102996      0.001200      NO
         Energy change     -0.003054      0.000001      NO


 New Cartesian Coordinates Obtained by Inverse Iteration

 Displacement from previous Coordinates is:  3.379271
 Adding empirical dispersion correction 
 ----------------------------------------------------------------
 Doing -D3(op) with
 s6 =   1.00000
 s8 =   0.78311
 a1 =   0.30000
 a2 =   4.25000
 n  =  10.00000
 -D3 energy without 3body term =     -0.0673697706 hartrees
 ----------------------------------------------------------------
             Standard Nuclear Orientation (Angstroms)
    I     Atom           X                Y                Z
 ----------------------------------------------------------------
    1      O      -1.7926013177     1.1595772367    -0.2953471249
    2      C      -2.9549306453     1.5064437130    -0.5998364979
    3      C      -4.1896871371     0.5549346134    -0.7893115551
    4      C      -3.9525583867    -0.8292047798    -0.0656471434
    5      C      -2.4554736121    -1.2294874741     0.2086883548
    6      O      -1.9734653004    -1.9015553606    -0.9777883296
    7      C      -0.5078046872    -2.0576859488    -0.9742917510
    8      C       0.2516253365    -0.8532151872    -1.6570984751
    9      O       0.9799979984    -0.0705835370    -0.6335501759
   10      C       2.3900032689    -0.0905985730    -0.8991521704
   11      C       3.0969976486     0.7287323918     0.2346911235
   12      C       4.2040845461    -0.0924996757     1.0139630537
   13      C       4.2234529715    -1.6346301687     0.7297070546
   14      O       5.2198609813    -2.3875828884     0.7198926901
   15      O      -3.3445222289     2.8612372882    -0.8348258856
   16      O       2.8744540803    -2.0835606136     0.5425610253
   17      O       2.9141228768    -0.6256828356    -1.9018970725
   18      C       2.8507990219    -3.5248532918     0.2062483142
   19      C       3.9963291926     1.8658583026    -0.4171070048
   20      C       4.5066471885     2.8356637482     0.7228938971
   21      C       5.6609769374     1.9785353694     1.3638741676
   22      C       5.5299031575     0.6402011272     0.5385650523
   23      O       5.2078362502     1.1188668201    -0.8256704586
   24      H       2.3232386948     1.1257892701     0.9143601740
   25      H       4.0731838908     0.0303228735     2.1059779178
   26      H       3.5379018882     2.3667474743    -1.2918156067
   27      H       4.8879478079     3.7748402279     0.2920238806
   28      H       3.7081485976     3.0748664877     1.4432839078
   29      H       6.6467275462     2.4398255137     1.1922040428
   30      H       5.5269812167     1.8204420430     2.4458321133
   31      H       6.4250536489    -0.0118994447     0.5249019963
   32      O      -1.8450797776    -1.2044685963     1.2973137661
   33      C      -2.1787005927     3.7557671010    -0.6434327779
   34      C      -5.3982453573     1.1171375176     0.0695760889
   35      C      -6.6726122771     0.1970973896    -0.1011432637
   36      C      -6.3222003442    -1.0063512304     0.8529832780
   37      C      -4.8391375321    -0.6390612798     1.2427523084
   38      O      -4.9161433361     0.8283812020     1.4427713896
   39      H      -4.4126000378     0.4362099109    -1.8653403610
   40      H      -4.3770311152    -1.6351340080    -0.6921647166
   41      H      -1.3396851575     3.4800737124    -1.3144748739
   42      H      -5.5710771795     2.2022742795    -0.0647090581
   43      H      -7.5811696926     0.7273696803     0.2248486222
   44      H      -6.8074367781    -0.1210150782    -1.1476610786
   45      H      -6.9647500462    -1.0056710891     1.7482668323
   46      H      -6.4021505959    -1.9871197165     0.3575988236
   47      H      -4.4328634362    -1.1310792481     2.1477507107
   48      H      -1.8146301251     3.7276495196     0.4038608055
   49      H      -2.5330272970     4.7743462871    -0.8863340262
   50      H       1.7836201411    -3.8045746662     0.1370040168
   51      H       3.3467335264    -4.1340519446     0.9889395023
   52      H       3.3492991356    -3.7200290043    -0.7652578838
   53      H       0.9962253924    -1.2235395902    -2.3968663858
   54      H      -0.4757126169    -0.1861752640    -2.1653432979
   55      H      -0.3068329252    -2.9856803427    -1.5487388169
   56      H      -0.1220167750    -2.1866015183     0.0620422441
 ----------------------------------------------------------------
 Molecular Point Group                 C1    NOp =  1
 Largest Abelian Subgroup              C1    NOp =  1
 Nuclear Repulsion Energy =  3128.0931069936 hartrees
 There are      113 alpha and      113 beta electrons
 Applying Cartesian multipole field
    Component          Value
    ---------          -----
     (2,0,0)        1.00000E-12
     (0,2,0)        2.00000E-11
     (0,0,2)       -3.00000E-11
 Nucleus-field energy     =     0.0000000420 hartrees
 Requested basis set is STO-3G
 There are 86 shells and 176 basis functions
 A cutoff of  1.0D-12 yielded   2139 shell pairs
 There are     10125 function pairs
 Smallest overlap matrix eigenvalue = 2.13E-01
 Guess MOs from SCF MO coefficient file
 Reading MOs from coefficient file
 Reading MOs from coefficient file
 A restricted hybrid HF-DFT SCF calculation will be
 performed using Pulay DIIS extrapolation
 Exchange:     0.2000 Hartree-Fock + 0.0800 Slater + 0.7200 B88
 Correlation:  0.1900 VWN1RPA + 0.8100 LYP
 Using SG-1 standard quadrature grid
 Dispersion:   Grimme D3
 SCF converges when DIIS error is below 1.0E-08
 Geometry optimization detected.  Setting ReadMinima to 0
 Setting SaveMinima to 0
 using 48 threads for integral computing
 -------------------------------------------------------
 OpenMP Integral computing Module                
 Release: version 1.0, May 2013, Q-Chem Inc. Pittsburgh 
 -------------------------------------------------------
 -------------------------------------------------------
 OpenMP BLAS3 based DFT computing Module                
 Release: version 1.0, May 2013, Q-Chem Inc. Pittsburgh 
 -------------------------------------------------------
 ---------------------------------------
  Cycle       Energy         DIIS Error
 ---------------------------------------
    1   -1510.1724672185      4.77E-03
    2   -1510.2778363992      5.13E-04
    3   -1510.2771409728      7.30E-04
    4   -1510.2793579074      2.56E-04
    5   -1510.2796095836      9.24E-05
    6   -1510.2796449092      2.50E-05
    7   -1510.2796468254      1.59E-05
    8   -1510.2796478930      3.32E-06
    9   -1510.2796479469      6.78E-07
   10   -1510.2796479491      3.92E-07
   11   -1510.2796479496      2.10E-07
   12   -1510.2796479498      4.49E-08
   13   -1510.2796479498      1.52E-08
   14   -1510.2796479498      2.34E-09 Convergence criterion met
 ---------------------------------------
 SCF time:  CPU 96.59 s  wall 2.02 s
 SCF   energy in the final basis set = -1510.27964795
 Total energy in the final basis set = -1510.27964795
 
 --------------------------------------------------------------
 
                    Orbital Energies (a.u.)
 --------------------------------------------------------------
 
 Alpha MOs
 -- Occupied --
-18.943 -18.937 -18.922 -18.916 -18.885 -18.885 -18.884 -18.877
-18.867 -18.861 -10.105 -10.100 -10.093 -10.091 -10.069 -10.065
-10.063 -10.060 -10.057 -10.057 -10.056 -10.055 -10.042 -10.036
-10.032 -10.032 -10.021 -10.019 -10.018 -10.017  -1.019  -1.013
 -1.001  -0.996  -0.969  -0.967  -0.943  -0.937  -0.929  -0.923
 -0.763  -0.760  -0.725  -0.721  -0.709  -0.703  -0.689  -0.666
 -0.662  -0.615  -0.596  -0.577  -0.545  -0.542  -0.537  -0.533
 -0.511  -0.507  -0.480  -0.475  -0.462  -0.456  -0.452  -0.448
 -0.432  -0.428  -0.421  -0.416  -0.413  -0.411  -0.406  -0.400
 -0.382  -0.378  -0.375  -0.368  -0.358  -0.355  -0.353  -0.348
 -0.345  -0.335  -0.332  -0.330  -0.327  -0.326  -0.320  -0.312
 -0.308  -0.307  -0.302  -0.300  -0.292  -0.287  -0.278  -0.271
 -0.269  -0.258  -0.250  -0.241  -0.235  -0.234  -0.231  -0.184
 -0.179  -0.172  -0.159  -0.156  -0.155  -0.146  -0.145  -0.144
 -0.139
 -- Virtual --
  0.094   0.097   0.108   0.116   0.231   0.237   0.242   0.256
  0.260   0.268   0.284   0.285   0.308   0.313   0.329   0.331
  0.337   0.339   0.341   0.348   0.352   0.362   0.372   0.373
  0.380   0.384   0.387   0.401   0.406   0.407   0.410   0.413
  0.417   0.420   0.421   0.424   0.424   0.426   0.426   0.432
  0.434   0.436   0.439   0.440   0.441   0.448   0.454   0.465
  0.469   0.482   0.487   0.491   0.495   0.509   0.510   0.536
  0.544   0.554   0.554   0.634   0.643   0.656   0.660
 --------------------------------------------------------------
 
          Ground-State Mulliken Net Atomic Charges

     Atom                 Charge (a.u.)
  ----------------------------------------
      1 O                    -0.204303
      2 C                     0.214274
      3 C                    -0.076327
      4 C                    -0.082235
      5 C                     0.216124
      6 O                    -0.183358
      7 C                    -0.051535
      8 C                    -0.056625
      9 O                    -0.167148
     10 C                     0.214545
     11 C                    -0.078193
     12 C                    -0.078897
     13 C                     0.214128
     14 O                    -0.210149
     15 O                    -0.168443
     16 O                    -0.169283
     17 O                    -0.222738
     18 C                    -0.128029
     19 C                     0.025570
     20 C                    -0.144850
     21 C                    -0.142932
     22 C                     0.024359
     23 O                    -0.186899
     24 H                     0.090081
     25 H                     0.085582
     26 H                     0.082014
     27 H                     0.077174
     28 H                     0.073864
     29 H                     0.077879
     30 H                     0.073188
     31 H                     0.089928
     32 O                    -0.209947
     33 C                    -0.127614
     34 C                     0.023196
     35 C                    -0.145380
     36 C                    -0.142005
     37 C                     0.023123
     38 O                    -0.192117
     39 H                     0.086538
     40 H                     0.083624
     41 H                     0.090416
     42 H                     0.089310
     43 H                     0.078228
     44 H                     0.073307
     45 H                     0.077938
     46 H                     0.073529
     47 H                     0.088736
     48 H                     0.092831
     49 H                     0.091717
     50 H                     0.089701
     51 H                     0.091362
     52 H                     0.092249
     53 H                     0.097511
     54 H                     0.086245
     55 H                     0.081746
     56 H                     0.098989
  ----------------------------------------
  Sum of atomic charges =    -0.000000

 -----------------------------------------------------------------
                    Cartesian Multipole Moments
 -----------------------------------------------------------------
    Charge (ESU x 10^10)
                -0.0000
    Dipole Moment (Debye)
         X      -2.8053      Y       1.0244      Z      -0.3360
       Tot       3.0053
    Quadrupole Moments (Debye-Ang)
        XX    -161.3209     XY       7.9198     YY    -147.0606
        XZ      15.0779     YZ      -0.2873     ZZ    -162.6014
    Octopole Moments (Debye-Ang^2)
       XXX    -152.7217    XXY      16.9017    XYY       2.4859
       YYY     -15.1289    XXZ      28.0049    XYZ      15.8406
       YYZ      -5.0425    XZZ       2.3341    YZZ      -8.3989
       ZZZ       6.2980
    Hexadecapole Moments (Debye-Ang^3)
      XXXX  -15461.4612   XXXY     433.7513   XXYY   -3146.1528
      XYYY      33.2120   YYYY   -2974.6553   XXXZ     117.0684
      XXYZ      29.3599   XYYZ     -64.2352   YYYZ      18.0270
      XXZZ   -2808.1299   XYZZ      45.9401   YYZZ    -695.1368
      XZZZ     -90.1447   YZZZ      24.9671   ZZZZ    -976.7977
 -----------------------------------------------------------------
 Calculating analytic gradient of the SCF energy
 Gradient of SCF Energy
            1           2           3           4           5           6
    1  -0.0021865  -0.0001088   0.0011596   0.0010629  -0.0012328   0.0031352
    2   0.0016251  -0.0003283  -0.0019361   0.0044775   0.0041101  -0.0110525
    3   0.0006010   0.0036443  -0.0038300   0.0035289  -0.0032573   0.0042545
            7           8           9          10          11          12
    1  -0.0027386  -0.0000499   0.0012818   0.0005878  -0.0009805   0.0012443
    2   0.0068349   0.0000972  -0.0014540   0.0014626  -0.0010588   0.0002454
    3  -0.0030038   0.0002904  -0.0001865  -0.0012368   0.0020675  -0.0016432
           13          14          15          16          17          18
    1  -0.0007886  -0.0000072  -0.0002268   0.0003116   0.0005609  -0.0002649
    2   0.0001009  -0.0001887   0.0012096  -0.0001254  -0.0006164   0.0000357
    3  -0.0000022   0.0015999   0.0002807  -0.0005575   0.0000927  -0.0002610
           19          20          21          22          23          24
    1   0.0000147  -0.0000838   0.0001941  -0.0008588  -0.0003676   0.0000319
    2   0.0005821   0.0000425  -0.0000019   0.0000832   0.0001790  -0.0003890
    3  -0.0002999  -0.0002001   0.0002322  -0.0004892  -0.0000879   0.0002582
           25          26          27          28          29          30
    1   0.0008317   0.0000544   0.0000346   0.0000780   0.0000251   0.0000829
    2  -0.0001961  -0.0000160  -0.0001133   0.0000256   0.0001421   0.0000723
    3   0.0002137  -0.0000063  -0.0000330   0.0000854  -0.0000186  -0.0000747
           31          32          33          34          35          36
    1  -0.0000231  -0.0016483  -0.0000327  -0.0014615   0.0000402  -0.0000999
    2  -0.0000014  -0.0022079  -0.0001217   0.0000524   0.0002911  -0.0005763
    3  -0.0000755  -0.0001956   0.0001354   0.0001228   0.0002954   0.0001426
           37          38          39          40          41          42
    1  -0.0001430   0.0000388   0.0010186  -0.0007653   0.0000864  -0.0000363
    2   0.0004522   0.0004326  -0.0004079   0.0000526  -0.0002278  -0.0000921
    3  -0.0006010  -0.0003505   0.0000337  -0.0001911   0.0000497  -0.0001117
           43          44          45          46          47          48
    1  -0.0000578   0.0001100  -0.0001531   0.0000163   0.0001520   0.0000271
    2   0.0000758  -0.0000977   0.0000116  -0.0000564   0.0002296   0.0000019
    3  -0.0000590  -0.0000297   0.0000207   0.0001487   0.0000433  -0.0000994
           49          50          51          52          53          54
    1  -0.0000357  -0.0002103   0.0000061   0.0000346  -0.0000434   0.0008603
    2   0.0000067   0.0000622   0.0000624  -0.0000554  -0.0000830  -0.0003682
    3   0.0000330  -0.0000948   0.0000727   0.0000632  -0.0002678  -0.0007424
           55          56
    1   0.0004531   0.0010700
    2   0.0002589  -0.0015435
    3  -0.0002872  -0.0000168
 Max gradient component =       1.105E-02
 RMS gradient           =       1.470E-03
 Gradient time:  CPU 29.85 s  wall 0.63 s
 Geometry Optimization Parameters
   NAtoms,    NIC,     NZ,  NCons,   NDum,   NFix, NCnnct, MaxDiis
       56     458       0       0       0       0       0       0

 Cartesian Hessian Update
 Hessian Updated using BFGS Update


** GEOMETRY OPTIMIZATION IN DELOCALIZED INTERNAL COORDINATES **
   Searching for a Minimum

   Optimization Cycle:   3

                       Coordinates (Angstroms)
     ATOM                X               Y               Z
      1  O        -1.7926013177    1.1595772367   -0.2953471249
      2  C        -2.9549306453    1.5064437130   -0.5998364979
      3  C        -4.1896871371    0.5549346134   -0.7893115551
      4  C        -3.9525583867   -0.8292047798   -0.0656471434
      5  C        -2.4554736121   -1.2294874741    0.2086883548
      6  O        -1.9734653004   -1.9015553606   -0.9777883296
      7  C        -0.5078046872   -2.0576859488   -0.9742917510
      8  C         0.2516253365   -0.8532151872   -1.6570984751
      9  O         0.9799979984   -0.0705835370   -0.6335501759
     10  C         2.3900032689   -0.0905985730   -0.8991521704
     11  C         3.0969976486    0.7287323918    0.2346911235
     12  C         4.2040845461   -0.0924996757    1.0139630537
     13  C         4.2234529715   -1.6346301687    0.7297070546
     14  O         5.2198609813   -2.3875828884    0.7198926901
     15  O        -3.3445222289    2.8612372882   -0.8348258856
     16  O         2.8744540803   -2.0835606136    0.5425610253
     17  O         2.9141228768   -0.6256828356   -1.9018970725
     18  C         2.8507990219   -3.5248532918    0.2062483142
     19  C         3.9963291926    1.8658583026   -0.4171070048
     20  C         4.5066471885    2.8356637482    0.7228938971
     21  C         5.6609769374    1.9785353694    1.3638741676
     22  C         5.5299031575    0.6402011272    0.5385650523
     23  O         5.2078362502    1.1188668201   -0.8256704586
     24  H         2.3232386948    1.1257892701    0.9143601740
     25  H         4.0731838908    0.0303228735    2.1059779178
     26  H         3.5379018882    2.3667474743   -1.2918156067
     27  H         4.8879478079    3.7748402279    0.2920238806
     28  H         3.7081485976    3.0748664877    1.4432839078
     29  H         6.6467275462    2.4398255137    1.1922040428
     30  H         5.5269812167    1.8204420430    2.4458321133
     31  H         6.4250536489   -0.0118994447    0.5249019963
     32  O        -1.8450797776   -1.2044685963    1.2973137661
     33  C        -2.1787005927    3.7557671010   -0.6434327779
     34  C        -5.3982453573    1.1171375176    0.0695760889
     35  C        -6.6726122771    0.1970973896   -0.1011432637
     36  C        -6.3222003442   -1.0063512304    0.8529832780
     37  C        -4.8391375321   -0.6390612798    1.2427523084
     38  O        -4.9161433361    0.8283812020    1.4427713896
     39  H        -4.4126000378    0.4362099109   -1.8653403610
     40  H        -4.3770311152   -1.6351340080   -0.6921647166
     41  H        -1.3396851575    3.4800737124   -1.3144748739
     42  H        -5.5710771795    2.2022742795   -0.0647090581
     43  H        -7.5811696926    0.7273696803    0.2248486222
     44  H        -6.8074367781   -0.1210150782   -1.1476610786
     45  H        -6.9647500462   -1.0056710891    1.7482668323
     46  H        -6.4021505959   -1.9871197165    0.3575988236
     47  H        -4.4328634362   -1.1310792481    2.1477507107
     48  H        -1.8146301251    3.7276495196    0.4038608055
     49  H        -2.5330272970    4.7743462871   -0.8863340262
     50  H         1.7836201411   -3.8045746662    0.1370040168
     51  H         3.3467335264   -4.1340519446    0.9889395023
     52  H         3.3492991356   -3.7200290043   -0.7652578838
     53  H         0.9962253924   -1.2235395902   -2.3968663858
     54  H        -0.4757126169   -0.1861752640   -2.1653432979
     55  H        -0.3068329252   -2.9856803427   -1.5487388169
     56  H        -0.1220167750   -2.1866015183    0.0620422441
   Point Group: c1    Number of degrees of freedom:   162


   Energy is  -1510.279647950

 Hessian Updated using BFGS Update

152 Hessian modes will be used to form the next step
  Hessian Eigenvalues:
     0.001809    0.002073    0.002183    0.002631    0.002842    0.004341
     0.004378    0.004516    0.004804    0.005023    0.005033    0.005441
     0.006560    0.006594    0.007809    0.011172    0.011766    0.011863
     0.021403    0.021691    0.025510    0.025995    0.027929    0.030900
     0.032137    0.035525    0.036974    0.039881    0.040169    0.042082
     0.042121    0.044720    0.046149    0.047513    0.048311    0.048812
     0.051043    0.051224    0.052713    0.053444    0.054634    0.054703
     0.055576    0.055710    0.056295    0.056898    0.059199    0.059641
     0.060603    0.061149    0.062905    0.063523    0.064270    0.064579
     0.069842    0.070204    0.072709    0.073052    0.076735    0.091402
     0.092214    0.092567    0.093200    0.096307    0.096920    0.096988
     0.098398    0.102604    0.102822    0.111346    0.112230    0.115669
     0.115845    0.121926    0.124933    0.136957    0.141182    0.157608
     0.158389    0.159993    0.160003    0.160040    0.164251    0.166917
     0.218671    0.219323    0.220149    0.227439    0.228679    0.231335
     0.238136    0.238391    0.239619    0.239854    0.244910    0.246067
     0.247375    0.249151    0.249255    0.249358    0.249885    0.251174
     0.252511    0.253426    0.253520    0.255452    0.261499    0.261711
     0.261736    0.290527    0.292604    0.305373    0.307267    0.318435
     0.322954    0.323124    0.326312    0.326716    0.326821    0.326899
     0.327153    0.327336    0.328519    0.328927    0.328984    0.329218
     0.329529    0.330845    0.330881    0.330971    0.331170    0.332670
     0.334616    0.334776    0.334943    0.334970    0.334979    0.335031
     0.335182    0.335528    0.343487    0.345236    0.345391    0.373552
     0.393138    0.403064    0.404632    0.414672    0.825840    0.832579
     0.836211    0.839377

 Minimum Search - Taking Simple RFO Step
 Searching for Lamda that Minimizes Along All modes
 Value Taken    Lamda =  -0.01009448
 Calculated Step too Large.  Step scaled by  0.392333
 Step Taken.  Stepsize is  0.300000

                             Maximum     Tolerance    Cnvgd?
         Gradient           0.013858      0.000300      NO
         Displacement       0.137962      0.001200      NO
         Energy change     -0.004494      0.000001      NO


 New Cartesian Coordinates Obtained by Inverse Iteration

 Displacement from previous Coordinates is:  4.240600
 Adding empirical dispersion correction 
 ----------------------------------------------------------------
 Doing -D3(op) with
 s6 =   1.00000
 s8 =   0.78311
 a1 =   0.30000
 a2 =   4.25000
 n  =  10.00000
 -D3 energy without 3body term =     -0.0672625272 hartrees
 ----------------------------------------------------------------
             Standard Nuclear Orientation (Angstroms)
    I     Atom           X                Y                Z
 ----------------------------------------------------------------
    1      O      -1.8996931113     1.2497487929    -0.7143147503
    2      C      -3.1077842297     1.5342568418    -0.8738504544
    3      C      -4.3138996998     0.5307997574    -0.8112830695
    4      C      -3.9145835515    -0.7868902455    -0.0350283236
    5      C      -2.3752876287    -1.0694339984     0.1168819734
    6      O      -1.9472209124    -1.7388178774    -1.0876570087
    7      C      -0.4881124358    -1.9532251989    -1.0806071714
    8      C       0.3089040613    -0.7499587665    -1.7193807980
    9      O       1.0253222829    -0.0104052951    -0.6561945242
   10      C       2.4416926528    -0.0525818300    -0.8791335995
   11      C       3.1252995958     0.6936621880     0.3173670132
   12      C       4.1924457723    -0.1889019100     1.0857315726
   13      C       4.2186893551    -1.7065141564     0.6910104685
   14      O       5.2151565474    -2.4582350321     0.6489102227
   15      O      -3.5853421738     2.8482897343    -1.1651288343
   16      O       2.8746420908    -2.1408287739     0.4445248693
   17      O       2.9853412198    -0.5436698814    -1.8936960713
   18      C       2.8649393348    -3.5547839695     0.0065584213
   19      C       4.0606573026     1.8544090951    -0.2314844984
   20      C       4.5296724188     2.7500365586     0.9847795733
   21      C       5.6471459954     1.8436719979     1.6228254198
   22      C       5.5428917089     0.5590960085     0.7130925786
   23      O       5.2830473623     1.1207828722    -0.6325531578
   24      H       2.3327032154     1.0617043142     0.9915345038
   25      H       4.0179308681    -0.1372921259     2.1772210978
   26      H       3.6424856346     2.4109812182    -1.0925791269
   27      H       4.9368529637     3.7091700868     0.6276541002
   28      H       3.7021293294     2.9549571374     1.6827372191
   29      H       6.6432725616     2.3037167917     1.5231619654
   30      H       5.4635727167     1.6217303834     2.6862242882
   31      H       6.4328872605    -0.0999873705     0.6976433314
   32      O      -1.6819017771    -0.9723370394     1.1508402862
   33      C      -2.4467242148     3.7952563694    -1.2227096340
   34      C      -5.4313343120     1.1024208751     0.1551306920
   35      C      -6.6735934243     0.1247002222     0.1894565110
   36      C      -6.1588111234    -1.0053131007     1.1578854220
   37      C      -4.6604636056    -0.5560043681     1.3520387650
   38      O      -4.7815851587     0.9169939149     1.4761864042
   39      H      -4.6687564155     0.3237980568    -1.8376102033
   40      H      -4.3504134049    -1.6561002940    -0.5601532242
   41      H      -1.7004088506     3.4894402507    -1.9839817024
   42      H      -5.6694847733     2.1692616289    -0.0203197002
   43      H      -7.5608958219     0.6369682290     0.5931803229
   44      H      -6.9162677181    -0.2597646247    -0.8144400648
   45      H      -6.6926905918    -0.9775914892     2.1212948277
   46      H      -6.2490847479    -2.0158944345     0.7284405527
   47      H      -4.1306328022    -0.9731613064     2.2304035362
   48      H      -1.9359575979     3.8739013441    -0.2412070523
   49      H      -2.8791250870     4.7752484355    -1.4960123070
   50      H       1.8010525211    -3.8337475492    -0.1019505996
   51      H       3.3500759131    -4.2165244208     0.7524393230
   52      H       3.3816256195    -3.6779344943    -0.9673026620
   53      H       1.0602584394    -1.1146688324    -2.4548776860
   54      H      -0.3980267156    -0.0538844191    -2.2177609137
   55      H      -0.3109371085    -2.8751568536    -1.6722532374
   56      H      -0.1236691176    -2.1097947020    -0.0411135237
 ----------------------------------------------------------------
 Molecular Point Group                 C1    NOp =  1
 Largest Abelian Subgroup              C1    NOp =  1
 Nuclear Repulsion Energy =  3123.1278875865 hartrees
 There are      113 alpha and      113 beta electrons
 Applying Cartesian multipole field
    Component          Value
    ---------          -----
     (2,0,0)        1.00000E-12
     (0,2,0)        2.00000E-11
     (0,0,2)       -3.00000E-11
 Nucleus-field energy     =     0.0000000368 hartrees
 Requested basis set is STO-3G
 There are 86 shells and 176 basis functions
 A cutoff of  1.0D-12 yielded   2115 shell pairs
 There are     10017 function pairs
 Smallest overlap matrix eigenvalue = 2.13E-01
 Guess MOs from SCF MO coefficient file
 Reading MOs from coefficient file
 Reading MOs from coefficient file
 A restricted hybrid HF-DFT SCF calculation will be
 performed using Pulay DIIS extrapolation
[...]
      7  C        -0.4683607130   -1.8668263396   -2.7617839986
      8  C         0.5358002461   -0.7568113915   -3.2503871947
      9  O         0.8585943029    0.2089954986   -2.1785228480
     10  C         1.6913020286   -0.3901963563   -1.1638687016
     11  C         1.8227820508    0.6197126095    0.0131612552
     12  C         2.4813985631   -0.0100934200    1.3059277204
     13  C         2.8745257234   -1.5249193911    1.1636297552
     14  O         4.0193344171   -2.0065526434    1.0290250173
     15  O        -1.7926466826    2.2695056198   -1.6460193195
     16  O         1.6802346153   -2.3035729238    1.3321657790
     17  O         2.2063960422   -1.5216983221   -1.2881057172
     18  C         1.9824257435   -3.7348295875    1.1161007041
     19  C         2.8563757758    1.7847894076   -0.3125456197
     20  C         2.6187471693    2.9349574533    0.7435429495
     21  C         3.2919457760    2.3127727781    2.0231296741
     22  C         3.7608742574    0.9099975302    1.4692195904
     23  O         4.1617071864    1.2067701500    0.0731797856
     24  H         0.8161829403    1.0435253885    0.2267513562
     25  H         1.7935656362    0.0865235078    2.1646439709
     26  H         2.8688189160    2.1100125162   -1.3711654624
     27  H         3.1228485077    3.8627182226    0.4295151059
     28  H         1.5445414854    3.1385261338    0.8839603835
     29  H         4.1584356309    2.9082480597    2.3521448680
     30  H         2.5892940552    2.2116357689    2.8654827327
     31  H         4.5981844513    0.4316656992    2.0133006429
     32  O        -0.6499926704   -1.2120300157   -0.1645223207
     33  C        -0.4641037586    2.8039923899   -2.0436826048
     34  C        -3.4492085065    0.9962808132    1.5184391236
     35  C        -4.9786150212    0.6370079490    1.6760862455
     36  C        -4.9680439782   -0.8941929327    1.3115316577
     37  C        -3.4308477863   -1.1332420434    1.0371477572
     38  O        -2.7555207700   -0.2238709315    1.9886988548
     39  H        -3.9004469927    1.5492492816   -0.6147095423
     40  H        -3.8170689872   -0.7589734626   -1.1536161702
     41  H         0.2378568519    1.9480416276   -2.1847741389
     42  H        -3.1026148459    1.8794785780    2.0886974592
     43  H        -5.3073032202    0.8020447180    2.7144826727
     44  H        -5.6180975253    1.2311256147    1.0038525403
     45  H        -5.3083223075   -1.5140127324    2.1561476260
     46  H        -5.5874045512   -1.1264398737    0.4304747049
     47  H        -3.0780533956   -2.1727610876    1.1810887350
     48  H        -0.0637530708    3.5010787366   -1.2814550197
     49  H        -0.6246180079    3.3399474189   -2.9963457459
     50  H         1.0364116764   -4.2787446411    1.2939551464
     51  H         2.7603855877   -4.1035110106    1.8159414137
     52  H         2.3271217091   -3.9189590908    0.0776828013
     53  H         1.4552969405   -1.2542056709   -3.6299466951
     54  H         0.0775641087   -0.1562781522   -4.0615016045
     55  H        -0.7295204572   -2.5196256544   -3.6194788100
     56  H         0.0201412934   -2.4656556828   -1.9646624695
   Point Group: c1    Number of degrees of freedom:   162


   Energy is  -1510.301356167

 Hessian Updated using BFGS Update

162 Hessian modes will be used to form the next step
  Hessian Eigenvalues:
     0.001249    0.002114    0.002752    0.003422    0.003592    0.004432
     0.006014    0.006369    0.006919    0.011471    0.013555    0.018088
     0.018701    0.020658    0.021745    0.022063    0.024875    0.027616
     0.030588    0.031223    0.031804    0.033101    0.035222    0.035808
     0.038312    0.040332    0.042247    0.042946    0.043577    0.045558
     0.045771    0.046851    0.048054    0.050902    0.051671    0.052295
     0.054072    0.054366    0.054537    0.055849    0.056136    0.056589
     0.057654    0.058434    0.060040    0.061952    0.063035    0.064259
     0.064469    0.064869    0.065433    0.065786    0.067982    0.069518
     0.069878    0.072403    0.073614    0.074452    0.081993    0.086907
     0.092995    0.093061    0.096391    0.098180    0.098468    0.101238
     0.102890    0.105197    0.106024    0.111877    0.113574    0.116239
     0.118755    0.123615    0.132215    0.142157    0.143857    0.148751
     0.159354    0.160147    0.160791    0.161791    0.163253    0.166536
     0.169044    0.175958    0.180505    0.199769    0.210744    0.219845
     0.226587    0.229835    0.236075    0.237847    0.238695    0.240481
     0.241859    0.242484    0.245249    0.247304    0.247426    0.249097
     0.251488    0.255211    0.256194    0.258786    0.262693    0.263454
     0.269907    0.275103    0.281227    0.287650    0.291457    0.294072
     0.297019    0.300146    0.301233    0.308876    0.322276    0.324675
     0.325560    0.326348    0.326594    0.327136    0.327443    0.327862
     0.328714    0.328865    0.329024    0.329311    0.329776    0.331260
     0.331427    0.332422    0.333664    0.334298    0.334880    0.334985
     0.335305    0.335394    0.335481    0.335803    0.336037    0.337032
     0.343144    0.351951    0.354787    0.362930    0.389461    0.402382
     0.410746    0.429692    0.450027    0.490611    0.576418    0.766607
     0.823370    0.836994    0.846954    0.877062    1.480963    3.595853

 Minimum Search - Taking Simple RFO Step
 Searching for Lamda that Minimizes Along All modes
 Value Taken    Lamda =   0.00000000
 Step Taken.  Stepsize is  0.001694

                             Maximum     Tolerance    Cnvgd?
         Gradient           0.000095      0.000300     YES
         Displacement       0.000483      0.001200     YES
         Energy change     -0.000001      0.000001     YES

 Final energy is   -1510.30135616656     


 ******************************
 **  OPTIMIZATION CONVERGED  **
 ******************************

                       Coordinates (Angstroms)
     ATOM                X               Y               Z
      1  O        -0.7804686377    1.8944209837    0.4689724879
      2  C        -1.7510881374    1.7674305842   -0.3154698206
      3  C        -3.1105846005    1.0452834422   -0.0301741431
      4  C        -3.0698905652   -0.5094428857   -0.3799529312
      5  C        -1.6691830835   -1.0198933039   -0.8635665636
      6  O        -1.7453287837   -1.2928001889   -2.2712517128
      7  C        -0.4683607130   -1.8668263396   -2.7617839986
      8  C         0.5358002461   -0.7568113915   -3.2503871947
      9  O         0.8585943029    0.2089954986   -2.1785228480
     10  C         1.6913020286   -0.3901963563   -1.1638687016
     11  C         1.8227820508    0.6197126095    0.0131612552
     12  C         2.4813985631   -0.0100934200    1.3059277204
     13  C         2.8745257234   -1.5249193911    1.1636297552
     14  O         4.0193344171   -2.0065526434    1.0290250173
     15  O        -1.7926466826    2.2695056198   -1.6460193195
     16  O         1.6802346153   -2.3035729238    1.3321657790
     17  O         2.2063960422   -1.5216983221   -1.2881057172
     18  C         1.9824257435   -3.7348295875    1.1161007041
     19  C         2.8563757758    1.7847894076   -0.3125456197
     20  C         2.6187471693    2.9349574533    0.7435429495
     21  C         3.2919457760    2.3127727781    2.0231296741
     22  C         3.7608742574    0.9099975302    1.4692195904
     23  O         4.1617071864    1.2067701500    0.0731797856
     24  H         0.8161829403    1.0435253885    0.2267513562
     25  H         1.7935656362    0.0865235078    2.1646439709
     26  H         2.8688189160    2.1100125162   -1.3711654624
     27  H         3.1228485077    3.8627182226    0.4295151059
     28  H         1.5445414854    3.1385261338    0.8839603835
     29  H         4.1584356309    2.9082480597    2.3521448680
     30  H         2.5892940552    2.2116357689    2.8654827327
     31  H         4.5981844513    0.4316656992    2.0133006429
     32  O        -0.6499926704   -1.2120300157   -0.1645223207
     33  C        -0.4641037586    2.8039923899   -2.0436826048
     34  C        -3.4492085065    0.9962808132    1.5184391236
     35  C        -4.9786150212    0.6370079490    1.6760862455
     36  C        -4.9680439782   -0.8941929327    1.3115316577
     37  C        -3.4308477863   -1.1332420434    1.0371477572
     38  O        -2.7555207700   -0.2238709315    1.9886988548
     39  H        -3.9004469927    1.5492492816   -0.6147095423
     40  H        -3.8170689872   -0.7589734626   -1.1536161702
     41  H         0.2378568519    1.9480416276   -2.1847741389
     42  H        -3.1026148459    1.8794785780    2.0886974592
     43  H        -5.3073032202    0.8020447180    2.7144826727
     44  H        -5.6180975253    1.2311256147    1.0038525403
     45  H        -5.3083223075   -1.5140127324    2.1561476260
     46  H        -5.5874045512   -1.1264398737    0.4304747049
     47  H        -3.0780533956   -2.1727610876    1.1810887350
     48  H        -0.0637530708    3.5010787366   -1.2814550197
     49  H        -0.6246180079    3.3399474189   -2.9963457459
     50  H         1.0364116764   -4.2787446411    1.2939551464
     51  H         2.7603855877   -4.1035110106    1.8159414137
     52  H         2.3271217091   -3.9189590908    0.0776828013
     53  H         1.4552969405   -1.2542056709   -3.6299466951
     54  H         0.0775641087   -0.1562781522   -4.0615016045
     55  H        -0.7295204572   -2.5196256544   -3.6194788100
     56  H         0.0201412934   -2.4656556828   -1.9646624695

Z-matrix Print:
$molecule
0 1
O 
C  1 1.250731
O  2 1.435916 1 124.189786
C  3 1.483501 2 110.612879 1 1.677743 0
H  4 1.109050 3 106.306669 2 150.733877 0
H  4 1.110240 3 110.489781 2 31.456811 0
C  2 1.567298 1 127.288852 3 177.447915 0
H  7 1.104127 2 108.358901 1 -161.850696 0
C  4 1.574549 3 112.258344 2 -90.202129 0
H  9 1.108389 4 110.205315 3 -58.456648 0
H  9 1.112178 4 108.534647 3 -178.401969 0
O  9 1.478470 4 112.011297 3 58.640732 0
C  12 1.442898 9 111.379122 4 71.106842 0
O  13 1.249421 12 122.961477 9 8.845204 0
C  13 1.556471 12 108.124348 9 -172.366240 0
H  15 1.112870 13 108.410983 12 44.476102 0
C  15 1.581669 13 113.259724 12 169.167714 0
H  17 1.104465 15 109.957330 13 -121.977098 0
C  17 1.571463 15 114.456295 13 -0.101230 0
O  19 1.249270 17 127.635893 15 105.631277 0
O  19 1.435631 17 107.703277 15 -79.342302 0
C  21 1.478682 19 109.743993 17 176.204655 0
H  22 1.105630 21 106.129257 19 178.078326 0
H  22 1.109470 21 111.886931 19 58.605125 0
H  22 1.109518 21 111.154176 19 -62.874457 0
C  17 1.584389 15 100.910105 13 119.791363 0
H  26 1.107210 17 114.233846 15 -154.905444 0
O  26 1.482453 17 103.741943 15 -34.951579 0
C  28 1.478777 26 94.888354 17 56.586523 0
H  29 1.107520 28 110.743654 26 -179.903406 0
C  26 1.579395 17 108.189579 15 74.472515 0
H  31 1.101593 26 112.087023 17 46.408739 0
H  31 1.101656 26 110.566725 17 168.043741 0
C  31 1.574056 26 101.125151 17 -73.814226 0
H  34 1.101577 31 111.649650 26 -118.917800 0
H  34 1.102304 31 112.719813 26 117.900130 0
C  7 1.589840 2 110.496957 1 -38.206675 0
H  37 1.107151 7 114.326503 2 -35.519403 0
O  37 1.479348 7 103.208761 2 84.379513 0
C  39 1.480242 37 95.072899 7 57.544242 0
H  40 1.106960 39 110.320883 37 -179.405405 0
C  40 1.578928 39 103.571118 37 56.204346 0
H  42 1.101608 40 110.428563 39 82.554208 0
H  42 1.101731 40 112.247251 39 -155.935313 0
C  42 1.574036 40 101.053200 39 -35.529791 0
H  45 1.101518 42 111.575053 40 118.344995 0
H  45 1.101729 42 112.737234 40 -118.979713 0
C  40 1.585960 39 103.628148 37 -56.631120 0
H  48 1.104330 40 112.224348 39 151.468854 0
C  48 1.565606 40 112.184635 39 -86.317252 0
O  50 1.254424 48 127.202552 40 24.602337 0
O  50 1.422733 48 107.928533 40 -155.489573 0
C  52 1.486216 50 110.550385 48 -172.274880 0
H  53 1.104798 52 105.980466 50 -169.540770 0
H  53 1.107791 52 111.423074 50 -50.009420 0
H  53 1.115933 52 108.680120 50 71.378647 0
$end

 
 --------------------------------------------------------------
 
                    Orbital Energies (a.u.)
 --------------------------------------------------------------
 
 Alpha MOs
 -- Occupied --
-18.940 -18.939 -18.939 -18.909 -18.891 -18.883 -18.882 -18.881
-18.875 -18.848 -10.106 -10.104 -10.103 -10.081 -10.077 -10.076
-10.064 -10.063 -10.049 -10.049 -10.045 -10.044 -10.043 -10.042
-10.024 -10.023 -10.018 -10.015 -10.008 -10.007  -1.023  -1.015
 -1.010  -0.986  -0.973  -0.958  -0.945  -0.940  -0.938  -0.912
 -0.767  -0.750  -0.729  -0.720  -0.709  -0.703  -0.690  -0.661
 -0.645  -0.622  -0.597  -0.575  -0.550  -0.541  -0.533  -0.525
 -0.516  -0.499  -0.487  -0.465  -0.464  -0.457  -0.445  -0.441
 -0.435  -0.433  -0.423  -0.417  -0.413  -0.409  -0.399  -0.394
 -0.390  -0.380  -0.373  -0.365  -0.362  -0.353  -0.352  -0.346
 -0.343  -0.336  -0.333  -0.332  -0.327  -0.321  -0.313  -0.313
 -0.309  -0.305  -0.301  -0.293  -0.290  -0.280  -0.277  -0.267
 -0.263  -0.259  -0.253  -0.247  -0.237  -0.231  -0.222  -0.197
 -0.178  -0.171  -0.164  -0.155  -0.153  -0.152  -0.147  -0.133
 -0.129
 -- Virtual --
  0.085   0.088   0.106   0.127   0.219   0.234   0.254   0.258
  0.261   0.282   0.284   0.298   0.301   0.314   0.327   0.336
  0.339   0.345   0.347   0.359   0.361   0.362   0.369   0.371
  0.380   0.382   0.397   0.400   0.405   0.407   0.408   0.412
  0.415   0.419   0.424   0.428   0.433   0.434   0.436   0.439
  0.443   0.444   0.449   0.452   0.454   0.457   0.460   0.463
  0.464   0.477   0.483   0.490   0.500   0.502   0.526   0.537
  0.547   0.565   0.568   0.633   0.648   0.659   0.672
 --------------------------------------------------------------
 
          Ground-State Mulliken Net Atomic Charges

     Atom                 Charge (a.u.)
  ----------------------------------------
      1 O                    -0.215885
      2 C                     0.213650
      3 C                    -0.078339
      4 C                    -0.077963
      5 C                     0.205230
      6 O                    -0.171501
      7 C                    -0.055810
      8 C                    -0.048887
      9 O                    -0.181334
     10 C                     0.224972
     11 C                    -0.091322
     12 C                    -0.079971
     13 C                     0.214531
     14 O                    -0.219591
     15 O                    -0.167962
     16 O                    -0.168581
     17 O                    -0.208128
     18 C                    -0.127783
     19 C                     0.023317
     20 C                    -0.145131
     21 C                    -0.143675
     22 C                     0.024555
     23 O                    -0.191605
     24 H                     0.113850
     25 H                     0.088728
     26 H                     0.076826
     27 H                     0.072811
     28 H                     0.079948
     29 H                     0.074710
     30 H                     0.074472
     31 H                     0.086038
     32 O                    -0.202448
     33 C                    -0.147851
     34 C                     0.025889
     35 C                    -0.143757
     36 C                    -0.144150
     37 C                     0.026832
     38 O                    -0.182846
     39 H                     0.087108
     40 H                     0.087362
     41 H                     0.111519
     42 H                     0.086583
     43 H                     0.078879
     44 H                     0.073684
     45 H                     0.078984
     46 H                     0.073791
     47 H                     0.085677
     48 H                     0.084587
     49 H                     0.084089
     50 H                     0.083638
     51 H                     0.084731
     52 H                     0.088304
     53 H                     0.094904
     54 H                     0.091274
     55 H                     0.089955
     56 H                     0.103094
  ----------------------------------------
  Sum of atomic charges =    -0.000000

 -----------------------------------------------------------------
                    Cartesian Multipole Moments
 -----------------------------------------------------------------
    Charge (ESU x 10^10)
                -0.0000
    Dipole Moment (Debye)
         X      -4.6487      Y       0.7937      Z      -1.8950
       Tot       5.0825
    Quadrupole Moments (Debye-Ang)
        XX    -165.7496     XY       5.4938     YY    -151.2670
        XZ      -0.3591     YZ       2.5215     ZZ    -152.5769
    Octopole Moments (Debye-Ang^2)
       XXX    -151.2096    XXY      12.5529    XYY      -8.3920
       YYY     -42.9608    XXZ      24.0228    XYZ      -0.7120
       YYZ      -1.7183    XZZ      17.6498    YZZ     -14.7369
       ZZZ     -26.8214
    Hexadecapole Moments (Debye-Ang^3)
      XXXX   -7638.9776   XXXY      63.1992   XXYY   -1761.6186
      XYYY     -14.1374   YYYY   -2894.2116   XXXZ     -54.9736
      XXYZ      18.0772   XYYZ     -19.0763   YYYZ     -62.9698
      XXZZ   -1613.0100   XYZZ      -8.1930   YYZZ    -863.4090
      XZZZ     -55.3898   YZZZ       9.3078   ZZZZ   -2307.9591
 -----------------------------------------------------------------
Archival summary:
1\1\vega02.cac.cornell.edu\OPT\ProcedureUnspecified\STO-3G\102026\jj585\MonJan1520:29:202018MonJan1520:29:202018\0\\#,OPT,ProcedureUnspecified,STO-3G,\\0,1\O\C,1,1.25073\O,2,1.43592,1,124.19\C,3,1.4835,2,110.613,1,1.67774,0\H,4,1.10905,3,106.307,2,150.734,0\H,4,1.11024,3,110.49,2,31.4568,0\C,2,1.5673,1,127.289,3,177.448,0\H,7,1.10413,2,108.359,1,-161.851,0\C,4,1.57455,3,112.258,2,-90.2021,0\H,9,1.10839,4,110.205,3,-58.4566,0\H,9,1.11218,4,108.535,3,-178.402,0\O,9,1.47847,4,112.011,3,58.6407,0\C,12,1.4429,9,111.379,4,71.1068,0\O,13,1.24942,12,122.961,9,8.8452,0\C,13,1.55647,12,108.124,9,-172.366,0\H,15,1.11287,13,108.411,12,44.4761,0\C,15,1.58167,13,113.26,12,169.168,0\H,17,1.10446,15,109.957,13,-121.977,0\C,17,1.57146,15,114.456,13,-0.10123,0\O,19,1.24927,17,127.636,15,105.631,0\O,19,1.43563,17,107.703,15,-79.3423,0\C,21,1.47868,19,109.744,17,176.205,0\H,22,1.10563,21,106.129,19,178.078,0\H,22,1.10947,21,111.887,19,58.6051,0\H,22,1.10952,21,111.154,19,-62.8745,0\C,17,1.58439,15,100.91,13,119.791,0\H,26,1.10721,17,114.234,15,-154.905,0\O,26,1.48245,17,103.742,15,-34.9516,0\C,28,1.47878,26,94.8884,17,56.5865,0\H,29,1.10752,28,110.744,26,-179.903,0\C,26,1.5794,17,108.19,15,74.4725,0\H,31,1.10159,26,112.087,17,46.4087,0\H,31,1.10166,26,110.567,17,168.044,0\C,31,1.57406,26,101.125,17,-73.8142,0\H,34,1.10158,31,111.65,26,-118.918,0\H,34,1.1023,31,112.72,26,117.9,0\C,7,1.58984,2,110.497,1,-38.2067,0\H,37,1.10715,7,114.327,2,-35.5194,0\O,37,1.47935,7,103.209,2,84.3795,0\C,39,1.48024,37,95.0729,7,57.5442,0\H,40,1.10696,39,110.321,37,-179.405,0\C,40,1.57893,39,103.571,37,56.2043,0\H,42,1.10161,40,110.429,39,82.5542,0\H,42,1.10173,40,112.247,39,-155.935,0\C,42,1.57404,40,101.053,39,-35.5298,0\H,45,1.10152,42,111.575,40,118.345,0\H,45,1.10173,42,112.737,40,-118.98,0\C,40,1.58596,39,103.628,37,-56.6311,0\H,48,1.10433,40,112.224,39,151.469,0\C,48,1.56561,40,112.185,39,-86.3173,0\O,50,1.25442,48,127.203,40,24.6023,0\O,50,1.42273,48,107.929,40,-155.49,0\C,52,1.48622,50,110.55,48,-172.275,0\H,53,1.1048,52,105.98,50,-169.541,0\H,53,1.10779,52,111.423,50,-50.0094,0\H,53,1.11593,52,108.68,50,71.3786,0\\\@

 Total job time:  234.58s(wall), 11199.98s(cpu) 
 Mon Jan 15 20:29:20 2018

        *************************************************************
        *                                                           *
        *  Thank you very much for using Q-Chem.  Have a nice day.  *
        *                                                           *
        *************************************************************


0 sent ACK to 0 
now end server 0 ... 
