mFile = /opt/software/qchem/qchem-5.0.1//bin/mpi/machines
Process 0 of 1 is on vega02.cac.cornell.edu - thread support 0
initial socket setup ...start
initial socket setup ...done 
now start server 0 ... 
vega02.cac.cornell.edu 10.84.3
Q-Chem Developer Version! Running on 10.84.3.*
                  Welcome to Q-Chem
     A Quantum Leap Into The Future Of Chemistry


 Q-Chem 5.0, Q-Chem, Inc., Pleasanton, CA (2017)

 Yihan Shao,  Zhengting Gan,  E. Epifanovsky,  A. T. B. Gilbert,  M. Wormit,  
 J. Kussmann,  A. W. Lange,  A. Behn,  Jia Deng,  Xintian Feng,  D. Ghosh,  
 M. Goldey,  P. R. Horn,  L. D. Jacobson,  I. Kaliman,  T. Kus,  A. Landau,  
 Jie Liu,  E. I. Proynov,  R. M. Richard,  R. P. Steele,  E. J. Sundstrom,  
 H. L. Woodcock III,  P. M. Zimmerman,  D. Zuev,  B. Albrecht,  E. Alguire,  
 S. A. Baeppler,  Z. Benda,  Y. A. Bernard,  E. J. Berquist,  K. B. Bravaya,  
 D. Casanova,  Chun-Min Chang,  Yunqing Chen,  A. Chien,  K. D. Closser,  
 M. P. Coons,  S. Dasgupta,  M. Diedenhofen,  Hainam Do,  R. G. Edgar,  
 Po-Tung Fang,  S. Fatehi,  Qingguo Feng,  Qinghui Ge,  A. Ghysels,  
 J. Gomes,  J. Gonthier,  A. Gunina,  M. W. D. Hanson-Heine,  
 P. H. P. Harbach,  A. W. Hauser,  J. E. Herr,  E. G. Hohenstein,  
 Z. C. Holden,  Kerwin Hui,  T.-C. Jagau,  Hyunjun Ji,  B. Kaduk,  
 K. Khistyaev,  Jaehoon Kim,  P. Klunzinger,  K. Koh,  D. Kosenkov,  
 T. Kowalczyk,  C. M. Krauter,  A. Kunitsa,  Ka Un Lao,  A. Laurent,  
 K. V. Lawler,  Joonho Lee,  D. Lefrancois,  S. Lehtola,  D. S. Levine,  
 Yi-Pei Li,  You-Sheng Lin,  Fenglai Liu,  E. Livshits,  A. Luenser,  
 P. Manohar,  E. Mansoor,  S. F. Manzer,  Shan-Ping Mao,  Yuezhi Mao,  
 N. Mardirossian,  A. V. Marenich,  L. A. Martinez-Martinez,  S. A. Maurer,  
 N. J. Mayhall,  S. C. McKenzie,  J.-M. Mewes,  A. F. Morrison,  K. Nanda,  
 T. S. Nguyen-Beck,  R. Olivares-Amaya,  J. A. Parkhill,  T. M. Perrine,  
 F. Plasser,  S. Prager,  A. Prociuk,  D. R. Rehn,  F. Rob,  M. Schneider,  
 N. Sergueev,  S. M. Sharada,  S. Sharma,  D. W. Small,  T. Stauch,  
 T. Stein,  Yu-Chuan Su,  A. J. W. Thom,  T. Tsuchimochi,  L. Vogt,  
 O. Vydrov,  M. A. Watson,  J. Wenzel,  M. de Wergifosse,  T. A. Wesolowski,  
 A. White,  J. Witte,  A. Yamada,  Jun Yang,  K. Yao,  S. Yeganeh,  
 S. R. Yost,  Zhi-Qiang You,  A. Zech,  Igor Ying Zhang,  Xing Zhang,  
 Yan Zhao,  Ying Zhu,  B. R. Brooks,  G. K. L. Chan,  C. J. Cramer,  
 M. S. Gordon,  W. J. Hehre,  A. Klamt,  M. W. Schmidt,  C. D. Sherrill,  
 D. G. Truhlar,  A. Aspuru-Guzik,  R. Baer,  A. T. Bell,  N. A. Besley,  
 Jeng-Da Chai,  A. Dreuw,  B. D. Dunietz,  T. R. Furlani,  Chao-Ping Hsu,  
 Yousung Jung,  Jing Kong,  D. S. Lambrecht,  WanZhen Liang,  C. Ochsenfeld,  
 V. A. Rassolov,  L. V. Slipchenko,  J. E. Subotnik,  T. Van Voorhis,  
 J. M. Herbert,  A. I. Krylov,  P. M. W. Gill,  M. Head-Gordon

 Contributors to earlier versions of Q-Chem not listed above: 
 R. D. Adamson,  B. Austin,  J. Baker,  G. J. O. Beran,  K. Brandhorst,  
 S. T. Brown,  E. F. C. Byrd,  A. K. Chakraborty,  C.-L. Cheng,  
 Siu Hung Chien,  D. M. Chipman,  D. L. Crittenden,  H. Dachsel,  
 R. A. DiStasio Jr.,  R. J. Doerksen,  A. D. Dutoi,  L. Fusti-Molnar,  
 W. A. Goddard III,  A. Golubeva-Zadorozhnaya,  S. R. Gwaltney,  G. Hawkins,  
 A. Heyden,  S. Hirata,  G. Kedziora,  F. J. Keil,  C. Kelley,  Jihan Kim,  
 R. A. King,  R. Z. Khaliullin,  P. P. Korambath,  W. Kurlancheek,  
 A. M. Lee,  M. S. Lee,  S. V. Levchenko,  Ching Yeh Lin,  D. Liotard,  
 R. C. Lochan,  I. Lotan,  P. E. Maslen,  N. Nair,  D. P. O'Neill,  
 D. Neuhauser,  E. Neuscamman,  C. M. Oana,  R. Olson,  B. Peters,  
 R. Peverati,  P. A. Pieniazek,  Y. M. Rhee,  J. Ritchie,  M. A. Rohrdanz,  
 E. Rosta,  N. J. Russ,  H. F. Schaefer III,  N. E. Schultz,  N. Shenvi,  
 A. C. Simmonett,  A. Sodt,  D. Stuck,  K. S. Thanthiriwatte,  V. Vanovschi,  
 Tao Wang,  A. Warshel,  C. F. Williams,  Q. Wu,  X. Xu,  W. Zhang

 Please cite Q-Chem as follows:
 Y. Shao et al., Mol. Phys. 113, 184-215 (2015)
 DOI: 10.1080/00268976.2014.952696

 Q-Chem 5.0.1 for Intel X86 EM64T Linux

 Parts of Q-Chem use Armadillo 5.200.1 (Boston Tea Smuggler).
 http://arma.sourceforge.net/

 Q-Chem begins on Mon Jan 15 21:53:41 2018  

Host: vega02.cac.cornell.edu
0

     Scratch files written to /scratch/jj585/SOT1001/0930r.save//
 Parallel job on  1  processors

Checking the input file for inconsistencies... 	...done.

--------------------------------------------------------------
User input:
--------------------------------------------------------------
$molecule
0  1
O -3.9215863255 -2.5687653405 -0.1696177528
C -3.7296349981 -1.5023172216 0.4525278828
C -4.3636721814 -0.1016543992 0.131522187
C -3.4600807529 1.1510434517 0.4486475018
C -1.9342095817 0.7540767413 0.4987017614
O -1.3005733134 1.7148723732 1.3345871081
C 0.1350425938 1.6060014265 1.691863459
C 0.8055842147 0.1992815565 1.9799133307
O 1.7300662074 -0.3681661512 0.9707529965
C 1.4512004801 -0.620897773 -0.4035549074
C 2.8066301671 -1.1883433553 -0.9792084086
C 3.9939700469 -0.1343747805 -1.0414804514
C 3.6781333998 1.3072018781 -0.507422139
O 4.3457732887 1.9693068083 0.3154602889
O -3.1364496 -1.4418734442 1.7631183867
O 2.5259488931 1.8097069569 -1.1971924487
O 0.4702246854 -0.3112201182 -1.1048212061
C 2.3165507098 3.241259798 -0.8800092867
C 3.4640294848 -2.3066722042 -0.060293161
C 4.5382107423 -3.0891650058 -0.9157059687
C 5.7103490912 -2.0396599822 -0.9676977927
C 5.0853821549 -0.8482451825 -0.1410428351
O 4.2831073299 -1.5322406523 0.8986565562
H 2.5833477243 -1.5746199366 -1.9894723332
H 4.3431343753 -0.0238515877 -2.0852992462
H 2.7359251797 -2.9440174497 0.477426706
H 4.8444766501 -4.0118785335 -0.3978618007
H 4.1593686931 -3.3549887351 -1.9155767165
H 6.6163352697 -2.420908212 -0.470276893
H 5.9705092942 -1.7415842545 -1.9959413545
H 5.8059273608 -0.1474130265 0.3239750337
O -1.4704875589 -0.3311595854 0.0964193486
C -2.5631958156 -2.7583881668 2.1145700125
C -4.7231522835 0.1367729772 -1.3949352132
C -5.9278765962 1.1549686069 -1.4329005109
C -5.2094160977 2.4720881394 -0.953788159
C -3.7024894443 1.9972729655 -0.8767500332
O -3.599151987 0.9478677755 -1.9198324909
H -5.2851251068 -0.0455325517 0.741844995
H -3.7430737229 1.6831715866 1.3726676569
H -1.6928988214 -3.0027193548 1.4708535956
H -4.8478638372 -0.7928215609 -1.9840536575
H -6.3112031076 1.2580539587 -2.4607670927
H -6.7569891878 0.853888032 -0.7729130103
H -5.321478047 3.2869172866 -1.6863139761
H -5.5777282886 2.8238750149 0.023566404
H -2.9514406161 2.7924758657 -1.0494787948
H -3.3106146611 -3.5722287907 2.0187437504
H -2.2315480139 -2.6796456859 3.1664365614
H 1.2709183021 3.4748043989 -1.1534950339
H 3.0009233633 3.8800816234 -1.4759171835
H 2.4889961007 3.454159451 0.1940740507
H 1.4621497708 0.3164262974 2.8668320832
H 0.0096183128 -0.5380269053 2.2339447332
H 0.2093256438 2.2122472868 2.6182155061
H 0.7380841093 2.1145997033 0.9074516933
$end

$rem
JOBTYPE                   OPT
METHOD                    B3LYP
DFT_D                     d3_op
BASIS                     STO-3G
GEOM_OPT_MAX_CYCLES       100
GEOM_OPT_TOL_GRADIENT     300
GEOM_OPT_TOL_DISPLACEMENT 1200
GEOM_OPT_TOL_ENERGY       100
SYMMETRY                  False
THRESH                    12
SCF_CONVERGENCE           8
MAX_SUB_FILE_NUM          128
MEM_STATIC                400
MEM_TOTAL                 4000
$end
--------------------------------------------------------------
 Adding empirical dispersion correction 
 ----------------------------------------------------------------
 Doing -D3(op) with
 s6 =   1.00000
 s8 =   0.78311
 a1 =   0.30000
 a2 =   4.25000
 n  =  10.00000
 -D3 energy without 3body term =     -0.0703512727 hartrees
 ----------------------------------------------------------------
             Standard Nuclear Orientation (Angstroms)
    I     Atom           X                Y                Z
 ----------------------------------------------------------------
    1      O      -3.5466196999     2.8686705090     0.8340646897
    2      C      -3.4844524033     1.9609703083    -0.0223450645
    3      C      -4.2726053287     0.6024677023    -0.0085688424
    4      C      -3.5222206243    -0.6341604390    -0.6362403141
    5      C      -1.9613091079    -0.4065995403    -0.6481610780
    6      O      -1.4502020027    -1.2112010906    -1.7039609416
    7      C      -0.0149275025    -1.1809834814    -2.0775466906
    8      C       0.8104843819     0.1717239012    -2.0591742970
    9      O       1.8033521194     0.3847109970    -0.9803237102
   10      C       1.5680260083     0.3411658744     0.4243424512
   11      C       2.9849914178     0.6072393962     1.0661952286
   12      C       4.0435798227    -0.5564171213     0.8430413523
   13      C       3.5589655798    -1.7912933892     0.0043853025
   14      O       4.1383639340    -2.3139468612    -0.9715206076
   15      O      -2.9141848885     2.1410548928    -1.3321291458
   16      O       2.3629360372    -2.3101832966     0.6011182151
   17      O       0.5643695534    -0.0128305223     1.0703675692
   18      C       1.9871854321    -3.5973285867    -0.0280596447
   19      C       3.7583690890     1.8288413508     0.4052760566
   20      C       4.9232917463     2.2688535382     1.3785365087
   21      C       5.9672003828     1.1135645249     1.1469456894
   22      C       5.2016573743     0.2222668868     0.0919842031
   23      O       4.4740119300     1.2125040798    -0.7341101806
   24      H       2.8169257355     0.7710240391     2.1453737871
   25      H       4.3872253421    -0.9435135926     1.8206674871
   26      H       3.1036163879     2.6495094708     0.0541489663
   27      H       5.3290283057     3.2470385299     1.0753969219
   28      H       4.5867418462     2.3357224694     2.4255263732
   29      H       6.9064754043     1.4977421222     0.7182748044
   30      H       6.2006971910     0.5585822345     2.0696001161
   31      H       5.8324200122    -0.4265636514    -0.5465689665
   32      O      -1.3720398406     0.4981378860    -0.0246075046
   33      C      -2.1963771257     3.4319610824    -1.3926468008
   34      C      -4.6431750732     0.0577964205     1.4343992832
   35      C      -5.9567392341    -0.8027118426     1.2807793044
   36      C      -5.3991461205    -2.0437186622     0.4873500450
   37      C      -3.8483342708    -1.7325779225     0.4676953321
   38      O      -3.6153025950    -0.9713550905     1.7191692370
   39      H      -5.1999338770     0.7909440975    -0.5823784775
   40      H      -3.8730480318    -0.9032528730    -1.6469667914
   41      H      -1.2978829827     3.4232827926    -0.7414030866
   42      H      -4.6546144684     0.8334834756     2.2249296439
   43      H      -6.3399700388    -1.0984061104     2.2706149294
   44      H      -6.7516654636    -0.2676231068     0.7372417826
   45      H      -5.5975918423    -2.9887246988     1.0171437583
   46      H      -5.8144417484    -2.1167646398    -0.5308953302
   47      H      -3.1923071360    -2.6237638471     0.4267897550
   48      H      -2.8441962263     4.2785285459    -1.0863657097
   49      H      -1.8856373120     3.5631521777    -2.4456632033
   50      H       0.9241601959    -3.7714996392     0.2215930308
   51      H       2.5988613804    -4.4281010725     0.3808842218
   52      H       2.1241363280    -3.5731587207    -1.1277773178
   53      H       1.4410529345     0.1918576632    -2.9720839450
   54      H       0.1024303702     1.0307300973    -2.1090271800
   55      H      -0.0194272946    -1.5604462170    -3.1202201362
   56      H       0.5326819457    -1.9206315788    -1.4525045488
 ----------------------------------------------------------------
 Molecular Point Group                 C1    NOp =  1
 Largest Abelian Subgroup              C1    NOp =  1
 Nuclear Repulsion Energy =  3219.5844556572 hartrees
 There are      113 alpha and      113 beta electrons
 Requested basis set is STO-3G
 There are 86 shells and 176 basis functions

 Total QAlloc Memory Limit   4000 MB
 Mega-Array Size       392 MB
 MEM_STATIC part       400 MB
 A cutoff of  1.0D-12 yielded   2249 shell pairs
 There are     10721 function pairs
 
 -------------------------------------------------------
 OpenMP Integral Computing Module                       
 Release: version 1.0, May 2013, Q-Chem Inc. Pittsburgh 
 -------------------------------------------------------
 Integral Job Info:
 Integral job number is                      11
 Integral operator is                         1
 short-range coefficients                     0
 long-range coefficients              100000000
 Omega coefficients                           0
 if combine SR and LR in K                    0
 Integral screening is                        0
 Integral computing path is                   2
 max size of driver memory is            800000
 size of driver memory is                 45569
 size of scratch memory is              1046100
 max col of scratch BK array                289
 max len of scratch array in speh3           22
 max len of scratch index in speh4            8
 max int batch size is                      520
 min int batch size is                       52
 fixed nKL is                                52
 max L of basis functions is                  1
 order of int derivative is                   0
 number of shells is                         86
 number of basis is                         176
 number of cartesian basis is               176
 number of contracted shell pairs          2249
 number of primitive shell pairs          11310
 maxK2 (contraction) of shell pair            9
 max number of K2 of shell pair               1
 max number of CS2 of shell pair            339
 max number of PS2 of shell pair           1272
 mem total for path MDJ                   50922
 -------------------------------------------------------
 Smallest overlap matrix eigenvalue = 2.13E-01

 Scale SEOQF with 1.000000e-02/1.000000e-01/1.000000e-01

 Standard Electronic Orientation quadrupole field applied
 Nucleus-field energy     =     0.0000000280 hartrees
 Guess from superposition of atomic densities
 Warning:  Energy on first SCF cycle will be non-variational
 A restricted hybrid HF-DFT SCF calculation will be
 performed using Pulay DIIS extrapolation
 Exchange:     0.2000 Hartree-Fock + 0.0800 Slater + 0.7200 B88
 Correlation:  0.1900 VWN1RPA + 0.8100 LYP
 Using SG-1 standard quadrature grid
 Dispersion:   Grimme D3
 SCF converges when DIIS error is below 1.0E-08
 using 48 threads for integral computing
 -------------------------------------------------------
 OpenMP Integral computing Module                
 Release: version 1.0, May 2013, Q-Chem Inc. Pittsburgh 
 -------------------------------------------------------
 -------------------------------------------------------
 OpenMP BLAS3 based DFT computing Module                
 Release: version 1.0, May 2013, Q-Chem Inc. Pittsburgh 
 -------------------------------------------------------
 ---------------------------------------
  Cycle       Energy         DIIS Error
 ---------------------------------------
    1   -1507.6349439039      7.47E-02
    2   -1509.7053684114      1.04E-02
    3   -1507.2716753768      2.75E-02
    4   -1510.1533537958      4.57E-03
    5   -1510.2375062907      1.58E-03
    6   -1510.2461560196      7.53E-04
    7   -1510.2485400713      1.52E-04
    8   -1510.2486384230      3.56E-05
    9   -1510.2486437862      1.15E-05
   10   -1510.2486442755      5.48E-06
   11   -1510.2486444044      1.30E-06
   12   -1510.2486444118      2.83E-07
   13   -1510.2486444122      8.68E-08
   14   -1510.2486444122      3.67E-08
   15   -1510.2486444121      1.91E-08
   16   -1510.2486444122      4.71E-09 Convergence criterion met
 ---------------------------------------
 SCF time:  CPU 116.55 s  wall 2.49 s
 SCF   energy in the final basis set = -1510.24864441
 Total energy in the final basis set = -1510.24864441
 
 --------------------------------------------------------------
 
                    Orbital Energies (a.u.)
 --------------------------------------------------------------
 
 Alpha MOs
 -- Occupied --
-18.935 -18.930 -18.920 -18.919 -18.882 -18.881 -18.877 -18.876
-18.874 -18.863 -10.100 -10.097 -10.096 -10.091 -10.080 -10.078
-10.066 -10.056 -10.055 -10.054 -10.054 -10.052 -10.035 -10.032
-10.030 -10.029 -10.017 -10.016 -10.015 -10.015  -1.013  -1.009
 -0.998  -0.993  -0.964  -0.964  -0.941  -0.937  -0.930  -0.924
 -0.759  -0.757  -0.728  -0.718  -0.712  -0.700  -0.694  -0.665
 -0.655  -0.626  -0.594  -0.583  -0.543  -0.540  -0.534  -0.532
 -0.511  -0.504  -0.480  -0.475  -0.463  -0.454  -0.447  -0.440
 -0.433  -0.427  -0.427  -0.416  -0.406  -0.405  -0.403  -0.397
 -0.387  -0.379  -0.374  -0.364  -0.357  -0.353  -0.348  -0.348
 -0.342  -0.340  -0.336  -0.327  -0.327  -0.323  -0.321  -0.307
 -0.307  -0.302  -0.300  -0.294  -0.292  -0.284  -0.277  -0.274
 -0.269  -0.252  -0.247  -0.241  -0.229  -0.228  -0.221  -0.181
 -0.178  -0.172  -0.163  -0.157  -0.153  -0.143  -0.139  -0.138
 -0.122
 -- Virtual --
  0.095   0.099   0.111   0.119   0.216   0.227   0.235   0.250
  0.265   0.268   0.286   0.290   0.305   0.310   0.325   0.333
  0.333   0.338   0.346   0.347   0.352   0.361   0.367   0.372
  0.386   0.387   0.392   0.405   0.407   0.409   0.413   0.416
  0.418   0.419   0.421   0.425   0.427   0.431   0.431   0.437
  0.438   0.438   0.441   0.443   0.448   0.452   0.455   0.470
  0.472   0.472   0.480   0.492   0.493   0.510   0.515   0.543
  0.543   0.557   0.558   0.642   0.648   0.664   0.671
 --------------------------------------------------------------
 
          Ground-State Mulliken Net Atomic Charges

     Atom                 Charge (a.u.)
  ----------------------------------------
      1 O                    -0.216334
      2 C                     0.216968
      3 C                    -0.079532
      4 C                    -0.075601
      5 C                     0.218943
      6 O                    -0.179341
      7 C                    -0.050929
      8 C                    -0.044640
      9 O                    -0.182448
     10 C                     0.216899
     11 C                    -0.076239
     12 C                    -0.077855
     13 C                     0.210904
     14 O                    -0.213701
     15 O                    -0.178054
     16 O                    -0.170349
     17 O                    -0.188914
     18 C                    -0.131846
     19 C                     0.026677
     20 C                    -0.144483
     21 C                    -0.144181
     22 C                     0.023963
     23 O                    -0.187603
     24 H                     0.083544
     25 H                     0.084582
     26 H                     0.081901
     27 H                     0.076549
     28 H                     0.073350
     29 H                     0.077015
     30 H                     0.072253
     31 H                     0.088685
     32 O                    -0.193492
     33 C                    -0.129388
     34 C                     0.024364
     35 C                    -0.142262
     36 C                    -0.145378
     37 C                     0.024345
     38 O                    -0.188566
     39 H                     0.082130
     40 H                     0.086654
     41 H                     0.088505
     42 H                     0.090941
     43 H                     0.077361
     44 H                     0.072306
     45 H                     0.076899
     46 H                     0.072379
     47 H                     0.080552
     48 H                     0.089115
     49 H                     0.084950
     50 H                     0.092157
     51 H                     0.086523
     52 H                     0.092158
     53 H                     0.096316
     54 H                     0.092052
     55 H                     0.091612
     56 H                     0.087583
  ----------------------------------------
  Sum of atomic charges =    -0.000000

 -----------------------------------------------------------------
                    Cartesian Multipole Moments
 -----------------------------------------------------------------
    Charge (ESU x 10^10)
                -0.0000
    Dipole Moment (Debye)
         X      -0.2419      Y      -1.1783      Z      -1.5343
       Tot       1.9496
    Quadrupole Moments (Debye-Ang)
        XX    -149.8544     XY       5.7859     YY    -153.0323
        XZ      14.0458     YZ      -2.3080     ZZ    -160.1498
    Octopole Moments (Debye-Ang^2)
       XXX     -56.7571    XXY      -6.8662    XYY      10.1157
       YYY     -15.0014    XXZ      40.3039    XYZ       9.3488
       YYZ     -12.1987    XZZ       9.3429    YZZ       4.3315
       ZZZ     -21.3646
    Hexadecapole Moments (Debye-Ang^3)
      XXXX  -12398.5371   XXXY      43.9241   XXYY   -2699.1019
      XYYY     -79.9855   YYYY   -2856.4818   XXXZ     178.6516
      XXYZ     -48.3016   XYYZ      54.8922   YYYZ     -83.8594
      XXZZ   -2405.7886   XYZZ     -32.5617   YYZZ    -734.1016
      XZZZ     -39.5925   YZZZ       8.8893   ZZZZ   -1287.7531
 -----------------------------------------------------------------
 Calculating analytic gradient of the SCF energy
 Gradient of SCF Energy
            1           2           3           4           5           6
    1  -0.0060243   0.0079759  -0.0000035  -0.0029735   0.0037507   0.0021924
    2   0.0033625  -0.0049265  -0.0006084   0.0086910  -0.0178813   0.0072335
    3  -0.0039435   0.0033933   0.0063775  -0.0123169   0.0154950   0.0088562
            7           8           9          10          11          12
    1  -0.0041383   0.0147185  -0.0133426  -0.0033242   0.0015155   0.0001050
    2   0.0031044  -0.0091783   0.0004840   0.0159603  -0.0065206  -0.0008174
    3  -0.0150102  -0.0158260   0.0120679   0.0003037  -0.0010828   0.0007395
           13          14          15          16          17          18
    1  -0.0012534   0.0008197   0.0000402  -0.0000244  -0.0001387   0.0000622
    2   0.0008178  -0.0007275   0.0001099  -0.0000878   0.0001021   0.0001080
    3  -0.0012007   0.0009841  -0.0000228  -0.0000260   0.0001356   0.0001223
           19          20          21          22          23          24
    1   0.0003288  -0.0003439   0.0000851   0.0004889  -0.0003101   0.0000075
    2   0.0002490   0.0001334  -0.0002675   0.0001336   0.0000572  -0.0000425
    3  -0.0002977  -0.0002148   0.0001534  -0.0000820   0.0004573  -0.0000260
           25          26          27          28          29          30
    1   0.0000256   0.0000519  -0.0000510   0.0000296   0.0000084  -0.0000778
    2   0.0001407  -0.0000040  -0.0000339   0.0000049   0.0000052   0.0000252
    3  -0.0000338   0.0000207   0.0000805   0.0000382  -0.0000080  -0.0000322
           31          32          33          34          35          36
    1  -0.0000172   0.0000264  -0.0001645   0.0001955  -0.0003676  -0.0001687
    2   0.0001120   0.0000118  -0.0001179   0.0001817  -0.0004299  -0.0001295
    3   0.0000039   0.0000795   0.0000629   0.0000200  -0.0000329   0.0001455
           37          38          39          40          41          42
    1  -0.0001175   0.0000130   0.0002884   0.0000293   0.0001184   0.0000912
    2   0.0001703   0.0000663  -0.0002250   0.0001573   0.0001634   0.0000090
    3   0.0000545   0.0001045   0.0002387   0.0001451  -0.0000146  -0.0000082
           43          44          45          46          47          48
    1  -0.0000448   0.0000700   0.0000836   0.0000469   0.0000463  -0.0000576
    2   0.0000649  -0.0000638   0.0001344   0.0000293   0.0000763   0.0000521
    3   0.0000022  -0.0001453   0.0000595   0.0000084  -0.0001220   0.0000329
           49          50          51          52          53          54
    1   0.0000211  -0.0000122   0.0000055  -0.0000466  -0.0000911  -0.0001617
    2   0.0000273   0.0000104   0.0000160  -0.0000526  -0.0000270   0.0000661
    3   0.0000192  -0.0000050   0.0000308  -0.0000114  -0.0000207   0.0001430
           55          56
    1   0.0000708  -0.0000572
    2   0.0001127  -0.0000424
    3   0.0000588   0.0000488
 Max gradient component =       1.788E-02
 RMS gradient           =       3.932E-03
 Gradient time:  CPU 31.47 s  wall 0.68 s
 Geometry Optimization Parameters
   NAtoms,    NIC,     NZ,  NCons,   NDum,   NFix, NCnnct, MaxDiis
       56     458       0       0       0       0       0       0


** GEOMETRY OPTIMIZATION IN DELOCALIZED INTERNAL COORDINATES **
   Searching for a Minimum

   Optimization Cycle:   1

                       Coordinates (Angstroms)
     ATOM                X               Y               Z
      1  O        -3.5466196999    2.8686705090    0.8340646897
      2  C        -3.4844524033    1.9609703083   -0.0223450645
      3  C        -4.2726053287    0.6024677023   -0.0085688424
      4  C        -3.5222206243   -0.6341604390   -0.6362403141
      5  C        -1.9613091079   -0.4065995403   -0.6481610780
      6  O        -1.4502020027   -1.2112010906   -1.7039609416
      7  C        -0.0149275025   -1.1809834814   -2.0775466906
      8  C         0.8104843819    0.1717239012   -2.0591742970
      9  O         1.8033521194    0.3847109970   -0.9803237102
     10  C         1.5680260083    0.3411658744    0.4243424512
     11  C         2.9849914178    0.6072393962    1.0661952286
     12  C         4.0435798227   -0.5564171213    0.8430413523
     13  C         3.5589655798   -1.7912933892    0.0043853025
     14  O         4.1383639340   -2.3139468612   -0.9715206076
     15  O        -2.9141848885    2.1410548928   -1.3321291458
     16  O         2.3629360372   -2.3101832966    0.6011182151
     17  O         0.5643695534   -0.0128305223    1.0703675692
     18  C         1.9871854321   -3.5973285867   -0.0280596447
     19  C         3.7583690890    1.8288413508    0.4052760566
     20  C         4.9232917463    2.2688535382    1.3785365087
     21  C         5.9672003828    1.1135645249    1.1469456894
     22  C         5.2016573743    0.2222668868    0.0919842031
     23  O         4.4740119300    1.2125040798   -0.7341101806
     24  H         2.8169257355    0.7710240391    2.1453737871
     25  H         4.3872253421   -0.9435135926    1.8206674871
     26  H         3.1036163879    2.6495094708    0.0541489663
     27  H         5.3290283057    3.2470385299    1.0753969219
     28  H         4.5867418462    2.3357224694    2.4255263732
     29  H         6.9064754043    1.4977421222    0.7182748044
     30  H         6.2006971910    0.5585822345    2.0696001161
     31  H         5.8324200122   -0.4265636514   -0.5465689665
     32  O        -1.3720398406    0.4981378860   -0.0246075046
     33  C        -2.1963771257    3.4319610824   -1.3926468008
     34  C        -4.6431750732    0.0577964205    1.4343992832
     35  C        -5.9567392341   -0.8027118426    1.2807793044
     36  C        -5.3991461205   -2.0437186622    0.4873500450
     37  C        -3.8483342708   -1.7325779225    0.4676953321
     38  O        -3.6153025950   -0.9713550905    1.7191692370
     39  H        -5.1999338770    0.7909440975   -0.5823784775
     40  H        -3.8730480318   -0.9032528730   -1.6469667914
     41  H        -1.2978829827    3.4232827926   -0.7414030866
     42  H        -4.6546144684    0.8334834756    2.2249296439
     43  H        -6.3399700388   -1.0984061104    2.2706149294
     44  H        -6.7516654636   -0.2676231068    0.7372417826
     45  H        -5.5975918423   -2.9887246988    1.0171437583
     46  H        -5.8144417484   -2.1167646398   -0.5308953302
     47  H        -3.1923071360   -2.6237638471    0.4267897550
     48  H        -2.8441962263    4.2785285459   -1.0863657097
     49  H        -1.8856373120    3.5631521777   -2.4456632033
     50  H         0.9241601959   -3.7714996392    0.2215930308
     51  H         2.5988613804   -4.4281010725    0.3808842218
     52  H         2.1241363280   -3.5731587207   -1.1277773178
     53  H         1.4410529345    0.1918576632   -2.9720839450
     54  H         0.1024303702    1.0307300973   -2.1090271800
     55  H        -0.0194272946   -1.5604462170   -3.1202201362
     56  H         0.5326819457   -1.9206315788   -1.4525045488
   Point Group: c1    Number of degrees of freedom:   162


   Energy is  -1510.248644412


 Attempting to Generate Delocalized Internal Coordinates

162 Hessian modes will be used to form the next step
  Hessian Eigenvalues:
     0.002000    0.002000    0.002000    0.002000    0.002000    0.002682
     0.002780    0.004360    0.004612    0.004854    0.004911    0.005289
     0.005904    0.006069    0.006779    0.006799    0.006823    0.010374
     0.011172    0.012351    0.012677    0.021551    0.021704    0.025658
     0.025873    0.030759    0.030780    0.035172    0.035524    0.036735
     0.038953    0.039013    0.040611    0.041337    0.042160    0.045160
     0.045627    0.047377    0.047992    0.051009    0.051150    0.053006
     0.053936    0.054533    0.054636    0.055045    0.056257    0.056565
     0.056988    0.058018    0.060401    0.060710    0.060997    0.063200
     0.063815    0.064082    0.064478    0.069803    0.070185    0.072855
     0.073339    0.090801    0.092684    0.092725    0.093554    0.095622
     0.096909    0.096975    0.097290    0.102250    0.102606    0.110676
     0.110866    0.120977    0.122211    0.122502    0.123656    0.143114
     0.144515    0.157235    0.158289    0.160000    0.160000    0.160000
     0.160000    0.160000    0.160000    0.163787    0.164309    0.218355
     0.221418    0.221660    0.221902    0.226601    0.231545    0.238271
     0.238332    0.239451    0.239513    0.244964    0.245298    0.246394
     0.246882    0.247124    0.248950    0.249510    0.250000    0.250000
     0.250000    0.250000    0.250000    0.250000    0.250000    0.250000
     0.252865    0.253042    0.253898    0.254425    0.259684    0.260630
     0.291115    0.293120    0.306456    0.307500    0.321465    0.323378
     0.326255    0.326294    0.326322    0.326439    0.326930    0.327619
     0.328563    0.328644    0.328806    0.329179    0.329551    0.330052
     0.330541    0.330575    0.332003    0.333303    0.334507    0.334783
     0.334857    0.334911    0.334989    0.335025    0.335138    0.335269
     0.341826    0.343897    0.344386    0.347658    0.396059    0.404461
     0.417298    0.420954    0.834202    0.834260    0.844158    0.851175

 Minimum Search - Taking Simple RFO Step
 Searching for Lamda that Minimizes Along All modes
 Value Taken    Lamda =  -0.04777766
 Calculated Step too Large.  Step scaled by  0.326977
 Step Taken.  Stepsize is  0.300000

                             Maximum     Tolerance    Cnvgd?
         Gradient           0.032432      0.000300      NO
         Displacement       0.172867      0.001200      NO
         Energy change     *********      0.000001      NO


 New Cartesian Coordinates Obtained by Inverse Iteration

 Displacement from previous Coordinates is:  3.875066
 Adding empirical dispersion correction 
 ----------------------------------------------------------------
 Doing -D3(op) with
 s6 =   1.00000
 s8 =   0.78311
 a1 =   0.30000
 a2 =   4.25000
 n  =  10.00000
 -D3 energy without 3body term =     -0.0693122177 hartrees
 ----------------------------------------------------------------
             Standard Nuclear Orientation (Angstroms)
    I     Atom           X                Y                Z
 ----------------------------------------------------------------
    1      O      -3.7374160893     3.0214650333     0.5886648549
    2      C      -3.6741008417     2.0620020152    -0.2092208386
    3      C      -4.4066074478     0.6788308530    -0.0771136702
    4      C      -3.6120839870    -0.5730329849    -0.6147005815
    5      C      -2.0629407736    -0.2805773420    -0.6720846699
    6      O      -1.5256086115    -1.1551594640    -1.6568154244
    7      C      -0.0771807718    -1.1666608482    -1.9771491562
    8      C       0.7908668534     0.1569834514    -1.8993490517
    9      O       1.8276342021     0.2685488485    -0.8467401882
   10      C       1.6556388475     0.0765945195     0.5546680769
   11      C       3.0716254577     0.4018111470     1.1710733994
   12      C       4.2082280466    -0.6486843686     0.8113112272
   13      C       3.7877986005    -1.8428638164    -0.1160472553
   14      O       4.3627225821    -2.2283890698    -1.1563036165
   15      O      -3.1339131474     2.1650513284    -1.5399407290
   16      O       2.6617738578    -2.5070628981     0.4727146635
   17      O       0.7008112445    -0.3933857635     1.2006852983
   18      C       2.3607260699    -3.7599192867    -0.2578100964
   19      C       3.7197148525     1.7333555162     0.5929136190
   20      C       4.8856095385     2.1837222431     1.5604784364
   21      C       6.0062658696     1.1409835739     1.1936241498
   22      C       5.2699851778     0.2820573848     0.0919480911
   23      O       4.4341907650     1.2755672546    -0.6196636918
   24      H       2.9345768157     0.4610306611     2.2653524568
   25      H       4.6212728433    -1.0880219743     1.7387485969
   26      H       2.9888792068     2.5244421913     0.3368014281
   27      H       5.2007669553     3.2137106932     1.3297538853
   28      H       4.5880564903     2.1348570843     2.6201863103
   29      H       6.8941848904     1.6350329996     0.7680791818
   30      H       6.3202605362     0.5313607988     2.0559714920
   31      H       5.9227343796    -0.2573998229    -0.6218918791
   32      O      -1.4987198731     0.6834396627    -0.1180968550
   33      C      -2.4541865728     3.4672701255    -1.7056046479
   34      C      -4.7311864033     0.2358105155     1.4116008011
   35      C      -6.0091975438    -0.6871550463     1.3507455628
   36      C      -5.4113558112    -1.9641450141     0.6485928839
   37      C      -3.8754756787    -1.5924757466     0.5775407599
   38      O      -3.6570259498    -0.7242732682     1.7596219581
   39      H      -5.3507996089     0.7844768477    -0.6449795742
   40      H      -3.9648034079    -0.9364355537    -1.5948904754
   41      H      -1.5437874629     3.5282284564    -1.0740580958
   42      H      -4.7635366446     1.0711297484     2.1381996791
   43      H      -6.3650100575    -0.9181860613     2.3676490474
   44      H      -6.8339125690    -0.2300829966     0.7810078363
   45      H      -5.5622990476    -2.8710977914     1.2551033118
   46      H      -5.8377408051    -2.1354416016    -0.3531642094
   47      H      -3.1828099890    -2.4562770758     0.5963667557
   48      H      -3.1196260764     4.3156747627    -1.4458574499
   49      H      -2.1671709306     3.5321117607    -2.7714570931
   50      H       1.3258646132    -4.0409862952     0.0118820107
   51      H       3.0516501312    -4.5712841181     0.0518273834
   52      H       2.4490383169    -3.6276198119    -1.3548109769
   53      H       1.4134364994     0.2045689953    -2.8167396000
   54      H       0.1093285892     1.0384981590    -1.8985357217
   55      H      -0.0795829519    -1.5158339135    -3.0304056069
   56      H       0.4393227698    -1.9403952256    -1.3670954721
 ----------------------------------------------------------------
 Molecular Point Group                 C1    NOp =  1
 Largest Abelian Subgroup              C1    NOp =  1
 Nuclear Repulsion Energy =  3182.7798002763 hartrees
 There are      113 alpha and      113 beta electrons
 Applying Cartesian multipole field
    Component          Value
    ---------          -----
     (2,0,0)        1.00000E-12
     (0,2,0)        2.00000E-11
     (0,0,2)       -3.00000E-11
 Nucleus-field energy     =     0.0000000277 hartrees
 Requested basis set is STO-3G
 There are 86 shells and 176 basis functions
 A cutoff of  1.0D-12 yielded   2196 shell pairs
 There are     10461 function pairs
 Smallest overlap matrix eigenvalue = 2.13E-01
 Guess MOs from SCF MO coefficient file
 Reading MOs from coefficient file
 Reading MOs from coefficient file
 A restricted hybrid HF-DFT SCF calculation will be
 performed using Pulay DIIS extrapolation
 Exchange:     0.2000 Hartree-Fock + 0.0800 Slater + 0.7200 B88
 Correlation:  0.1900 VWN1RPA + 0.8100 LYP
 Using SG-1 standard quadrature grid
 Dispersion:   Grimme D3
 SCF converges when DIIS error is below 1.0E-08
 Geometry optimization detected.  Setting ReadMinima to 0
 Setting SaveMinima to 0
 using 48 threads for integral computing
 -------------------------------------------------------
 OpenMP Integral computing Module                
 Release: version 1.0, May 2013, Q-Chem Inc. Pittsburgh 
 -------------------------------------------------------
 -------------------------------------------------------
 OpenMP BLAS3 based DFT computing Module                
 Release: version 1.0, May 2013, Q-Chem Inc. Pittsburgh 
 -------------------------------------------------------
 ---------------------------------------
  Cycle       Energy         DIIS Error
 ---------------------------------------
    1   -1510.1052905540      5.70E-03
    2   -1510.2517926698      6.16E-04
    3   -1510.2484647602      1.14E-03
    4   -1510.2539937594      2.46E-04
    5   -1510.2542553496      6.96E-05
    6   -1510.2542737437      3.19E-05
    7   -1510.2542773206      1.60E-05
    8   -1510.2542784250      3.20E-06
    9   -1510.2542784776      7.14E-07
   10   -1510.2542784796      5.32E-07
   11   -1510.2542784808      2.13E-07
   12   -1510.2542784809      4.34E-08
   13   -1510.2542784810      1.55E-08
   14   -1510.2542784811      4.70E-09 Convergence criterion met
 ---------------------------------------
 SCF time:  CPU 102.39 s  wall 2.14 s
 SCF   energy in the final basis set = -1510.25427848
 Total energy in the final basis set = -1510.25427848
 
 --------------------------------------------------------------
 
                    Orbital Energies (a.u.)
 --------------------------------------------------------------
 
 Alpha MOs
 -- Occupied --
-18.935 -18.934 -18.922 -18.920 -18.882 -18.882 -18.877 -18.876
-18.873 -18.865 -10.103 -10.100 -10.098 -10.092 -10.080 -10.079
-10.066 -10.057 -10.056 -10.054 -10.054 -10.053 -10.035 -10.034
-10.031 -10.030 -10.018 -10.016 -10.016 -10.015  -1.013  -1.010
 -0.999  -0.995  -0.965  -0.964  -0.941  -0.937  -0.934  -0.926
 -0.760  -0.758  -0.729  -0.719  -0.712  -0.700  -0.694  -0.664
 -0.655  -0.627  -0.594  -0.584  -0.543  -0.541  -0.534  -0.532
 -0.511  -0.506  -0.480  -0.476  -0.463  -0.454  -0.448  -0.441
 -0.433  -0.427  -0.427  -0.415  -0.407  -0.405  -0.403  -0.398
 -0.386  -0.376  -0.374  -0.366  -0.359  -0.355  -0.350  -0.348
 -0.343  -0.342  -0.335  -0.327  -0.327  -0.323  -0.322  -0.308
 -0.307  -0.302  -0.301  -0.295  -0.292  -0.285  -0.280  -0.274
 -0.270  -0.253  -0.249  -0.245  -0.230  -0.229  -0.220  -0.181
 -0.178  -0.172  -0.164  -0.156  -0.151  -0.144  -0.141  -0.139
 -0.137
 -- Virtual --
  0.096   0.097   0.110   0.117   0.214   0.225   0.235   0.248
  0.265   0.267   0.285   0.290   0.302   0.309   0.322   0.332
  0.333   0.337   0.345   0.346   0.352   0.360   0.367   0.371
  0.386   0.388   0.393   0.405   0.407   0.409   0.414   0.416
  0.418   0.419   0.421   0.425   0.426   0.430   0.430   0.437
  0.437   0.439   0.441   0.442   0.447   0.451   0.453   0.467
  0.469   0.472   0.478   0.492   0.493   0.510   0.514   0.542
  0.543   0.556   0.558   0.642   0.648   0.661   0.669
 --------------------------------------------------------------
 
          Ground-State Mulliken Net Atomic Charges

     Atom                 Charge (a.u.)
  ----------------------------------------
      1 O                    -0.215849
      2 C                     0.216449
      3 C                    -0.079718
      4 C                    -0.075808
      5 C                     0.224725
      6 O                    -0.176631
      7 C                    -0.050538
      8 C                    -0.045507
      9 O                    -0.181033
     10 C                     0.218326
     11 C                    -0.076416
     12 C                    -0.077964
     13 C                     0.210990
     14 O                    -0.213372
     15 O                    -0.178012
     16 O                    -0.170781
     17 O                    -0.199488
     18 C                    -0.131569
     19 C                     0.026843
     20 C                    -0.144442
     21 C                    -0.144182
     22 C                     0.023913
     23 O                    -0.187496
     24 H                     0.083732
     25 H                     0.084446
     26 H                     0.082678
     27 H                     0.076789
     28 H                     0.073433
     29 H                     0.077047
     30 H                     0.072187
     31 H                     0.088700
     32 O                    -0.204366
     33 C                    -0.129258
     34 C                     0.024238
     35 C                    -0.142239
     36 C                    -0.145204
     37 C                     0.024583
     38 O                    -0.188063
     39 H                     0.082358
     40 H                     0.087029
     41 H                     0.088449
     42 H                     0.091000
     43 H                     0.077614
     44 H                     0.072361
     45 H                     0.077422
     46 H                     0.072583
     47 H                     0.082176
     48 H                     0.089234
     49 H                     0.085653
     50 H                     0.091196
     51 H                     0.086204
     52 H                     0.092544
     53 H                     0.095859
     54 H                     0.095913
     55 H                     0.091760
     56 H                     0.089502
  ----------------------------------------
  Sum of atomic charges =    -0.000000

 -----------------------------------------------------------------
                    Cartesian Multipole Moments
 -----------------------------------------------------------------
    Charge (ESU x 10^10)
                -0.0000
    Dipole Moment (Debye)
         X      -0.2687      Y      -1.4518      Z      -1.5030
       Tot       2.1069
    Quadrupole Moments (Debye-Ang)
        XX    -148.7198     XY       5.2431     YY    -153.4561
        XZ      14.0370     YZ      -1.8927     ZZ    -160.0787
    Octopole Moments (Debye-Ang^2)
       XXX     -55.2921    XXY     -13.9120    XYY      14.9101
       YYY     -24.7298    XXZ      44.0815    XYZ      11.5320
       YYZ     -14.9052    XZZ       6.8072    YZZ       7.3030
       ZZZ     -18.6289
    Hexadecapole Moments (Debye-Ang^3)
      XXXX  -12966.3312   XXXY     264.5581   XXYY   -2804.1580
      XYYY     120.8017   YYYY   -2901.9125   XXXZ     137.4468
      XXYZ     -52.6912   XYYZ      35.6989   YYYZ     -62.0470
      XXZZ   -2518.5677   XYZZ      42.3746   YYZZ    -744.5912
      XZZZ     -92.3857   YZZZ      17.8176   ZZZZ   -1367.5672
 -----------------------------------------------------------------
 Calculating analytic gradient of the SCF energy
 Gradient of SCF Energy
            1           2           3           4           5           6
    1  -0.0052931   0.0062269   0.0007373  -0.0032052   0.0025184   0.0017094
    2   0.0028848  -0.0040565  -0.0004555   0.0047661  -0.0118444   0.0082674
    3  -0.0033508   0.0026898   0.0059331  -0.0093683   0.0143293   0.0022965
            7           8           9          10          11          12
    1  -0.0029915   0.0091024  -0.0097058  -0.0026661   0.0010110  -0.0000133
    2   0.0005664  -0.0045655  -0.0028406   0.0106315  -0.0040533  -0.0008636
    3  -0.0088715  -0.0110514   0.0098104   0.0019369  -0.0012861   0.0001296
           13          14          15          16          17          18
    1  -0.0010200   0.0007692   0.0006752  -0.0000407   0.0117082   0.0003657
    2   0.0007962  -0.0007164   0.0002931   0.0000016  -0.0024340  -0.0004914
    3  -0.0006801   0.0006627  -0.0003375  -0.0001284   0.0065112   0.0005982
           19          20          21          22          23          24
    1   0.0008351  -0.0000246   0.0003133  -0.0006296   0.0001028   0.0000736
    2   0.0000428  -0.0000175   0.0002194   0.0001462   0.0000044   0.0001941
    3  -0.0000431  -0.0000788  -0.0000200   0.0001152   0.0001145   0.0000429
           25          26          27          28          29          30
    1   0.0000952   0.0000517  -0.0000102   0.0000479  -0.0000255  -0.0001527
    2   0.0002986   0.0000541  -0.0000080   0.0000423  -0.0000101  -0.0001648
    3  -0.0000198  -0.0000863   0.0000861   0.0000434   0.0000519   0.0000783
           31          32          33          34          35          36
    1  -0.0000616  -0.0099165   0.0000020   0.0005616  -0.0001842  -0.0002562
    2  -0.0000164   0.0019869  -0.0001227   0.0001654  -0.0004131  -0.0002245
    3   0.0000034  -0.0077240   0.0000697  -0.0003424  -0.0000896   0.0002867
           37          38          39          40          41          42
    1  -0.0007438   0.0000419  -0.0002173   0.0001368   0.0000360   0.0000436
    2  -0.0001040   0.0001064   0.0002076   0.0003255   0.0000379   0.0000192
    3  -0.0002557   0.0001567   0.0002401   0.0001693  -0.0000288  -0.0000001
           43          44          45          46          47          48
    1  -0.0000692   0.0001046  -0.0000085   0.0000499  -0.0000448  -0.0000402
    2   0.0000264   0.0000755   0.0000655   0.0000160   0.0000130   0.0000396
    3  -0.0000120  -0.0000356   0.0000286  -0.0000735   0.0000088   0.0000107
           49          50          51          52          53          54
    1   0.0000075   0.0000862   0.0000475   0.0003623   0.0016336  -0.0017393
    2   0.0000321  -0.0000653  -0.0000157  -0.0005407  -0.0000696  -0.0001054
    3  -0.0000017  -0.0000200   0.0000104   0.0000300   0.0015312  -0.0026599
           55          56
    1  -0.0026004   0.0022035
    2   0.0002207   0.0016522
    3   0.0003916  -0.0018019
 Max gradient component =       1.433E-02
 RMS gradient           =       3.219E-03
 Gradient time:  CPU 32.49 s  wall 0.68 s
 Geometry Optimization Parameters
   NAtoms,    NIC,     NZ,  NCons,   NDum,   NFix, NCnnct, MaxDiis
       56     458       0       0       0       0       0       0

 Cartesian Hessian Update
 Hessian Updated using BFGS Update


** GEOMETRY OPTIMIZATION IN DELOCALIZED INTERNAL COORDINATES **
   Searching for a Minimum

   Optimization Cycle:   2

                       Coordinates (Angstroms)
     ATOM                X               Y               Z
      1  O        -3.7374160893    3.0214650333    0.5886648549
      2  C        -3.6741008417    2.0620020152   -0.2092208386
      3  C        -4.4066074478    0.6788308530   -0.0771136702
      4  C        -3.6120839870   -0.5730329849   -0.6147005815
      5  C        -2.0629407736   -0.2805773420   -0.6720846699
      6  O        -1.5256086115   -1.1551594640   -1.6568154244
      7  C        -0.0771807718   -1.1666608482   -1.9771491562
      8  C         0.7908668534    0.1569834514   -1.8993490517
      9  O         1.8276342021    0.2685488485   -0.8467401882
     10  C         1.6556388475    0.0765945195    0.5546680769
     11  C         3.0716254577    0.4018111470    1.1710733994
     12  C         4.2082280466   -0.6486843686    0.8113112272
     13  C         3.7877986005   -1.8428638164   -0.1160472553
     14  O         4.3627225821   -2.2283890698   -1.1563036165
     15  O        -3.1339131474    2.1650513284   -1.5399407290
     16  O         2.6617738578   -2.5070628981    0.4727146635
     17  O         0.7008112445   -0.3933857635    1.2006852983
     18  C         2.3607260699   -3.7599192867   -0.2578100964
     19  C         3.7197148525    1.7333555162    0.5929136190
     20  C         4.8856095385    2.1837222431    1.5604784364
     21  C         6.0062658696    1.1409835739    1.1936241498
     22  C         5.2699851778    0.2820573848    0.0919480911
     23  O         4.4341907650    1.2755672546   -0.6196636918
     24  H         2.9345768157    0.4610306611    2.2653524568
     25  H         4.6212728433   -1.0880219743    1.7387485969
     26  H         2.9888792068    2.5244421913    0.3368014281
     27  H         5.2007669553    3.2137106932    1.3297538853
     28  H         4.5880564903    2.1348570843    2.6201863103
     29  H         6.8941848904    1.6350329996    0.7680791818
     30  H         6.3202605362    0.5313607988    2.0559714920
     31  H         5.9227343796   -0.2573998229   -0.6218918791
     32  O        -1.4987198731    0.6834396627   -0.1180968550
     33  C        -2.4541865728    3.4672701255   -1.7056046479
     34  C        -4.7311864033    0.2358105155    1.4116008011
     35  C        -6.0091975438   -0.6871550463    1.3507455628
     36  C        -5.4113558112   -1.9641450141    0.6485928839
     37  C        -3.8754756787   -1.5924757466    0.5775407599
     38  O        -3.6570259498   -0.7242732682    1.7596219581
     39  H        -5.3507996089    0.7844768477   -0.6449795742
     40  H        -3.9648034079   -0.9364355537   -1.5948904754
     41  H        -1.5437874629    3.5282284564   -1.0740580958
     42  H        -4.7635366446    1.0711297484    2.1381996791
     43  H        -6.3650100575   -0.9181860613    2.3676490474
     44  H        -6.8339125690   -0.2300829966    0.7810078363
     45  H        -5.5622990476   -2.8710977914    1.2551033118
     46  H        -5.8377408051   -2.1354416016   -0.3531642094
     47  H        -3.1828099890   -2.4562770758    0.5963667557
     48  H        -3.1196260764    4.3156747627   -1.4458574499
     49  H        -2.1671709306    3.5321117607   -2.7714570931
     50  H         1.3258646132   -4.0409862952    0.0118820107
     51  H         3.0516501312   -4.5712841181    0.0518273834
     52  H         2.4490383169   -3.6276198119   -1.3548109769
     53  H         1.4134364994    0.2045689953   -2.8167396000
     54  H         0.1093285892    1.0384981590   -1.8985357217
     55  H        -0.0795829519   -1.5158339135   -3.0304056069
     56  H         0.4393227698   -1.9403952256   -1.3670954721
   Point Group: c1    Number of degrees of freedom:   162


   Energy is  -1510.254278481

 Hessian Updated using BFGS Update

149 Hessian modes will be used to form the next step
  Hessian Eigenvalues:
     0.001961    0.002422    0.002681    0.002780    0.004334    0.004752
     0.004911    0.005289    0.005733    0.005996    0.006470    0.006779
     0.006822    0.008523    0.010375    0.011125    0.012496    0.021539
     0.021688    0.025370    0.025690    0.026183    0.030761    0.030780
     0.035169    0.035519    0.037461    0.038894    0.040606    0.041252
     0.042157    0.045158    0.045547    0.047271    0.047654    0.050998
     0.051138    0.053001    0.053820    0.054359    0.054635    0.054969
     0.055736    0.056251    0.056793    0.057822    0.060391    0.060652
     0.060962    0.062380    0.063201    0.063817    0.064082    0.064478
     0.069810    0.070190    0.072856    0.073328    0.090821    0.092680
     0.092725    0.093554    0.095711    0.096909    0.096978    0.097297
     0.102252    0.102606    0.110638    0.110878    0.120398    0.122207
     0.122490    0.123402    0.126714    0.143777    0.157200    0.158432
     0.159997    0.160008    0.163731    0.164313    0.218237    0.221413
     0.221714    0.225418    0.226640    0.231529    0.238254    0.238336
     0.239449    0.239489    0.244600    0.245298    0.246394    0.246847
     0.247124    0.248951    0.249503    0.249835    0.252853    0.253038
     0.253897    0.254423    0.259683    0.260628    0.291107    0.293113
     0.306447    0.307495    0.321452    0.323360    0.326255    0.326293
     0.326320    0.326437    0.326930    0.327619    0.328563    0.328643
     0.328806    0.329178    0.329536    0.330051    0.330541    0.330575
     0.332002    0.333299    0.334507    0.334783    0.334857    0.334910
     0.334989    0.335025    0.335138    0.335269    0.339318    0.342614
     0.344384    0.347657    0.396053    0.404460    0.416293    0.420919
     0.809012    0.834203    0.834282    0.848774    0.918963

 Minimum Search - Taking Simple RFO Step
 Searching for Lamda that Minimizes Along All modes
 Value Taken    Lamda =  -0.02719033
 Calculated Step too Large.  Step scaled by  0.459261
 Step Taken.  Stepsize is  0.300000

                             Maximum     Tolerance    Cnvgd?
         Gradient           0.064461      0.000300      NO
         Displacement       0.106093      0.001200      NO
         Energy change     -0.005634      0.000001      NO


 New Cartesian Coordinates Obtained by Inverse Iteration

 Displacement from previous Coordinates is:  4.847275
 Adding empirical dispersion correction 
 ----------------------------------------------------------------
 Doing -D3(op) with
 s6 =   1.00000
 s8 =   0.78311
 a1 =   0.30000
 a2 =   4.25000
 n  =  10.00000
 -D3 energy without 3body term =     -0.0702222603 hartrees
 ----------------------------------------------------------------
             Standard Nuclear Orientation (Angstroms)
    I     Atom           X                Y                Z
 ----------------------------------------------------------------
    1      O      -3.5053632183     3.1163131918     0.4171320402
    2      C      -3.5796565994     2.1279897431    -0.3435819357
    3      C      -4.2883034401     0.7581926510    -0.0456595658
    4      C      -3.5446104265    -0.5279900702    -0.5774827362
    5      C      -2.0140395966    -0.2379631359    -0.8244233454
    6      O      -1.5528924978    -1.2103210868    -1.7537550217
    7      C      -0.1078580050    -1.2633047062    -2.0667119674
    8      C       0.7552341461     0.0623508447    -1.9979179924
    9      O       1.7926289123     0.1410295744    -0.9525276159
   10      C       1.5370465806    -0.1613393817     0.4136485607
   11      C       2.8629911204     0.2306420078     1.1737063759
   12      C       4.1038629043    -0.7039027546     0.8430917971
   13      C       3.8450614555    -1.8464231308    -0.2006417306
   14      O       4.5148843743    -2.1000342225    -1.2245248504
   15      O      -3.2047633304     2.1541125920    -1.7333569858
   16      O       2.7165511753    -2.6171245673     0.2330432371
   17      O       0.5453310179    -0.7074296649     0.9338539119
   18      C       2.5316779016    -3.7986471239    -0.6405509708
   19      C       3.4462214110     1.6438128465     0.7386704170
   20      C       4.4912217675     2.1104948731     1.8291507350
   21      C       5.7177230042     1.1823485945     1.4931605751
   22      C       5.1430882461     0.3513500424     0.2796151912
   23      O       4.2905181909     1.3280601202    -0.4350479424
   24      H       2.6314342194     0.2042746111     2.2532473753
   25      H       4.4750758852    -1.1816149555     1.7693432836
   26      H       2.6770042865     2.3938588935     0.4716804184
   27      H       4.7404260541     3.1747945056     1.6923979285
   28      H       4.1144418563     1.9650845204     2.8542119768
   29      H       6.5944210624     1.7699723035     1.1773912274
   30      H       6.0097618045     0.5386783137     2.3382662336
   31      H       5.8910976869    -0.0859728585    -0.4103019703
   32      O      -1.3724701732     0.7258061275    -0.3580592789
   33      C      -2.5233587096     3.4281047707    -2.0460642191
   34      C      -4.4389186899     0.4151139409     1.4974977777
   35      C      -5.7078139029    -0.5103325182     1.6427166673
   36      C      -5.1811753827    -1.8319769882     0.9660121817
   37      C      -3.6656552806    -1.4651447303     0.7008323596
   38      O      -3.3250968375    -0.5182086346     1.7889123306
   39      H      -5.2925525531     0.8285497488    -0.5060278271
   40      H      -3.9993108740    -0.9575090086    -1.4866128866
   41      H      -1.5413973688     3.4939446427    -1.5335200221
   42      H      -4.3964209598     1.2976601939     2.1653537939
   43      H      -5.9459440630    -0.6721872180     2.7062725511
   44      H      -6.5947989885    -0.0935180922     1.1394859006
   45      H      -5.2565823289    -2.6959005616     1.6451917871
   46      H      -5.7146682365    -2.0712180172     0.0317789716
   47      H      -2.9675748336    -2.3248255857     0.7010804689
   48      H      -3.1337441390     4.3056558265    -1.7506843198
   49      H      -2.3679527670     3.4341284834    -3.1408046742
   50      H       1.4971292944    -4.1528080725    -0.4761723937
   51      H       3.2419356287    -4.6061182146    -0.3666112320
   52      H       2.6854681413    -3.5463007711    -1.7089306338
   53      H       1.3764664886     0.1204177939    -2.9158544633
   54      H       0.0728772660     0.9423566193    -1.9827018274
   55      H      -0.1146037326    -1.6302975441    -3.1141568949
   56      H       0.4008310017    -2.0309152893    -1.4414742406
 ----------------------------------------------------------------
 Molecular Point Group                 C1    NOp =  1
 Largest Abelian Subgroup              C1    NOp =  1
 Nuclear Repulsion Energy =  3208.1947930962 hartrees
 There are      113 alpha and      113 beta electrons
 Applying Cartesian multipole field
    Component          Value
    ---------          -----
     (2,0,0)        1.00000E-12
     (0,2,0)        2.00000E-11
     (0,0,2)       -3.00000E-11
 Nucleus-field energy     =     0.0000000209 hartrees
 Requested basis set is STO-3G
 There are 86 shells and 176 basis functions
 A cutoff of  1.0D-12 yielded   2226 shell pairs
 There are     10665 function pairs
 Smallest overlap matrix eigenvalue = 2.13E-01
 Guess MOs from SCF MO coefficient file
 Reading MOs from coefficient file
 Reading MOs from coefficient file
 A restricted hybrid HF-DFT SCF calculation will be
 performed using Pulay DIIS extrapolation
 Exchange:     0.2000 Hartree-Fock + 0.0800 Slater + 0.7200 B88
 Correlation:  0.1900 VWN1RPA + 0.8100 LYP
 Using SG-1 standard quadrature grid
 Dispersion:   Grimme D3
 SCF converges when DIIS error is below 1.0E-08
 Geometry optimization detected.  Setting ReadMinima to 0
 Setting SaveMinima to 0
 using 48 threads for integral computing
 -------------------------------------------------------
 OpenMP Integral computing Module                
 Release: version 1.0, May 2013, Q-Chem Inc. Pittsburgh 
 -------------------------------------------------------
 -------------------------------------------------------
 OpenMP BLAS3 based DFT computing Module                
 Release: version 1.0, May 2013, Q-Chem Inc. Pittsburgh 
 -------------------------------------------------------
 ---------------------------------------
  Cycle       Energy         DIIS Error
 ---------------------------------------
    1   -1510.0631172091      6.85E-03
    2   -1510.2597555623      8.37E-04
    3   -1510.2545043658      1.43E-03
    4   -1510.2633013646      3.63E-04
    5   -1510.2638683364      9.75E-05
    6   -1510.2639092224      2.92E-05
    7   -1510.2639124789      1.47E-05
    8   -1510.2639133506      4.81E-06
    9   -1510.2639134627      7.12E-07
   10   -1510.2639134654      3.06E-07
   11   -1510.2639134659      1.54E-07
   12   -1510.2639134660      6.99E-08
   13   -1510.2639134662      2.18E-08
   14   -1510.2639134662      2.58E-09 Convergence criterion met
 ---------------------------------------
 SCF time:  CPU 98.19 s  wall 2.05 s
 SCF   energy in the final basis set = -1510.26391347
 Total energy in the final basis set = -1510.26391347
 
 --------------------------------------------------------------
 
                    Orbital Energies (a.u.)
 --------------------------------------------------------------
 
 Alpha MOs
 -- Occupied --
-18.936 -18.935 -18.924 -18.922 -18.881 -18.881 -18.876 -18.876
-18.870 -18.866 -10.103 -10.099 -10.097 -10.092 -10.078 -10.075
-10.066 -10.058 -10.056 -10.054 -10.053 -10.052 -10.034 -10.034
-10.031 -10.029 -10.018 -10.016 -10.016 -10.014  -1.014  -1.012
 -1.001  -0.997  -0.965  -0.964  -0.942  -0.937  -0.934  -0.927
 -0.760  -0.758  -0.727  -0.718  -0.711  -0.700  -0.693  -0.664
 -0.656  -0.625  -0.594  -0.584  -0.543  -0.540  -0.534  -0.532
 -0.510  -0.506  -0.480  -0.475  -0.463  -0.455  -0.448  -0.440
 -0.433  -0.427  -0.427  -0.415  -0.407  -0.405  -0.404  -0.396
 -0.385  -0.376  -0.375  -0.366  -0.360  -0.356  -0.350  -0.347
 -0.344  -0.343  -0.334  -0.327  -0.326  -0.323  -0.321  -0.308
 -0.306  -0.301  -0.300  -0.297  -0.290  -0.285  -0.280  -0.273
 -0.270  -0.256  -0.250  -0.247  -0.229  -0.228  -0.223  -0.182
 -0.177  -0.173  -0.166  -0.156  -0.150  -0.145  -0.140  -0.138
 -0.136
 -- Virtual --
  0.097   0.098   0.112   0.116   0.223   0.234   0.236   0.249
  0.266   0.267   0.285   0.291   0.302   0.308   0.323   0.333
  0.334   0.337   0.345   0.347   0.353   0.361   0.368   0.372
  0.385   0.389   0.393   0.405   0.407   0.409   0.413   0.416
  0.419   0.419   0.422   0.424   0.426   0.429   0.431   0.437
  0.438   0.440   0.441   0.442   0.448   0.452   0.453   0.469
  0.471   0.473   0.479   0.491   0.494   0.511   0.514   0.542
  0.543   0.556   0.558   0.642   0.648   0.659   0.667
 --------------------------------------------------------------
 
          Ground-State Mulliken Net Atomic Charges

     Atom                 Charge (a.u.)
  ----------------------------------------
      1 O                    -0.214974
      2 C                     0.215653
      3 C                    -0.079979
      4 C                    -0.075804
      5 C                     0.226885
      6 O                    -0.174870
      7 C                    -0.050454
      8 C                    -0.047063
      9 O                    -0.178323
     10 C                     0.219005
     11 C                    -0.077188
     12 C                    -0.078303
     13 C                     0.211417
     14 O                    -0.212563
     15 O                    -0.177698
     16 O                    -0.171282
     17 O                    -0.205082
     18 C                    -0.131349
     19 C                     0.026767
     20 C                    -0.144258
     21 C                    -0.144203
     22 C                     0.024028
     23 O                    -0.187379
     24 H                     0.084009
     25 H                     0.084163
     26 H                     0.083688
     27 H                     0.076976
     28 H                     0.073559
     29 H                     0.077034
     30 H                     0.072121
     31 H                     0.088675
     32 O                    -0.209077
     33 C                    -0.129217
     34 C                     0.024069
     35 C                    -0.142297
     36 C                    -0.145065
     37 C                     0.024931
     38 O                    -0.187245
     39 H                     0.082158
     40 H                     0.086593
     41 H                     0.088280
     42 H                     0.090614
     43 H                     0.077577
     44 H                     0.072181
     45 H                     0.077666
     46 H                     0.072676
     47 H                     0.084148
     48 H                     0.089416
     49 H                     0.086420
     50 H                     0.090386
     51 H                     0.086337
     52 H                     0.093126
     53 H                     0.092297
     54 H                     0.100031
     55 H                     0.089766
     56 H                     0.091019
  ----------------------------------------
  Sum of atomic charges =    -0.000000

 -----------------------------------------------------------------
                    Cartesian Multipole Moments
 -----------------------------------------------------------------
    Charge (ESU x 10^10)
                 0.0000
    Dipole Moment (Debye)
         X      -0.6690      Y      -1.5864      Z      -1.1659
       Tot       2.0793
    Quadrupole Moments (Debye-Ang)
        XX    -149.8393     XY       3.3261     YY    -154.2337
        XZ      12.4532     YZ      -1.2467     ZZ    -157.7590
    Octopole Moments (Debye-Ang^2)
       XXX     -72.7786    XXY     -12.3282    XYY      14.1924
       YYY     -28.7407    XXZ      53.8993    XYZ      13.7174
       YYZ     -17.1679    XZZ       3.9772    YZZ       8.2388
       ZZZ      -9.4187
    Hexadecapole Moments (Debye-Ang^3)
      XXXX  -12147.2285   XXXY     392.2891   XXYY   -2626.9360
      XYYY     263.5194   YYYY   -2898.7392   XXXZ      99.9729
      XXYZ     -56.4525   XYYZ      18.4565   YYYZ     -70.9122
      XXZZ   -2397.8560   XYZZ      89.0755   YYZZ    -767.8465
      XZZZ    -112.1371   YZZZ     -19.4462   ZZZZ   -1612.0946
 -----------------------------------------------------------------
 Calculating analytic gradient of the SCF energy
 Gradient of SCF Energy
            1           2           3           4           5           6
    1  -0.0040440   0.0030084   0.0019214  -0.0031815   0.0031870   0.0027378
    2   0.0023193  -0.0024200   0.0002901   0.0003109  -0.0045028   0.0060541
    3  -0.0014604   0.0003948   0.0036216  -0.0039922   0.0053521  -0.0020625
            7           8           9          10          11          12
    1  -0.0036196   0.0033017  -0.0074855  -0.0028236   0.0019557  -0.0008153
    2  -0.0006535  -0.0002086  -0.0047989   0.0035623  -0.0003928  -0.0002132
    3  -0.0012736  -0.0003122   0.0050426  -0.0016694  -0.0012677  -0.0009280
           13          14          15          16          17          18
    1  -0.0003069   0.0001798   0.0007880  -0.0002546   0.0083500   0.0001932
    2  -0.0005586  -0.0003389   0.0009209   0.0004325  -0.0011537  -0.0004383
    3   0.0008840  -0.0001215  -0.0012295  -0.0003483   0.0052369   0.0004752
           19          20          21          22          23          24
    1   0.0011166   0.0001241  -0.0000077  -0.0003143   0.0004040  -0.0002033
    2  -0.0003002   0.0002577   0.0000411   0.0000484   0.0002934   0.0004185
    3   0.0006806  -0.0002122   0.0003595  -0.0003990   0.0001352   0.0000675
           25          26          27          28          29          30
    1  -0.0000077   0.0000935   0.0000850  -0.0000541   0.0000132  -0.0001512
    2  -0.0000354  -0.0000534  -0.0000136  -0.0000058   0.0000621  -0.0000943
    3   0.0001806  -0.0000570   0.0000300   0.0000129   0.0000152  -0.0000057
           31          32          33          34          35          36
    1  -0.0000434  -0.0024830   0.0000943   0.0005339   0.0001996   0.0001856
    2   0.0000346  -0.0002016  -0.0001674  -0.0011438   0.0004260  -0.0002173
    3  -0.0001728  -0.0053189   0.0001075  -0.0008233   0.0003070   0.0003776
           37          38          39          40          41          42
    1  -0.0017758   0.0002331  -0.0006373   0.0000399  -0.0000910   0.0001566
    2  -0.0003078  -0.0005135   0.0006992   0.0005089  -0.0001193   0.0000760
    3  -0.0003290  -0.0001112   0.0008275  -0.0000198  -0.0000609   0.0000756
           43          44          45          46          47          48
    1  -0.0001066   0.0000863  -0.0000946   0.0000438  -0.0001420  -0.0000241
    2   0.0000118   0.0000551  -0.0000683  -0.0001588  -0.0000156   0.0000060
    3   0.0000010   0.0000214   0.0000435   0.0000374   0.0000802   0.0000235
           49          50          51          52          53          54
    1  -0.0000169  -0.0000162   0.0000897   0.0004388   0.0026761  -0.0032538
    2   0.0000298   0.0000052   0.0000124  -0.0003256   0.0005031   0.0006365
    3  -0.0000416  -0.0000313   0.0000678   0.0000410   0.0024550  -0.0035442
           55          56
    1  -0.0039932   0.0037099
    2   0.0002498   0.0011555
    3   0.0004613  -0.0016236
 Max gradient component =       8.350E-03
 RMS gradient           =       1.845E-03
 Gradient time:  CPU 30.44 s  wall 0.64 s
 Geometry Optimization Parameters
   NAtoms,    NIC,     NZ,  NCons,   NDum,   NFix, NCnnct, MaxDiis
       56     458       0       0       0       0       0       0

 Cartesian Hessian Update
 Hessian Updated using BFGS Update


** GEOMETRY OPTIMIZATION IN DELOCALIZED INTERNAL COORDINATES **
   Searching for a Minimum

   Optimization Cycle:   3

                       Coordinates (Angstroms)
     ATOM                X               Y               Z
      1  O        -3.5053632183    3.1163131918    0.4171320402
      2  C        -3.5796565994    2.1279897431   -0.3435819357
      3  C        -4.2883034401    0.7581926510   -0.0456595658
      4  C        -3.5446104265   -0.5279900702   -0.5774827362
      5  C        -2.0140395966   -0.2379631359   -0.8244233454
      6  O        -1.5528924978   -1.2103210868   -1.7537550217
      7  C        -0.1078580050   -1.2633047062   -2.0667119674
      8  C         0.7552341461    0.0623508447   -1.9979179924
      9  O         1.7926289123    0.1410295744   -0.9525276159
     10  C         1.5370465806   -0.1613393817    0.4136485607
     11  C         2.8629911204    0.2306420078    1.1737063759
     12  C         4.1038629043   -0.7039027546    0.8430917971
     13  C         3.8450614555   -1.8464231308   -0.2006417306
     14  O         4.5148843743   -2.1000342225   -1.2245248504
     15  O        -3.2047633304    2.1541125920   -1.7333569858
     16  O         2.7165511753   -2.6171245673    0.2330432371
     17  O         0.5453310179   -0.7074296649    0.9338539119
     18  C         2.5316779016   -3.7986471239   -0.6405509708
     19  C         3.4462214110    1.6438128465    0.7386704170
     20  C         4.4912217675    2.1104948731    1.8291507350
     21  C         5.7177230042    1.1823485945    1.4931605751
     22  C         5.1430882461    0.3513500424    0.2796151912
     23  O         4.2905181909    1.3280601202   -0.4350479424
     24  H         2.6314342194    0.2042746111    2.2532473753
     25  H         4.4750758852   -1.1816149555    1.7693432836
     26  H         2.6770042865    2.3938588935    0.4716804184
     27  H         4.7404260541    3.1747945056    1.6923979285
     28  H         4.1144418563    1.9650845204    2.8542119768
     29  H         6.5944210624    1.7699723035    1.1773912274
     30  H         6.0097618045    0.5386783137    2.3382662336
     31  H         5.8910976869   -0.0859728585   -0.4103019703
     32  O        -1.3724701732    0.7258061275   -0.3580592789
     33  C        -2.5233587096    3.4281047707   -2.0460642191
     34  C        -4.4389186899    0.4151139409    1.4974977777
     35  C        -5.7078139029   -0.5103325182    1.6427166673
     36  C        -5.1811753827   -1.8319769882    0.9660121817
     37  C        -3.6656552806   -1.4651447303    0.7008323596
     38  O        -3.3250968375   -0.5182086346    1.7889123306
     39  H        -5.2925525531    0.8285497488   -0.5060278271
     40  H        -3.9993108740   -0.9575090086   -1.4866128866
     41  H        -1.5413973688    3.4939446427   -1.5335200221
     42  H        -4.3964209598    1.2976601939    2.1653537939
     43  H        -5.9459440630   -0.6721872180    2.7062725511
     44  H        -6.5947989885   -0.0935180922    1.1394859006
     45  H        -5.2565823289   -2.6959005616    1.6451917871
     46  H        -5.7146682365   -2.0712180172    0.0317789716
     47  H        -2.9675748336   -2.3248255857    0.7010804689
     48  H        -3.1337441390    4.3056558265   -1.7506843198
     49  H        -2.3679527670    3.4341284834   -3.1408046742
     50  H         1.4971292944   -4.1528080725   -0.4761723937
     51  H         3.2419356287   -4.6061182146   -0.3666112320
     52  H         2.6854681413   -3.5463007711   -1.7089306338
     53  H         1.3764664886    0.1204177939   -2.9158544633
     54  H         0.0728772660    0.9423566193   -1.9827018274
     55  H        -0.1146037326   -1.6302975441   -3.1141568949
     56  H         0.4008310017   -2.0309152893   -1.4414742406
   Point Group: c1    Number of degrees of freedom:   162


   Energy is  -1510.263913466

 Hessian Updated using BFGS Update

152 Hessian modes will be used to form the next step
  Hessian Eigenvalues:
     0.001980    0.002076    0.002428    0.002683    0.002771    0.004416
     0.004646    0.004910    0.005289    0.005882    0.006102    0.006735
     0.006818    0.007835    0.009645    0.010377    0.011300    0.012479
     0.021528    0.021704    0.025492    0.025572    0.026049    0.030761
     0.030789    0.035196    0.035513    0.037253    0.038819    0.040595
     0.041255    0.042161    0.045151    0.045401    0.047392    0.047922
     0.050936    0.051146    0.052908    0.053893    0.054452    0.054636
     0.054925    0.056240    0.056666    0.057034    0.057849    0.060278
     0.060712    0.060943    0.063195    0.063811    0.064082    0.064477
     0.068503    0.070024    0.070296    0.072862    0.073383    0.090836
     0.092678    0.092730    0.093577    0.095710    0.096909    0.097033
     0.097305    0.102252    0.102606    0.110797    0.110943    0.120986
     0.122386    0.122548    0.123490    0.136035    0.144373    0.157290
     0.158489    0.159998    0.160006    0.160012    0.164041    0.164523
     0.218255    0.221411    0.223310    0.226465    0.226891    0.231617
     0.238258    0.238336    0.239448    0.239497    0.245245    0.245304
     0.246394    0.246865    0.247124    0.248957    0.249502    0.249851
     0.252847    0.253037    0.253877    0.254369    0.259664    0.260627
     0.291013    0.292976    0.303870    0.306676    0.307527    0.322388
     0.323597    0.326256    0.326296    0.326346    0.326451    0.326930
     0.327619    0.328565    0.328645    0.328806    0.329180    0.329551
     0.330065    0.330541    0.330576    0.332004    0.333298    0.334507
     0.334783    0.334857    0.334910    0.334989    0.335025    0.335138
     0.335269    0.341295    0.344383    0.347598    0.350127    0.396285
     0.404468    0.416078    0.423129    0.703568    0.834208    0.834299
     0.848989    0.855505

 Minimum Search - Taking Simple RFO Step
 Searching for Lamda that Minimizes Along All modes
 Value Taken    Lamda =  -0.01612251
 Calculated Step too Large.  Step scaled by  0.499660
 Step Taken.  Stepsize is  0.300000

                             Maximum     Tolerance    Cnvgd?
         Gradient           0.031366      0.000300      NO
         Displacement       0.096577      0.001200      NO
         Energy change     -0.009635      0.000001      NO


 New Cartesian Coordinates Obtained by Inverse Iteration

 Displacement from previous Coordinates is:  4.335451
 Adding empirical dispersion correction 
 ----------------------------------------------------------------
 Doing -D3(op) with
 s6 =   1.00000
 s8 =   0.78311
 a1 =   0.30000
 a2 =   4.25000
 n  =  10.00000
 -D3 energy without 3body term =     -0.0710144807 hartrees
 ----------------------------------------------------------------
             Standard Nuclear Orientation (Angstroms)
    I     Atom           X                Y                Z
 ----------------------------------------------------------------
    1      O      -3.3215253081     3.1765349915     0.2705190148
    2      C      -3.4876582060     2.1567308326    -0.4312910876
    3      C      -4.2212484001     0.8316780161    -0.0194576259
    4      C      -3.5068288307    -0.5015324213    -0.4684672616
    5      C      -1.9911337729    -0.2455830298    -0.8055681579
    6      O      -1.5773892993    -1.3033578819    -1.6675512534
    7      C      -0.1419902065    -1.3971639087    -2.0289529707
    8      C       0.7342328429    -0.0786801565    -2.0880061289
    9      O       1.8045495881     0.0193127559    -1.0840679790
   10      C       1.4837153872    -0.3623677607     0.2479300049
   11      C       2.7136471585     0.0697693154     1.1325390562
   12      C       4.0497160589    -0.7301442718     0.8193972983
   13      C       3.9516535511    -1.7839379157    -0.3386122504
   14      O       4.6985394602    -1.8816605457    -1.3354152209
   15      O      -3.1558930033     2.0743640373    -1.8284232560
   16      O       2.8673837132    -2.6783438942    -0.0549851760
   17      O       0.4795141193    -0.9893262875     0.6413862773
   18      C       2.8078283822    -3.7565420818    -1.0684271158
   19      C       3.1979142986     1.5558842971     0.8460129400
   20      C       4.1253675456     2.0167167955     2.0408708363
   21      C       5.4485530293     1.2235839730     1.7245840572
   22      C       5.0277954515     0.4487516185     0.4153021561
   23      O       4.1408777768     1.4057194320    -0.2840791855
   24      H       2.4126239650    -0.0600703398     2.1870551632
   25      H       4.4015658277    -1.2559017105     1.7267282583
   26      H       2.3849275492     2.2592127100     0.5810366639
   27      H       4.2879589926     3.1055870394     2.0023269742
   28      H       3.6975705701     1.7584036583     3.0227106382
   29      H       6.2885987857     1.9050220857     1.5161505892
   30      H       5.7417410671     0.5406110195     2.5378737922
   31      H       5.8533415141     0.1315153731    -0.2513709145
   32      O      -1.3283526201     0.7504266521    -0.4455364005
   33      C      -2.4294206570     3.2927150587    -2.2453342589
   34      C      -4.3265762967     0.6147132149     1.5506964219
   35      C      -5.5918446763    -0.2915104154     1.8087490186
   36      C      -5.0867562673    -1.6657358632     1.2273106371
   37      C      -3.5795282117    -1.3274647932     0.8865289533
   38      O      -3.2049047868    -0.2952829355     1.8818941399
   39      H      -5.2377761187     0.8823775762    -0.4541971507
   40      H      -3.9987740852    -1.0025333770    -1.3200758359
   41      H      -1.4306481860     3.3489068156    -1.7648465263
   42      H      -4.2603702065     1.5479585779     2.1432361617
   43      H      -5.7972382969    -0.3654767306     2.8887276708
   44      H      -6.4935544942     0.0858195770     1.3004121138
   45      H      -5.1416949833    -2.4708829367     1.9768823492
   46      H      -5.6491971005    -1.9782377199     0.3324842427
   47      H      -2.8822208346    -2.1866020814     0.9336740774
   48      H      -2.9922925636     4.2147358717    -1.9945836561
   49      H      -2.3064275604     3.2181859808    -3.3416295313
   50      H       1.7993122771    -4.2035359340    -0.9924100531
   51      H       3.5692623154    -4.5367004391    -0.8612432782
   52      H       2.9764919933    -3.3651922893    -2.0917883546
   53      H       1.3002943864    -0.0677360549    -3.0433322851
   54      H       0.0674342247     0.8091781461    -2.0629413312
   55      H      -0.1741691432    -1.8402946670    -3.0466506462
   56      H       0.3678882329    -2.1268475064    -1.3611880837
 ----------------------------------------------------------------
 Molecular Point Group                 C1    NOp =  1
 Largest Abelian Subgroup              C1    NOp =  1
 Nuclear Repulsion Energy =  3227.2430912143 hartrees
 There are      113 alpha and      113 beta electrons
 Applying Cartesian multipole field
    Component          Value
    ---------          -----
     (2,0,0)        1.00000E-12
     (0,2,0)        2.00000E-11
     (0,0,2)       -3.00000E-11
 Nucleus-field energy     =     0.0000000144 hartrees
 Requested basis set is STO-3G
 There are 86 shells and 176 basis functions
 A cutoff of  1.0D-12 yielded   2243 shell pairs
 There are     10742 function pairs
 Smallest overlap matrix eigenvalue = 2.13E-01
 Guess MOs from SCF MO coefficient file
 Reading MOs from coefficient file
 Reading MOs from coefficient file
 A restricted hybrid HF-DFT SCF calculation will be
 performed using Pulay DIIS extrapolation
[...]
      6  O        -0.2851518527   -0.1023718300   -1.4369587710
      7  C         0.7120737276    0.7234764489   -2.1537647301
      8  C         1.2422446550    1.9079511336   -1.2617614370
      9  O         2.2899603132    1.4331857720   -0.3267752882
     10  C         1.7253131261    0.9297538736    0.8829348842
     11  C         2.8707248367    0.3002722854    1.7490721119
     12  C         3.3101805736   -1.1449433424    1.2396138871
     13  C         2.4815184833   -1.6349621127    0.0017877189
     14  O         2.6820309040   -1.3776316007   -1.2067501119
     15  O        -4.2902611626    0.5407178768   -3.0876720730
     16  O         1.4100449083   -2.4420533375    0.4893220479
     17  O         0.5118772268    0.9996005515    1.1820754012
     18  C         0.5000798076   -2.8078759364   -0.6256925862
     19  C         4.2445252626    1.0861793031    1.6145188901
     20  C         5.2081743522    0.6052948153    2.7719966456
     21  C         5.6460965851   -0.8094978426    2.2373096663
     22  C         4.8337740731   -0.8862697470    0.8855041717
     23  O         4.8507381693    0.5097767956    0.3935690486
     24  H         2.5133762984    0.2549054538    2.7930784778
     25  H         3.1921737418   -1.8897416418    2.0462200265
     26  H         4.1372977653    2.1833462800    1.5136005779
     27  H         6.0679175480    1.2878851859    2.8622738397
     28  H         4.6947348639    0.5530557452    3.7454759119
     29  H         6.7287248659   -0.8470482642    2.0371378966
     30  H         5.3863129755   -1.6269304066    2.9288147527
     31  H         5.2458146778   -1.5694175272    0.1179097187
     32  O        -1.8623643950    1.5317339499   -2.1073905102
     33  C        -4.4947408091    1.5929937496   -4.1068121672
     34  C        -4.4083264258    0.4366049451    0.7425276174
     35  C        -4.4735766052   -0.8413014201    1.6682515160
     36  C        -2.9451553918   -1.1914166192    1.8132988494
     37  C        -2.2853061621   -0.0472449761    0.9494922570
     38  O        -3.1673295264    1.1178889540    1.1779518730
     39  H        -4.6466857215   -0.9218155114   -1.0303187722
     40  H        -2.3392299432   -1.4500592443   -0.8043569318
     41  H        -3.6820512801    2.3476749857   -4.0716904505
     42  H        -5.2721102424    1.1256392879    0.8118392939
     43  H        -4.9239185633   -0.5887248384    2.6413539545
     44  H        -5.0566120809   -1.6568358348    1.2110485016
     45  H        -2.6118244867   -1.1219371760    2.8609405647
     46  H        -2.6997209439   -2.1949297634    1.4306047402
     47  H        -1.2288998956    0.2106479369    1.1867154519
     48  H        -5.4651690938    2.1132943879   -3.9725747009
     49  H        -4.4812848437    1.0804576878   -5.0864357022
     50  H         0.0799936503   -1.8810702302   -1.0842493918
     51  H        -0.3028767727   -3.4156310556   -0.1707860807
     52  H         1.0250914912   -3.4056743791   -1.3975344788
     53  H         1.7370400172    2.6596399105   -1.9092343890
     54  H         0.4001518378    2.3815047262   -0.7125836834
     55  H         0.2799041827    1.1291680221   -3.0931496314
     56  H         1.5550676076    0.0301464730   -2.3657706774
   Point Group: c1    Number of degrees of freedom:   162


   Energy is  -1510.299241272

 Hessian Updated using BFGS Update

162 Hessian modes will be used to form the next step
  Hessian Eigenvalues:
     0.000653    0.002124    0.002468    0.003155    0.003860    0.004896
     0.005116    0.005987    0.007324    0.009127    0.013090    0.015115
     0.017740    0.020111    0.022022    0.022176    0.023828    0.027213
     0.030004    0.030415    0.031563    0.033131    0.034594    0.035277
     0.038578    0.040635    0.041264    0.043102    0.043171    0.044110
     0.045378    0.048366    0.048911    0.050718    0.051618    0.051962
     0.052910    0.053701    0.054953    0.055032    0.056003    0.056381
     0.057034    0.058766    0.059272    0.061562    0.062048    0.063527
     0.064202    0.064440    0.065096    0.065214    0.066656    0.068304
     0.070271    0.071108    0.072882    0.074750    0.076941    0.088884
     0.092803    0.093094    0.095427    0.097271    0.099062    0.100998
     0.102735    0.104536    0.106201    0.109479    0.110774    0.117855
     0.118928    0.127471    0.132001    0.137436    0.139831    0.148807
     0.156045    0.160081    0.160430    0.161912    0.163516    0.166232
     0.170080    0.176774    0.179762    0.188904    0.213619    0.219591
     0.223390    0.231899    0.233246    0.237657    0.238784    0.239749
     0.241632    0.241874    0.243294    0.246429    0.247817    0.250176
     0.251299    0.251437    0.252698    0.254282    0.256107    0.257326
     0.259091    0.261265    0.267239    0.267931    0.279726    0.288228
     0.291497    0.297689    0.304842    0.312388    0.316303    0.324071
     0.325650    0.326414    0.326969    0.327261    0.328320    0.328348
     0.328789    0.329291    0.329649    0.329896    0.330642    0.330751
     0.331021    0.332149    0.332661    0.333699    0.334635    0.334850
     0.335021    0.335126    0.335334    0.335602    0.336193    0.338936
     0.342309    0.346122    0.350137    0.351908    0.367336    0.378500
     0.397766    0.403751    0.415331    0.485275    0.535761    0.694897
     0.828912    0.836771    0.839595    0.885841    1.197337    2.531153

 Minimum Search - Taking Simple RFO Step
 Searching for Lamda that Minimizes Along All modes
 Value Taken    Lamda =   0.00000000
 Step Taken.  Stepsize is  0.010191

                             Maximum     Tolerance    Cnvgd?
         Gradient           0.000173      0.000300     YES
         Displacement       0.006095      0.001200      NO
         Energy change      0.000000      0.000001     YES

 Final energy is   -1510.29924127166     


 ******************************
 **  OPTIMIZATION CONVERGED  **
 ******************************

                       Coordinates (Angstroms)
     ATOM                X               Y               Z
      1  O        -4.7098673429    2.2914478380   -1.5340156225
      2  C        -4.3682888556    1.1146084653   -1.7734426824
      3  C        -4.0694934965   -0.0274865909   -0.7344336855
      4  C        -2.5350528870   -0.3850029269   -0.5896115827
      5  C        -1.5927737988    0.4847907869   -1.4798876266
      6  O        -0.2851518527   -0.1023718300   -1.4369587710
      7  C         0.7120737276    0.7234764489   -2.1537647301
      8  C         1.2422446550    1.9079511336   -1.2617614370
      9  O         2.2899603132    1.4331857720   -0.3267752882
     10  C         1.7253131261    0.9297538736    0.8829348842
     11  C         2.8707248367    0.3002722854    1.7490721119
     12  C         3.3101805736   -1.1449433424    1.2396138871
     13  C         2.4815184833   -1.6349621127    0.0017877189
     14  O         2.6820309040   -1.3776316007   -1.2067501119
     15  O        -4.2902611626    0.5407178768   -3.0876720730
     16  O         1.4100449083   -2.4420533375    0.4893220479
     17  O         0.5118772268    0.9996005515    1.1820754012
     18  C         0.5000798076   -2.8078759364   -0.6256925862
     19  C         4.2445252626    1.0861793031    1.6145188901
     20  C         5.2081743522    0.6052948153    2.7719966456
     21  C         5.6460965851   -0.8094978426    2.2373096663
     22  C         4.8337740731   -0.8862697470    0.8855041717
     23  O         4.8507381693    0.5097767956    0.3935690486
     24  H         2.5133762984    0.2549054538    2.7930784778
     25  H         3.1921737418   -1.8897416418    2.0462200265
     26  H         4.1372977653    2.1833462800    1.5136005779
     27  H         6.0679175480    1.2878851859    2.8622738397
     28  H         4.6947348639    0.5530557452    3.7454759119
     29  H         6.7287248659   -0.8470482642    2.0371378966
     30  H         5.3863129755   -1.6269304066    2.9288147527
     31  H         5.2458146778   -1.5694175272    0.1179097187
     32  O        -1.8623643950    1.5317339499   -2.1073905102
     33  C        -4.4947408091    1.5929937496   -4.1068121672
     34  C        -4.4083264258    0.4366049451    0.7425276174
     35  C        -4.4735766052   -0.8413014201    1.6682515160
     36  C        -2.9451553918   -1.1914166192    1.8132988494
     37  C        -2.2853061621   -0.0472449761    0.9494922570
     38  O        -3.1673295264    1.1178889540    1.1779518730
     39  H        -4.6466857215   -0.9218155114   -1.0303187722
     40  H        -2.3392299432   -1.4500592443   -0.8043569318
     41  H        -3.6820512801    2.3476749857   -4.0716904505
     42  H        -5.2721102424    1.1256392879    0.8118392939
     43  H        -4.9239185633   -0.5887248384    2.6413539545
     44  H        -5.0566120809   -1.6568358348    1.2110485016
     45  H        -2.6118244867   -1.1219371760    2.8609405647
     46  H        -2.6997209439   -2.1949297634    1.4306047402
     47  H        -1.2288998956    0.2106479369    1.1867154519
     48  H        -5.4651690938    2.1132943879   -3.9725747009
     49  H        -4.4812848437    1.0804576878   -5.0864357022
     50  H         0.0799936503   -1.8810702302   -1.0842493918
     51  H        -0.3028767727   -3.4156310556   -0.1707860807
     52  H         1.0250914912   -3.4056743791   -1.3975344788
     53  H         1.7370400172    2.6596399105   -1.9092343890
     54  H         0.4001518378    2.3815047262   -0.7125836834
     55  H         0.2799041827    1.1291680221   -3.0931496314
     56  H         1.5550676076    0.0301464730   -2.3657706774

Z-matrix Print:
$molecule
0 1
O 
C  1 1.434043
O  2 1.250012 1 123.684215
C  1 1.479965 2 111.804341 3 3.436002 0
H  4 1.110766 1 110.564095 2 -40.592600 0
H  4 1.111887 1 104.788742 2 -160.483310 0
C  2 1.561097 1 107.769421 3 -178.206317 0
H  7 1.103996 2 108.633964 1 -44.061951 0
C  4 1.574716 1 111.853533 2 81.841784 0
H  9 1.108639 4 109.234822 1 -163.289949 0
H  9 1.111292 4 110.202310 1 -42.645448 0
O  9 1.482332 4 110.753324 1 80.726175 0
C  12 1.426769 9 111.597705 4 -86.782512 0
O  13 1.251715 12 124.512622 9 -6.728319 0
C  13 1.567931 12 108.718583 9 173.660999 0
H  15 1.104403 13 107.596775 12 159.757068 0
C  7 1.582182 2 114.034530 1 -169.545365 0
H  17 1.104773 7 110.382293 2 123.442020 0
C  17 1.572641 7 114.131874 2 1.383273 0
O  19 1.248580 17 127.574080 7 -106.997537 0
O  19 1.436189 17 107.701397 7 77.812944 0
C  21 1.479102 19 109.799052 17 -177.059405 0
H  22 1.105684 21 106.200928 19 -176.826300 0
H  22 1.109263 21 111.793154 19 -57.340944 0
H  22 1.109613 21 111.149492 19 64.110040 0
C  17 1.584804 7 100.848710 2 -117.971697 0
H  26 1.107111 17 114.042283 7 155.304824 0
O  26 1.481153 17 103.269600 7 35.444925 0
C  28 1.479086 26 95.272765 17 -57.326147 0
H  29 1.113004 28 110.521472 26 178.535299 0
C  29 1.578193 28 103.723210 26 -55.731703 0
H  31 1.101585 29 110.383054 28 -83.773697 0
H  31 1.101695 29 112.154492 28 154.871680 0
C  31 1.574703 29 101.198461 28 34.453809 0
H  34 1.101604 31 111.493885 29 -117.187270 0
H  34 1.101845 31 112.783487 29 120.242340 0
C  15 1.588421 13 112.729899 12 35.329160 0
H  37 1.107004 15 114.476695 13 36.001366 0
O  37 1.480018 15 103.382095 13 -84.271605 0
C  39 1.480282 37 95.074251 15 -57.184813 0
H  40 1.107100 39 110.320305 37 179.303533 0
C  40 1.578968 39 103.459849 37 -56.471785 0
H  42 1.101618 40 110.387842 39 -82.398484 0
H  42 1.101754 40 112.331374 39 156.115772 0
C  42 1.574581 40 101.030130 39 35.628047 0
H  45 1.101471 42 111.565706 40 -118.213074 0
H  45 1.101822 42 112.769276 40 119.112222 0
C  40 1.585447 39 103.833929 37 56.382515 0
H  48 1.104203 40 112.080300 39 -151.432116 0
C  48 1.568124 40 112.488869 39 86.611598 0
O  50 1.251794 48 127.821760 40 -29.110857 0
O  50 1.427285 48 107.684474 40 151.522087 0
C  52 1.484965 50 110.050274 48 173.568525 0
H  53 1.105009 52 105.763026 50 -179.299812 0
H  53 1.108486 52 111.435561 50 61.760183 0
H  53 1.116116 52 109.546419 50 -60.043033 0
$end

 
 --------------------------------------------------------------
 
                    Orbital Energies (a.u.)
 --------------------------------------------------------------
 
 Alpha MOs
 -- Occupied --
-18.946 -18.942 -18.932 -18.918 -18.890 -18.888 -18.885 -18.877
-18.874 -18.860 -10.109 -10.109 -10.098 -10.087 -10.076 -10.074
-10.063 -10.061 -10.053 -10.050 -10.047 -10.043 -10.042 -10.039
-10.035 -10.029 -10.022 -10.021 -10.014 -10.012  -1.025  -1.017
 -1.009  -0.996  -0.971  -0.961  -0.948  -0.943  -0.934  -0.922
 -0.766  -0.758  -0.729  -0.720  -0.713  -0.704  -0.693  -0.657
 -0.652  -0.621  -0.597  -0.580  -0.549  -0.540  -0.537  -0.531
 -0.516  -0.506  -0.488  -0.474  -0.460  -0.454  -0.449  -0.446
 -0.434  -0.430  -0.425  -0.423  -0.409  -0.406  -0.403  -0.401
 -0.393  -0.381  -0.376  -0.365  -0.362  -0.360  -0.354  -0.349
 -0.343  -0.339  -0.338  -0.333  -0.328  -0.324  -0.316  -0.313
 -0.309  -0.308  -0.300  -0.298  -0.295  -0.284  -0.281  -0.274
 -0.267  -0.258  -0.251  -0.245  -0.241  -0.236  -0.225  -0.200
 -0.176  -0.172  -0.163  -0.162  -0.160  -0.151  -0.145  -0.140
 -0.136
 -- Virtual --
  0.087   0.092   0.098   0.117   0.230   0.234   0.241   0.250
  0.267   0.275   0.286   0.294   0.302   0.308   0.328   0.332
  0.339   0.342   0.345   0.353   0.356   0.363   0.364   0.367
  0.377   0.382   0.390   0.401   0.403   0.406   0.408   0.413
  0.415   0.420   0.422   0.426   0.430   0.433   0.434   0.437
  0.441   0.442   0.444   0.448   0.448   0.453   0.461   0.465
  0.466   0.481   0.488   0.490   0.495   0.500   0.518   0.535
  0.550   0.551   0.561   0.638   0.647   0.655   0.660
 --------------------------------------------------------------
 
          Ground-State Mulliken Net Atomic Charges

     Atom                 Charge (a.u.)
  ----------------------------------------
      1 O                    -0.213863
      2 C                     0.214799
      3 C                    -0.081202
      4 C                    -0.079685
      5 C                     0.219602
      6 O                    -0.175496
      7 C                    -0.056076
      8 C                    -0.050972
      9 O                    -0.162362
     10 C                     0.212440
     11 C                    -0.078018
     12 C                    -0.078852
     13 C                     0.206045
     14 O                    -0.216979
     15 O                    -0.177192
     16 O                    -0.170773
     17 O                    -0.215277
     18 C                    -0.146517
     19 C                     0.026956
     20 C                    -0.144149
     21 C                    -0.143804
     22 C                     0.025822
     23 O                    -0.183273
     24 H                     0.086406
     25 H                     0.086655
     26 H                     0.085382
     27 H                     0.078484
     28 H                     0.073805
     29 H                     0.078331
     30 H                     0.073668
     31 H                     0.085904
     32 O                    -0.206293
     33 C                    -0.128681
     34 C                     0.024867
     35 C                    -0.144551
     36 C                    -0.144009
     37 C                     0.012948
     38 O                    -0.189809
     39 H                     0.082557
     40 H                     0.083953
     41 H                     0.091133
     42 H                     0.086948
     43 H                     0.076604
     44 H                     0.070972
     45 H                     0.077497
     46 H                     0.070192
     47 H                     0.108349
     48 H                     0.086898
     49 H                     0.085501
     50 H                     0.109641
     51 H                     0.080737
     52 H                     0.081598
     53 H                     0.095015
     54 H                     0.100104
     55 H                     0.094744
     56 H                     0.113278
  ----------------------------------------
  Sum of atomic charges =    -0.000000

 -----------------------------------------------------------------
                    Cartesian Multipole Moments
 -----------------------------------------------------------------
    Charge (ESU x 10^10)
                -0.0000
    Dipole Moment (Debye)
         X       1.2800      Y      -2.4913      Z       0.6353
       Tot       2.8720
    Quadrupole Moments (Debye-Ang)
        XX    -158.5336     XY       8.9365     YY    -160.8008
        XZ      10.2002     YZ      -2.4681     ZZ    -151.8404
    Octopole Moments (Debye-Ang^2)
       XXX       7.3237    XXY     -62.8782    XYY      35.6292
       YYY     -56.7945    XXZ      48.5806    XYZ       4.4592
       YYZ       4.0821    XZZ       3.5606    YZZ       0.0682
       ZZZ       8.0916
    Hexadecapole Moments (Debye-Ang^3)
      XXXX  -11211.2815   XXXY     476.7827   XXYY   -2252.2393
      XYYY     550.3925   YYYY   -1770.0926   XXXZ   -1153.0037
      XXYZ      93.2031   XYYZ    -456.1281   YYYZ     371.2040
      XXZZ   -2265.5698   XYZZ     119.6774   YYZZ    -793.8924
      XZZZ   -1226.7817   YZZZ     269.1047   ZZZZ   -2881.3506
 -----------------------------------------------------------------
Archival summary:
1\1\vega02.cac.cornell.edu\OPT\ProcedureUnspecified\STO-3G\102026\jj585\MonJan1521:56:512018MonJan1521:56:512018\0\\#,OPT,ProcedureUnspecified,STO-3G,\\0,1\O\C,1,1.43404\O,2,1.25001,1,123.684\C,1,1.47996,2,111.804,3,3.436,0\H,4,1.11077,1,110.564,2,-40.5926,0\H,4,1.11189,1,104.789,2,-160.483,0\C,2,1.5611,1,107.769,3,-178.206,0\H,7,1.104,2,108.634,1,-44.062,0\C,4,1.57472,1,111.854,2,81.8418,0\H,9,1.10864,4,109.235,1,-163.29,0\H,9,1.11129,4,110.202,1,-42.6454,0\O,9,1.48233,4,110.753,1,80.7262,0\C,12,1.42677,9,111.598,4,-86.7825,0\O,13,1.25171,12,124.513,9,-6.72832,0\C,13,1.56793,12,108.719,9,173.661,0\H,15,1.1044,13,107.597,12,159.757,0\C,7,1.58218,2,114.035,1,-169.545,0\H,17,1.10477,7,110.382,2,123.442,0\C,17,1.57264,7,114.132,2,1.38327,0\O,19,1.24858,17,127.574,7,-106.998,0\O,19,1.43619,17,107.701,7,77.8129,0\C,21,1.4791,19,109.799,17,-177.059,0\H,22,1.10568,21,106.201,19,-176.826,0\H,22,1.10926,21,111.793,19,-57.3409,0\H,22,1.10961,21,111.149,19,64.11,0\C,17,1.5848,7,100.849,2,-117.972,0\H,26,1.10711,17,114.042,7,155.305,0\O,26,1.48115,17,103.27,7,35.4449,0\C,28,1.47909,26,95.2728,17,-57.3261,0\H,29,1.113,28,110.521,26,178.535,0\C,29,1.57819,28,103.723,26,-55.7317,0\H,31,1.10159,29,110.383,28,-83.7737,0\H,31,1.10169,29,112.154,28,154.872,0\C,31,1.5747,29,101.198,28,34.4538,0\H,34,1.1016,31,111.494,29,-117.187,0\H,34,1.10184,31,112.783,29,120.242,0\C,15,1.58842,13,112.73,12,35.3292,0\H,37,1.107,15,114.477,13,36.0014,0\O,37,1.48002,15,103.382,13,-84.2716,0\C,39,1.48028,37,95.0743,15,-57.1848,0\H,40,1.1071,39,110.32,37,179.304,0\C,40,1.57897,39,103.46,37,-56.4718,0\H,42,1.10162,40,110.388,39,-82.3985,0\H,42,1.10175,40,112.331,39,156.116,0\C,42,1.57458,40,101.03,39,35.628,0\H,45,1.10147,42,111.566,40,-118.213,0\H,45,1.10182,42,112.769,40,119.112,0\C,40,1.58545,39,103.834,37,56.3825,0\H,48,1.1042,40,112.08,39,-151.432,0\C,48,1.56812,40,112.489,39,86.6116,0\O,50,1.25179,48,127.822,40,-29.1109,0\O,50,1.42728,48,107.684,40,151.522,0\C,52,1.48496,50,110.05,48,173.569,0\H,53,1.10501,52,105.763,50,-179.3,0\H,53,1.10849,52,111.436,50,61.7602,0\H,53,1.11612,52,109.546,50,-60.043,0\\\@

 Total job time:  189.98s(wall), 9070.16s(cpu) 
 Mon Jan 15 21:56:51 2018

        *************************************************************
        *                                                           *
        *  Thank you very much for using Q-Chem.  Have a nice day.  *
        *                                                           *
        *************************************************************


0 sent ACK to 0 
now end server 0 ... 
