mFile = /opt/software/qchem/qchem-5.0.1//bin/mpi/machines
Process 0 of 1 is on vega02.cac.cornell.edu - thread support 0
initial socket setup ...start
initial socket setup ...done 
now start server 0 ... 
vega02.cac.cornell.edu 10.84.3
Q-Chem Developer Version! Running on 10.84.3.*
                  Welcome to Q-Chem
     A Quantum Leap Into The Future Of Chemistry


 Q-Chem 5.0, Q-Chem, Inc., Pleasanton, CA (2017)

 Yihan Shao,  Zhengting Gan,  E. Epifanovsky,  A. T. B. Gilbert,  M. Wormit,  
 J. Kussmann,  A. W. Lange,  A. Behn,  Jia Deng,  Xintian Feng,  D. Ghosh,  
 M. Goldey,  P. R. Horn,  L. D. Jacobson,  I. Kaliman,  T. Kus,  A. Landau,  
 Jie Liu,  E. I. Proynov,  R. M. Richard,  R. P. Steele,  E. J. Sundstrom,  
 H. L. Woodcock III,  P. M. Zimmerman,  D. Zuev,  B. Albrecht,  E. Alguire,  
 S. A. Baeppler,  Z. Benda,  Y. A. Bernard,  E. J. Berquist,  K. B. Bravaya,  
 D. Casanova,  Chun-Min Chang,  Yunqing Chen,  A. Chien,  K. D. Closser,  
 M. P. Coons,  S. Dasgupta,  M. Diedenhofen,  Hainam Do,  R. G. Edgar,  
 Po-Tung Fang,  S. Fatehi,  Qingguo Feng,  Qinghui Ge,  A. Ghysels,  
 J. Gomes,  J. Gonthier,  A. Gunina,  M. W. D. Hanson-Heine,  
 P. H. P. Harbach,  A. W. Hauser,  J. E. Herr,  E. G. Hohenstein,  
 Z. C. Holden,  Kerwin Hui,  T.-C. Jagau,  Hyunjun Ji,  B. Kaduk,  
 K. Khistyaev,  Jaehoon Kim,  P. Klunzinger,  K. Koh,  D. Kosenkov,  
 T. Kowalczyk,  C. M. Krauter,  A. Kunitsa,  Ka Un Lao,  A. Laurent,  
 K. V. Lawler,  Joonho Lee,  D. Lefrancois,  S. Lehtola,  D. S. Levine,  
 Yi-Pei Li,  You-Sheng Lin,  Fenglai Liu,  E. Livshits,  A. Luenser,  
 P. Manohar,  E. Mansoor,  S. F. Manzer,  Shan-Ping Mao,  Yuezhi Mao,  
 N. Mardirossian,  A. V. Marenich,  L. A. Martinez-Martinez,  S. A. Maurer,  
 N. J. Mayhall,  S. C. McKenzie,  J.-M. Mewes,  A. F. Morrison,  K. Nanda,  
 T. S. Nguyen-Beck,  R. Olivares-Amaya,  J. A. Parkhill,  T. M. Perrine,  
 F. Plasser,  S. Prager,  A. Prociuk,  D. R. Rehn,  F. Rob,  M. Schneider,  
 N. Sergueev,  S. M. Sharada,  S. Sharma,  D. W. Small,  T. Stauch,  
 T. Stein,  Yu-Chuan Su,  A. J. W. Thom,  T. Tsuchimochi,  L. Vogt,  
 O. Vydrov,  M. A. Watson,  J. Wenzel,  M. de Wergifosse,  T. A. Wesolowski,  
 A. White,  J. Witte,  A. Yamada,  Jun Yang,  K. Yao,  S. Yeganeh,  
 S. R. Yost,  Zhi-Qiang You,  A. Zech,  Igor Ying Zhang,  Xing Zhang,  
 Yan Zhao,  Ying Zhu,  B. R. Brooks,  G. K. L. Chan,  C. J. Cramer,  
 M. S. Gordon,  W. J. Hehre,  A. Klamt,  M. W. Schmidt,  C. D. Sherrill,  
 D. G. Truhlar,  A. Aspuru-Guzik,  R. Baer,  A. T. Bell,  N. A. Besley,  
 Jeng-Da Chai,  A. Dreuw,  B. D. Dunietz,  T. R. Furlani,  Chao-Ping Hsu,  
 Yousung Jung,  Jing Kong,  D. S. Lambrecht,  WanZhen Liang,  C. Ochsenfeld,  
 V. A. Rassolov,  L. V. Slipchenko,  J. E. Subotnik,  T. Van Voorhis,  
 J. M. Herbert,  A. I. Krylov,  P. M. W. Gill,  M. Head-Gordon

 Contributors to earlier versions of Q-Chem not listed above: 
 R. D. Adamson,  B. Austin,  J. Baker,  G. J. O. Beran,  K. Brandhorst,  
 S. T. Brown,  E. F. C. Byrd,  A. K. Chakraborty,  C.-L. Cheng,  
 Siu Hung Chien,  D. M. Chipman,  D. L. Crittenden,  H. Dachsel,  
 R. A. DiStasio Jr.,  R. J. Doerksen,  A. D. Dutoi,  L. Fusti-Molnar,  
 W. A. Goddard III,  A. Golubeva-Zadorozhnaya,  S. R. Gwaltney,  G. Hawkins,  
 A. Heyden,  S. Hirata,  G. Kedziora,  F. J. Keil,  C. Kelley,  Jihan Kim,  
 R. A. King,  R. Z. Khaliullin,  P. P. Korambath,  W. Kurlancheek,  
 A. M. Lee,  M. S. Lee,  S. V. Levchenko,  Ching Yeh Lin,  D. Liotard,  
 R. C. Lochan,  I. Lotan,  P. E. Maslen,  N. Nair,  D. P. O'Neill,  
 D. Neuhauser,  E. Neuscamman,  C. M. Oana,  R. Olson,  B. Peters,  
 R. Peverati,  P. A. Pieniazek,  Y. M. Rhee,  J. Ritchie,  M. A. Rohrdanz,  
 E. Rosta,  N. J. Russ,  H. F. Schaefer III,  N. E. Schultz,  N. Shenvi,  
 A. C. Simmonett,  A. Sodt,  D. Stuck,  K. S. Thanthiriwatte,  V. Vanovschi,  
 Tao Wang,  A. Warshel,  C. F. Williams,  Q. Wu,  X. Xu,  W. Zhang

 Please cite Q-Chem as follows:
 Y. Shao et al., Mol. Phys. 113, 184-215 (2015)
 DOI: 10.1080/00268976.2014.952696

 Q-Chem 5.0.1 for Intel X86 EM64T Linux

 Parts of Q-Chem use Armadillo 5.200.1 (Boston Tea Smuggler).
 http://arma.sourceforge.net/

 Q-Chem begins on Mon Jan 15 23:02:29 2018  

Host: vega02.cac.cornell.edu
0

     Scratch files written to /scratch/jj585/SOT1001/0951r.save//
 Parallel job on  1  processors

Checking the input file for inconsistencies... 	...done.

--------------------------------------------------------------
User input:
--------------------------------------------------------------
$molecule
0  1
O 3.6998367773 -2.7914889045 -0.2041062753
C 3.4783153992 -1.6611634936 -0.686204876
C 4.4623610753 -0.435853339 -0.7132731951
C 3.8532604068 0.9140978108 -0.1497317369
C 2.4320388471 0.70825424 0.4672969518
O 1.6340849693 1.8632709549 0.1774733324
C 0.2592223181 1.676203104 0.7138513664
C -0.5416419369 0.8256451449 -0.3472726525
O -1.8996554801 0.3074438918 -0.0406396955
C -2.4368650254 0.5406863495 1.2620569951
C -3.8654767485 -0.1104413327 1.2640384901
C -4.7179357578 0.2199677961 -0.0294716494
C -4.0459297446 1.2620738627 -0.9931923993
O -3.8730640156 1.1640296384 -2.2256838691
O 2.2956014252 -1.317702492 -1.4248454985
O -3.729988507 2.4338745995 -0.2231454447
O -1.8791478658 1.1125227157 2.2214327893
C -3.1255273471 3.4662165477 -1.0939964857
C -3.7537804043 -1.6939230812 1.1317508794
C -5.166993086 -2.3325779409 1.4386922377
C -5.9405256467 -2.0244087556 0.1027675515
C -4.8484763412 -1.2122945222 -0.6952882668
O -3.5847316743 -1.89214695 -0.3246399524
H -4.3786401275 0.1948595733 2.1921816076
H -5.7095463287 0.6176640437 0.2564343981
H -2.9057411187 -2.1413193841 1.6860169627
H -5.06951068 -3.4163346764 1.6101843933
H -5.6447532049 -1.8773661092 2.3211644367
H -6.198850465 -2.9503689067 -0.4354957332
H -6.8614577024 -1.441965171 0.2658309113
H -4.9666443214 -1.1871116934 -1.7961848674
O 2.0382346548 -0.2686395245 1.1426663141
C 1.3409309138 -2.4498308336 -1.3964747435
C 5.6910054476 -0.6563842291 0.2605120963
C 6.8449495678 0.3279175397 -0.1746465612
C 6.2622694128 1.7061956235 0.3151050349
C 4.9106844496 1.24701621 0.9939467819
O 5.2259976591 -0.0877627127 1.547942041
H 4.7978520136 -0.2977575142 -1.7577749304
H 3.8011687929 1.7073133593 -0.9156619059
H 0.9789171244 -2.6438222203 -0.3658236899
H 5.9755667426 -1.719045304 0.3877984729
H 7.782173497 0.0789085116 0.3480154367
H 7.0269457917 0.3035502646 -1.2608730399
H 6.9213260837 2.1853729184 1.0563195733
H 6.0889953122 2.4136230582 -0.5116119479
H 4.5310566166 1.9186371483 1.7885335863
H 1.7971273208 -3.3802777833 -1.7911632233
H 0.4897530051 -2.1525380977 -2.0365735635
H -2.805500014 4.2847886937 -0.4232842373
H -3.857338544 3.8576367987 -1.8304382918
H -2.2489413115 3.0747933662 -1.6482365342
H -0.6435627907 1.421417653 -1.2798833111
H 0.0795899688 -0.0647001918 -0.588212456
H -0.1719289161 2.6882218423 0.8376510874
H 0.2891764355 1.1535564126 1.6898401557
$end

$rem
JOBTYPE                   OPT
METHOD                    B3LYP
DFT_D                     d3_op
BASIS                     STO-3G
GEOM_OPT_MAX_CYCLES       100
GEOM_OPT_TOL_GRADIENT     300
GEOM_OPT_TOL_DISPLACEMENT 1200
GEOM_OPT_TOL_ENERGY       100
SYMMETRY                  False
THRESH                    12
SCF_CONVERGENCE           8
MAX_SUB_FILE_NUM          128
MEM_STATIC                400
MEM_TOTAL                 4000
$end
--------------------------------------------------------------
 Adding empirical dispersion correction 
 ----------------------------------------------------------------
 Doing -D3(op) with
 s6 =   1.00000
 s8 =   0.78311
 a1 =   0.30000
 a2 =   4.25000
 n  =  10.00000
 -D3 energy without 3body term =     -0.0701499151 hartrees
 ----------------------------------------------------------------
             Standard Nuclear Orientation (Angstroms)
    I     Atom           X                Y                Z
 ----------------------------------------------------------------
    1      O       3.6198318251    -2.8999834180    -0.2967678584
    2      C       3.4155429854    -1.7653981193    -0.7764642064
    3      C       4.4226236366    -0.5591807200    -0.8124045631
    4      C       3.8448347604     0.8019527833    -0.2428202345
    5      C       2.4257562479     0.6231347812     0.3874233672
    6      O       1.6474377848     1.7933789758     0.1053938860
    7      C       0.2743138302     1.6324803000     0.6545617176
    8      C      -0.5526105250     0.7979238798    -0.3992543349
    9      O      -1.9173913566     0.3057334446    -0.0800695143
   10      C      -2.4378228240     0.5486503097     1.2276603094
   11      C      -3.8785849008    -0.0749498174     1.2428313227
   12      C      -4.7366036574     0.2723383449    -0.0425556936
   13      C      -4.0537646132     1.3017956808    -1.0122377306
   14      O      -3.8943432449     1.2010104909    -2.2463194240
   15      O       2.2327829116    -1.3989753818    -1.5039123202
   16      O      -3.7082100466     2.4669708392    -0.2448610066
   17      O      -1.8602898375     1.1092473725     2.1819316320
   18      C      -3.0922195095     3.4879197254    -1.1210480628
   19      C      -3.7985360358    -1.6602230589     1.1090723519
   20      C      -5.2208119093    -2.2717860379     1.4290491842
   21      C      -6.0007455285    -1.9482287767     0.1005049114
   22      C      -4.9008232254    -1.1568545667    -0.7075124707
   23      O      -3.6469465542    -1.8609949388    -0.3488905117
   24      H      -4.3770949863     0.2397203083     2.1758186483
   25      H      -5.7176837921     0.6888565131     0.2527246519
   26      H      -2.9540926701    -2.1240576803     1.6552571366
   27      H      -5.1425443085    -3.3572910013     1.5993260113
   28      H      -5.6814772026    -1.8078911630     2.3160772320
   29      H      -6.2818122657    -2.8688188604    -0.4355703295
   30      H      -6.9087667283    -1.3482977282     0.2723370315
   31      H      -5.0287742805    -1.1289113114    -1.8072482906
   32      O       2.0196109417    -0.3463292579     1.0661813592
   33      C       1.2568709597    -2.5125922929    -1.4669190192
   34      C       5.6558610981    -0.8036835406     0.1497816949
   35      C       6.8243612279     0.1584948693    -0.2958865851
   36      C       6.2728404814     1.5474765776     0.1996716310
   37      C       4.9190994246     1.1140054192     0.8910048864
   38      O       5.2139077262    -0.2268276969     1.4416613671
   39      H       4.7509220897    -0.4270744158    -1.8599619847
   40      H       3.8008145535     1.5963681009    -1.0080130148
   41      H       0.9008536262    -2.7000687478    -0.4329787535
   42      H       5.9211564467    -1.8716659233     0.2741099727
   43      H       7.7614802428    -0.1086857633     0.2179151421
   44      H       6.9956923421     0.1311317289    -1.3837750263
   45      H       6.9478720939     2.0135860695     0.9348177601
   46      H       6.1054508767     2.2584720143    -0.6251948237
   47      H       4.5598749798     1.7924265885     1.6892922289
   48      H       1.6914189579    -3.4514416927    -1.8661126136
   49      H       0.4056068505    -2.1987345556    -2.0989443665
   50      H      -2.7502865868     4.2998978813    -0.4531362999
   51      H      -3.8232387002     3.8936411189    -1.8505033859
   52      H      -2.2285262149     3.0800016374    -1.6835726778
   53      H      -0.6517957583     1.3959639071    -1.3307079288
   54      H       0.0491424013    -0.1040671142    -0.6462392548
   55      H      -0.1361622060     2.6525284926     0.7826663345
   56      H       0.3033575022     1.1089137150     1.6300848727
 ----------------------------------------------------------------
 Molecular Point Group                 C1    NOp =  1
 Largest Abelian Subgroup              C1    NOp =  1
 Nuclear Repulsion Energy =  3151.6427630199 hartrees
 There are      113 alpha and      113 beta electrons
 Requested basis set is STO-3G
 There are 86 shells and 176 basis functions

 Total QAlloc Memory Limit   4000 MB
 Mega-Array Size       392 MB
 MEM_STATIC part       400 MB
 A cutoff of  1.0D-12 yielded   2165 shell pairs
 There are     10115 function pairs
 
 -------------------------------------------------------
 OpenMP Integral Computing Module                       
 Release: version 1.0, May 2013, Q-Chem Inc. Pittsburgh 
 -------------------------------------------------------
 Integral Job Info:
 Integral job number is                      11
 Integral operator is                         1
 short-range coefficients                     0
 long-range coefficients              100000000
 Omega coefficients                           0
 if combine SR and LR in K                    0
 Integral screening is                        0
 Integral computing path is                   2
 max size of driver memory is            800000
 size of driver memory is                 45569
 size of scratch memory is              1046100
 max col of scratch BK array                289
 max len of scratch array in speh3           22
 max len of scratch index in speh4            8
 max int batch size is                      520
 min int batch size is                       52
 fixed nKL is                                52
 max L of basis functions is                  1
 order of int derivative is                   0
 number of shells is                         86
 number of basis is                         176
 number of cartesian basis is               176
 number of contracted shell pairs          2165
 number of primitive shell pairs          11141
 maxK2 (contraction) of shell pair            9
 max number of K2 of shell pair               1
 max number of CS2 of shell pair            335
 max number of PS2 of shell pair           1254
 mem total for path MDJ                   52138
 -------------------------------------------------------
 Smallest overlap matrix eigenvalue = 2.13E-01

 Scale SEOQF with 1.000000e-02/1.000000e-01/1.000000e-01

 Standard Electronic Orientation quadrupole field applied
 Nucleus-field energy     =     0.0000000284 hartrees
 Guess from superposition of atomic densities
 Warning:  Energy on first SCF cycle will be non-variational
 A restricted hybrid HF-DFT SCF calculation will be
 performed using Pulay DIIS extrapolation
 Exchange:     0.2000 Hartree-Fock + 0.0800 Slater + 0.7200 B88
 Correlation:  0.1900 VWN1RPA + 0.8100 LYP
 Using SG-1 standard quadrature grid
 Dispersion:   Grimme D3
 SCF converges when DIIS error is below 1.0E-08
 using 48 threads for integral computing
 -------------------------------------------------------
 OpenMP Integral computing Module                
 Release: version 1.0, May 2013, Q-Chem Inc. Pittsburgh 
 -------------------------------------------------------
 -------------------------------------------------------
 OpenMP BLAS3 based DFT computing Module                
 Release: version 1.0, May 2013, Q-Chem Inc. Pittsburgh 
 -------------------------------------------------------
 ---------------------------------------
  Cycle       Energy         DIIS Error
 ---------------------------------------
    1   -1507.6362209152      7.46E-02
    2   -1509.7365652107      1.04E-02
    3   -1507.3525416749      2.73E-02
    4   -1510.1892891340      4.45E-03
    5   -1510.2707079682      1.43E-03
    6   -1510.2791812239      4.09E-04
    7   -1510.2798516587      1.47E-04
    8   -1510.2799450258      3.29E-05
    9   -1510.2799496600      8.49E-06
   10   -1510.2799499767      2.22E-06
   11   -1510.2799499948      1.06E-06
   12   -1510.2799499990      3.87E-07
   13   -1510.2799499997      8.87E-08
   14   -1510.2799499996      3.11E-08
   15   -1510.2799499996      1.66E-08
   16   -1510.2799499997      5.76E-09 Convergence criterion met
 ---------------------------------------
 SCF time:  CPU 114.85 s  wall 2.45 s
 SCF   energy in the final basis set = -1510.27995000
 Total energy in the final basis set = -1510.27995000
 
 --------------------------------------------------------------
 
                    Orbital Energies (a.u.)
 --------------------------------------------------------------
 
 Alpha MOs
 -- Occupied --
-18.937 -18.935 -18.931 -18.927 -18.887 -18.887 -18.877 -18.875
-18.874 -18.872 -10.105 -10.100 -10.100 -10.096 -10.073 -10.070
-10.066 -10.061 -10.061 -10.058 -10.057 -10.056 -10.038 -10.037
-10.036 -10.036 -10.021 -10.021 -10.019 -10.019  -1.017  -1.014
 -1.005  -1.004  -0.970  -0.969  -0.942  -0.937  -0.935  -0.931
 -0.764  -0.762  -0.729  -0.723  -0.711  -0.705  -0.695  -0.663
 -0.658  -0.621  -0.597  -0.587  -0.547  -0.545  -0.537  -0.537
 -0.512  -0.510  -0.481  -0.477  -0.464  -0.461  -0.452  -0.442
 -0.438  -0.431  -0.430  -0.414  -0.409  -0.408  -0.406  -0.396
 -0.389  -0.377  -0.372  -0.366  -0.363  -0.357  -0.355  -0.349
 -0.346  -0.341  -0.338  -0.332  -0.331  -0.326  -0.325  -0.311
 -0.310  -0.305  -0.304  -0.300  -0.297  -0.290  -0.283  -0.276
 -0.273  -0.262  -0.254  -0.250  -0.239  -0.234  -0.233  -0.181
 -0.178  -0.173  -0.171  -0.158  -0.155  -0.149  -0.147  -0.143
 -0.143
 -- Virtual --
  0.091   0.092   0.112   0.113   0.203   0.236   0.238   0.261
  0.263   0.273   0.283   0.288   0.301   0.316   0.320   0.330
  0.331   0.336   0.345   0.346   0.349   0.360   0.361   0.368
  0.376   0.384   0.386   0.398   0.401   0.406   0.409   0.410
  0.413   0.416   0.421   0.424   0.426   0.429   0.431   0.432
  0.433   0.436   0.437   0.442   0.444   0.448   0.450   0.467
  0.468   0.476   0.488   0.489   0.490   0.504   0.508   0.538
  0.541   0.552   0.552   0.644   0.647   0.649   0.655
 --------------------------------------------------------------
 
          Ground-State Mulliken Net Atomic Charges

     Atom                 Charge (a.u.)
  ----------------------------------------
      1 O                    -0.209659
      2 C                     0.214929
      3 C                    -0.079370
      4 C                    -0.078722
      5 C                     0.211779
      6 O                    -0.173035
      7 C                    -0.052705
      8 C                    -0.052773
      9 O                    -0.169127
     10 C                     0.217563
     11 C                    -0.077562
     12 C                    -0.078233
     13 C                     0.216661
     14 O                    -0.214635
     15 O                    -0.177646
     16 O                    -0.176279
     17 O                    -0.213425
     18 C                    -0.128894
     19 C                     0.025483
     20 C                    -0.144166
     21 C                    -0.143529
     22 C                     0.024595
     23 O                    -0.187027
     24 H                     0.085764
     25 H                     0.083720
     26 H                     0.083025
     27 H                     0.078370
     28 H                     0.074040
     29 H                     0.077999
     30 H                     0.073027
     31 H                     0.090106
     32 O                    -0.213041
     33 C                    -0.130628
     34 C                     0.024419
     35 C                    -0.143604
     36 C                    -0.144044
     37 C                     0.025803
     38 O                    -0.187061
     39 H                     0.084001
     40 H                     0.086645
     41 H                     0.092827
     42 H                     0.091807
     43 H                     0.078457
     44 H                     0.073087
     45 H                     0.078342
     46 H                     0.073585
     47 H                     0.083093
     48 H                     0.089737
     49 H                     0.091312
     50 H                     0.089786
     51 H                     0.087347
     52 H                     0.086996
     53 H                     0.084675
     54 H                     0.093873
     55 H                     0.091479
     56 H                     0.110834
  ----------------------------------------
  Sum of atomic charges =     0.000000

 -----------------------------------------------------------------
                    Cartesian Multipole Moments
 -----------------------------------------------------------------
    Charge (ESU x 10^10)
                 0.0000
    Dipole Moment (Debye)
         X      -1.0231      Y       2.0677      Z      -1.3639
       Tot       2.6800
    Quadrupole Moments (Debye-Ang)
        XX    -140.2541     XY       9.2439     YY    -157.3811
        XZ     -12.8089     YZ      -0.5830     ZZ    -166.3749
    Octopole Moments (Debye-Ang^2)
       XXX     -25.0103    XXY      24.9252    XYY     -26.7303
       YYY      31.2934    XXZ     -12.1810    XYZ      22.9549
       YYZ     -11.7773    XZZ       6.2539    YZZ      -8.3066
       ZZZ      -3.6737
    Hexadecapole Moments (Debye-Ang^3)
      XXXX  -14708.0448   XXXY      90.6892   XXYY   -3066.7362
      XYYY     -99.6276   YYYY   -2613.2751   XXXZ    -191.4017
      XXYZ      19.0003   XYYZ      42.6116   YYYZ     -10.5447
      XXZZ   -2871.3139   XYZZ       3.3213   YYZZ    -614.8995
      XZZZ       1.0851   YZZZ      17.3711   ZZZZ   -1212.9199
 -----------------------------------------------------------------
 Calculating analytic gradient of the SCF energy
 Gradient of SCF Energy
            1           2           3           4           5           6
    1   0.0007277  -0.0013535   0.0013106  -0.0002088  -0.0008133   0.0004361
    2  -0.0006596   0.0011430  -0.0009048   0.0011785  -0.0012718  -0.0013339
    3  -0.0018177   0.0021397   0.0015273  -0.0007989  -0.0021267   0.0006034
            7           8           9          10          11          12
    1   0.0000494  -0.0011310   0.0007522   0.0004274  -0.0006504   0.0003785
    2   0.0016418   0.0021288  -0.0014514  -0.0011701   0.0019238  -0.0011458
    3   0.0003862  -0.0007119   0.0005132   0.0002129   0.0005403  -0.0007546
           13          14          15          16          17          18
    1   0.0007815  -0.0005645   0.0000754  -0.0000380  -0.0000128  -0.0000044
    2  -0.0002638   0.0003031  -0.0000261  -0.0000257  -0.0000204  -0.0000313
    3   0.0002378  -0.0000717   0.0000794  -0.0000769   0.0000465   0.0000626
           19          20          21          22          23          24
    1  -0.0000011  -0.0000455   0.0000638  -0.0001040  -0.0000243   0.0000178
    2  -0.0001214   0.0000895  -0.0000552   0.0001354  -0.0000406   0.0000150
    3  -0.0000627  -0.0000007   0.0000101   0.0000468   0.0000446  -0.0000145
           25          26          27          28          29          30
    1  -0.0000307  -0.0000037  -0.0000023  -0.0000051  -0.0000441   0.0000033
    2  -0.0000011   0.0000131  -0.0000045   0.0000069  -0.0000019   0.0000442
    3  -0.0000016  -0.0000079   0.0000030  -0.0000033  -0.0000096  -0.0000033
           31          32          33          34          35          36
    1   0.0000222   0.0000187  -0.0000135  -0.0001738  -0.0000696   0.0000095
    2  -0.0000462  -0.0000181   0.0000279  -0.0000122   0.0000039  -0.0001039
    3  -0.0000102  -0.0000105  -0.0000115  -0.0001633  -0.0000107   0.0000886
           37          38          39          40          41          42
    1   0.0001152  -0.0000179   0.0000302  -0.0000280   0.0000065   0.0000029
    2   0.0001870  -0.0000546  -0.0000516   0.0000238  -0.0000120   0.0000054
    3   0.0000788   0.0000199   0.0000025   0.0000449   0.0000059   0.0000324
           43          44          45          46          47          48
    1   0.0000400  -0.0000047  -0.0000222  -0.0000012   0.0000439  -0.0000051
    2  -0.0000353   0.0000399   0.0000440  -0.0000370  -0.0000197   0.0000022
    3  -0.0000061   0.0000216  -0.0000274  -0.0000143   0.0000224  -0.0000042
           49          50          51          52          53          54
    1  -0.0000093   0.0000364  -0.0000064  -0.0000021   0.0000203  -0.0000150
    2  -0.0000089  -0.0000040   0.0000282   0.0000069  -0.0000041  -0.0000366
    3   0.0000081  -0.0000196   0.0000029  -0.0000303   0.0000020  -0.0000021
           55          56
    1   0.0000146   0.0000222
    2  -0.0000023  -0.0000163
    3   0.0000030  -0.0000147
 Max gradient component =       2.140E-03
 RMS gradient           =       5.435E-04
 Gradient time:  CPU 31.64 s  wall 0.68 s
 Geometry Optimization Parameters
   NAtoms,    NIC,     NZ,  NCons,   NDum,   NFix, NCnnct, MaxDiis
       56     458       0       0       0       0       0       0


** GEOMETRY OPTIMIZATION IN DELOCALIZED INTERNAL COORDINATES **
   Searching for a Minimum

   Optimization Cycle:   1

                       Coordinates (Angstroms)
     ATOM                X               Y               Z
      1  O         3.6198318251   -2.8999834180   -0.2967678584
      2  C         3.4155429854   -1.7653981193   -0.7764642064
      3  C         4.4226236366   -0.5591807200   -0.8124045631
      4  C         3.8448347604    0.8019527833   -0.2428202345
      5  C         2.4257562479    0.6231347812    0.3874233672
      6  O         1.6474377848    1.7933789758    0.1053938860
      7  C         0.2743138302    1.6324803000    0.6545617176
      8  C        -0.5526105250    0.7979238798   -0.3992543349
      9  O        -1.9173913566    0.3057334446   -0.0800695143
     10  C        -2.4378228240    0.5486503097    1.2276603094
     11  C        -3.8785849008   -0.0749498174    1.2428313227
     12  C        -4.7366036574    0.2723383449   -0.0425556936
     13  C        -4.0537646132    1.3017956808   -1.0122377306
     14  O        -3.8943432449    1.2010104909   -2.2463194240
     15  O         2.2327829116   -1.3989753818   -1.5039123202
     16  O        -3.7082100466    2.4669708392   -0.2448610066
     17  O        -1.8602898375    1.1092473725    2.1819316320
     18  C        -3.0922195095    3.4879197254   -1.1210480628
     19  C        -3.7985360358   -1.6602230589    1.1090723519
     20  C        -5.2208119093   -2.2717860379    1.4290491842
     21  C        -6.0007455285   -1.9482287767    0.1005049114
     22  C        -4.9008232254   -1.1568545667   -0.7075124707
     23  O        -3.6469465542   -1.8609949388   -0.3488905117
     24  H        -4.3770949863    0.2397203083    2.1758186483
     25  H        -5.7176837921    0.6888565131    0.2527246519
     26  H        -2.9540926701   -2.1240576803    1.6552571366
     27  H        -5.1425443085   -3.3572910013    1.5993260113
     28  H        -5.6814772026   -1.8078911630    2.3160772320
     29  H        -6.2818122657   -2.8688188604   -0.4355703295
     30  H        -6.9087667283   -1.3482977282    0.2723370315
     31  H        -5.0287742805   -1.1289113114   -1.8072482906
     32  O         2.0196109417   -0.3463292579    1.0661813592
     33  C         1.2568709597   -2.5125922929   -1.4669190192
     34  C         5.6558610981   -0.8036835406    0.1497816949
     35  C         6.8243612279    0.1584948693   -0.2958865851
     36  C         6.2728404814    1.5474765776    0.1996716310
     37  C         4.9190994246    1.1140054192    0.8910048864
     38  O         5.2139077262   -0.2268276969    1.4416613671
     39  H         4.7509220897   -0.4270744158   -1.8599619847
     40  H         3.8008145535    1.5963681009   -1.0080130148
     41  H         0.9008536262   -2.7000687478   -0.4329787535
     42  H         5.9211564467   -1.8716659233    0.2741099727
     43  H         7.7614802428   -0.1086857633    0.2179151421
     44  H         6.9956923421    0.1311317289   -1.3837750263
     45  H         6.9478720939    2.0135860695    0.9348177601
     46  H         6.1054508767    2.2584720143   -0.6251948237
     47  H         4.5598749798    1.7924265885    1.6892922289
     48  H         1.6914189579   -3.4514416927   -1.8661126136
     49  H         0.4056068505   -2.1987345556   -2.0989443665
     50  H        -2.7502865868    4.2998978813   -0.4531362999
     51  H        -3.8232387002    3.8936411189   -1.8505033859
     52  H        -2.2285262149    3.0800016374   -1.6835726778
     53  H        -0.6517957583    1.3959639071   -1.3307079288
     54  H         0.0491424013   -0.1040671142   -0.6462392548
     55  H        -0.1361622060    2.6525284926    0.7826663345
     56  H         0.3033575022    1.1089137150    1.6300848727
   Point Group: c1    Number of degrees of freedom:   162


   Energy is  -1510.279950000


 Attempting to Generate Delocalized Internal Coordinates

162 Hessian modes will be used to form the next step
  Hessian Eigenvalues:
     0.002000    0.002000    0.002000    0.002000    0.002000    0.002691
     0.002693    0.004058    0.004207    0.004236    0.004333    0.004394
     0.004553    0.004906    0.005104    0.006805    0.006812    0.010708
     0.010871    0.011220    0.011903    0.021711    0.021723    0.026206
     0.026303    0.030853    0.030876    0.035409    0.035434    0.037139
     0.041086    0.041115    0.041781    0.041980    0.046089    0.046581
     0.047389    0.047602    0.051105    0.051146    0.052214    0.053198
     0.053413    0.054410    0.054567    0.055124    0.055265    0.055557
     0.056344    0.058862    0.059296    0.060473    0.060488    0.063662
     0.063732    0.064213    0.064268    0.069962    0.069969    0.072939
     0.072955    0.091898    0.092250    0.092797    0.092831    0.095924
     0.095959    0.096621    0.096920    0.102485    0.102495    0.109269
     0.110046    0.110261    0.121074    0.121267    0.123322    0.134139
     0.144225    0.157401    0.157505    0.160000    0.160000    0.160000
     0.160000    0.160000    0.160000    0.163001    0.163380    0.218938
     0.219048    0.220162    0.221790    0.228156    0.228521    0.238307
     0.238431    0.239615    0.239643    0.246331    0.246992    0.249266
     0.249548    0.249877    0.249906    0.250000    0.250000    0.250000
     0.250000    0.250000    0.250000    0.250000    0.250000    0.253364
     0.253407    0.253837    0.258801    0.259826    0.260183    0.265749
     0.292675    0.292770    0.307446    0.307499    0.323820    0.324577
     0.326476    0.326560    0.327184    0.327582    0.328635    0.328654
     0.328660    0.328667    0.328725    0.329221    0.330292    0.330576
     0.330578    0.330713    0.332565    0.332841    0.334706    0.334847
     0.334851    0.334889    0.335017    0.335034    0.335099    0.335136
     0.337143    0.339457    0.344340    0.346050    0.399544    0.401260
     0.404969    0.412359    0.827913    0.837377    0.838266    0.838391

 Minimum Search - Taking Simple RFO Step
 Searching for Lamda that Minimizes Along All modes
 Value Taken    Lamda =  -0.00296941
 Calculated Step too Large.  Step scaled by  0.457054
 Step Taken.  Stepsize is  0.300000

                             Maximum     Tolerance    Cnvgd?
         Gradient           0.001402      0.000300      NO
         Displacement       0.073338      0.001200      NO
         Energy change     *********      0.000001      NO


 New Cartesian Coordinates Obtained by Inverse Iteration

 Displacement from previous Coordinates is:  2.355730
 Adding empirical dispersion correction 
 ----------------------------------------------------------------
 Doing -D3(op) with
 s6 =   1.00000
 s8 =   0.78311
 a1 =   0.30000
 a2 =   4.25000
 n  =  10.00000
 -D3 energy without 3body term =     -0.0702511617 hartrees
 ----------------------------------------------------------------
             Standard Nuclear Orientation (Angstroms)
    I     Atom           X                Y                Z
 ----------------------------------------------------------------
    1      O       3.5477407933    -2.8523644192    -0.0424197997
    2      C       3.3555568104    -1.7675443428    -0.6300803906
    3      C       4.3730282258    -0.5788871808    -0.7794676193
    4      C       3.8533750069     0.8104822871    -0.2216527399
    5      C       2.4769671117     0.6777765734     0.5068736384
    6      O       1.6653857064     1.8086366022     0.1644093501
    7      C       0.2875051556     1.6206668492     0.6926027151
    8      C      -0.5038971112     0.7625258756    -0.3694787265
    9      O      -1.8856909473     0.2923937910    -0.0928048119
   10      C      -2.4454585054     0.5491576571     1.1958873582
   11      C      -3.8708996418    -0.1089797086     1.1850313734
   12      C      -4.7398075565     0.2754762435    -0.0822371244
   13      C      -4.0828660141     1.3627665374    -1.0055781076
   14      O      -3.8970307778     1.3088837245    -2.2389116254
   15      O       2.1460983401    -1.4301340783    -1.3271428566
   16      O      -3.7765091354     2.5063336575    -0.1904480747
   17      O      -1.8864069419     1.0942199673     2.1699516609
   18      C      -3.1745790703     3.5742506165    -1.0191540164
   19      C      -3.7536445318    -1.6842654905     0.9818644151
   20      C      -5.1605561785    -2.3432654060     1.2743624374
   21      C      -5.9495581871    -1.9794750592    -0.0383684610
   22      C      -4.8699352798    -1.1264522993    -0.8102538471
   23      O      -3.5991248368    -1.8158308481    -0.4836771599
   24      H      -4.3753417045     0.1538233569     2.1308080280
   25      H      -5.7303847627     0.6543684508     0.2313759939
   26      H      -2.8976638716    -2.1516407592     1.5066648821
   27      H      -5.0561977246    -3.4331013818     1.3959822897
   28      H      -5.6311329042    -1.9305781601     2.1812667083
   29      H      -6.2087370702    -2.8817220368    -0.6150873886
   30      H      -6.8716943571    -1.4101030758     0.1601288764
   31      H      -4.9999460346    -1.0523816053    -1.9076030101
   32      O       2.0966332794    -0.2682316998     1.2320919846
   33      C       1.1478650579    -2.5099324265    -1.1497028494
   34      C       5.6639123507    -0.8077166680     0.1088847030
   35      C       6.8134097403     0.1188327852    -0.4478904037
   36      C       6.3150269077     1.5333989303     0.0313164262
   37      C       5.0045360505     1.1465735099     0.8260348794
   38      O       5.3168936121    -0.1780474561     1.4050792099
   39      H       4.6343884318    -0.4914554246    -1.8502855171
   40      H       3.7688752635     1.5769423919    -1.0115680685
   41      H       0.8398048122    -2.6011876577    -0.0877742920
   42      H       5.9224460655    -1.8746315628     0.2547931460
   43      H       7.7787011509    -0.1446908139     0.0128479767
   44      H       6.9119306882     0.0494248969    -1.5429307299
   45      H       7.0437861625     2.0144346012     0.7028078817
   46      H       6.1029245818     2.2171139449    -0.8062366241
   47      H       4.7081237650     1.8589312916     1.6205531237
   48      H       1.5400997371    -3.4901356259    -1.4887946285
   49      H       0.2735138792    -2.2265523277    -1.7643744540
   50      H      -2.8645132426     4.3698437906    -0.3168472893
   51      H      -3.9049383130     3.9872502541    -1.7451624927
   52      H      -2.2919326345     3.2096644004    -1.5819992680
   53      H      -0.5657116105     1.3409989844    -1.3163963780
   54      H       0.1004833081    -0.1479748969    -0.5753239186
   55      H      -0.1452884923     2.6338089850     0.8005028217
   56      H       0.3077947794     1.1093097441     1.6748051510
 ----------------------------------------------------------------
 Molecular Point Group                 C1    NOp =  1
 Largest Abelian Subgroup              C1    NOp =  1
 Nuclear Repulsion Energy =  3154.1637698095 hartrees
 There are      113 alpha and      113 beta electrons
 Applying Cartesian multipole field
    Component          Value
    ---------          -----
     (2,0,0)        1.00000E-12
     (0,2,0)        2.00000E-11
     (0,0,2)       -3.00000E-11
 Nucleus-field energy     =     0.0000000313 hartrees
 Requested basis set is STO-3G
 There are 86 shells and 176 basis functions
 A cutoff of  1.0D-12 yielded   2170 shell pairs
 There are     10123 function pairs
 Smallest overlap matrix eigenvalue = 2.13E-01
 Guess MOs from SCF MO coefficient file
 Reading MOs from coefficient file
 Reading MOs from coefficient file
 A restricted hybrid HF-DFT SCF calculation will be
 performed using Pulay DIIS extrapolation
 Exchange:     0.2000 Hartree-Fock + 0.0800 Slater + 0.7200 B88
 Correlation:  0.1900 VWN1RPA + 0.8100 LYP
 Using SG-1 standard quadrature grid
 Dispersion:   Grimme D3
 SCF converges when DIIS error is below 1.0E-08
 Geometry optimization detected.  Setting ReadMinima to 0
 Setting SaveMinima to 0
 using 48 threads for integral computing
 -------------------------------------------------------
 OpenMP Integral computing Module                
 Release: version 1.0, May 2013, Q-Chem Inc. Pittsburgh 
 -------------------------------------------------------
 -------------------------------------------------------
 OpenMP BLAS3 based DFT computing Module                
 Release: version 1.0, May 2013, Q-Chem Inc. Pittsburgh 
 -------------------------------------------------------
 ---------------------------------------
  Cycle       Energy         DIIS Error
 ---------------------------------------
    1   -1510.2237983015      3.46E-03
    2   -1510.2794360063      2.66E-04
    3   -1510.2793992045      3.72E-04
    4   -1510.2799142721      1.37E-04
    5   -1510.2799860554      5.16E-05
    6   -1510.2799981557      1.20E-05
    7   -1510.2799987597      5.33E-06
    8   -1510.2799988730      1.94E-06
    9   -1510.2799988907      3.90E-07
   10   -1510.2799988915      1.83E-07
   11   -1510.2799988916      8.26E-08
   12   -1510.2799988916      3.62E-08
   13   -1510.2799988917      7.82E-09 Convergence criterion met
 ---------------------------------------
 SCF time:  CPU 92.23 s  wall 1.93 s
 SCF   energy in the final basis set = -1510.27999889
 Total energy in the final basis set = -1510.27999889
 
 --------------------------------------------------------------
 
                    Orbital Energies (a.u.)
 --------------------------------------------------------------
 
 Alpha MOs
 -- Occupied --
-18.935 -18.934 -18.933 -18.928 -18.887 -18.887 -18.876 -18.876
-18.876 -18.873 -10.104 -10.100 -10.100 -10.096 -10.071 -10.070
-10.066 -10.061 -10.061 -10.059 -10.058 -10.056 -10.039 -10.038
-10.037 -10.036 -10.021 -10.020 -10.020 -10.019  -1.016  -1.014
 -1.006  -1.004  -0.970  -0.969  -0.941  -0.937  -0.937  -0.932
 -0.764  -0.763  -0.729  -0.723  -0.711  -0.705  -0.695  -0.664
 -0.659  -0.621  -0.597  -0.586  -0.547  -0.545  -0.537  -0.537
 -0.512  -0.510  -0.480  -0.477  -0.465  -0.461  -0.452  -0.442
 -0.438  -0.431  -0.430  -0.415  -0.409  -0.408  -0.406  -0.396
 -0.389  -0.377  -0.372  -0.366  -0.363  -0.357  -0.356  -0.349
 -0.345  -0.341  -0.338  -0.332  -0.331  -0.326  -0.326  -0.311
 -0.310  -0.305  -0.304  -0.301  -0.297  -0.290  -0.283  -0.277
 -0.274  -0.261  -0.255  -0.251  -0.239  -0.234  -0.233  -0.181
 -0.178  -0.174  -0.172  -0.158  -0.156  -0.149  -0.147  -0.143
 -0.143
 -- Virtual --
  0.090   0.093   0.111   0.112   0.204   0.236   0.237   0.261
  0.263   0.275   0.283   0.288   0.301   0.316   0.321   0.330
  0.331   0.336   0.345   0.346   0.349   0.360   0.361   0.370
  0.379   0.384   0.386   0.398   0.401   0.406   0.409   0.410
  0.414   0.415   0.421   0.423   0.425   0.428   0.431   0.431
  0.433   0.436   0.436   0.442   0.444   0.447   0.450   0.467
  0.468   0.479   0.483   0.488   0.490   0.504   0.508   0.538
  0.541   0.552   0.552   0.644   0.646   0.650   0.655
 --------------------------------------------------------------
 
          Ground-State Mulliken Net Atomic Charges

     Atom                 Charge (a.u.)
  ----------------------------------------
      1 O                    -0.208367
      2 C                     0.214426
      3 C                    -0.079315
      4 C                    -0.078742
      5 C                     0.211245
      6 O                    -0.172940
      7 C                    -0.053065
      8 C                    -0.053964
      9 O                    -0.169935
     10 C                     0.215918
     11 C                    -0.077390
     12 C                    -0.078281
     13 C                     0.215249
     14 O                    -0.212852
     15 O                    -0.178066
     16 O                    -0.174914
     17 O                    -0.213976
     18 C                    -0.128988
     19 C                     0.025706
     20 C                    -0.144206
     21 C                    -0.143541
     22 C                     0.024592
     23 O                    -0.186769
     24 H                     0.085640
     25 H                     0.083893
     26 H                     0.082773
     27 H                     0.078365
     28 H                     0.074166
     29 H                     0.078014
     30 H                     0.073071
     31 H                     0.089985
     32 O                    -0.212511
     33 C                    -0.131177
     34 C                     0.024625
     35 C                    -0.143619
     36 C                    -0.144150
     37 C                     0.025827
     38 O                    -0.186795
     39 H                     0.083896
     40 H                     0.087009
     41 H                     0.092638
     42 H                     0.091538
     43 H                     0.078436
     44 H                     0.073010
     45 H                     0.078218
     46 H                     0.073487
     47 H                     0.083016
     48 H                     0.089840
     49 H                     0.092541
     50 H                     0.090388
     51 H                     0.087562
     52 H                     0.087800
     53 H                     0.085133
     54 H                     0.093685
     55 H                     0.090771
     56 H                     0.111103
  ----------------------------------------
  Sum of atomic charges =     0.000000

 -----------------------------------------------------------------
                    Cartesian Multipole Moments
 -----------------------------------------------------------------
    Charge (ESU x 10^10)
                 0.0000
    Dipole Moment (Debye)
         X      -1.1480      Y       1.8651      Z      -1.5263
       Tot       2.6695
    Quadrupole Moments (Debye-Ang)
        XX    -140.6746     XY       9.0684     YY    -156.3449
        XZ     -13.4007     YZ      -0.3111     ZZ    -167.4943
    Octopole Moments (Debye-Ang^2)
       XXX     -31.9851    XXY      21.4207    XYY     -26.9284
       YYY      27.1270    XXZ     -21.1514    XYZ      23.7928
       YYZ     -12.6201    XZZ       5.3010    YZZ      -8.3948
       ZZZ      -6.7013
    Hexadecapole Moments (Debye-Ang^3)
      XXXX  -14733.2812   XXXY      88.3083   XXYY   -3056.1126
      XYYY    -110.7564   YYYY   -2642.9546   XXXZ    -261.6955
      XXYZ      31.7189   XYYZ      18.0992   YYYZ       8.9521
      XXZZ   -2867.6621   XYZZ       8.8964   YYZZ    -617.4972
      XZZZ     -57.6501   YZZZ      29.5732   ZZZZ   -1127.3133
 -----------------------------------------------------------------
 Calculating analytic gradient of the SCF energy
 Gradient of SCF Energy
            1           2           3           4           5           6
    1   0.0000416   0.0003672   0.0002945  -0.0013440   0.0023486   0.0004100
    2   0.0001479  -0.0007580   0.0003840  -0.0007478   0.0027628  -0.0008326
    3   0.0004704  -0.0029335   0.0024365  -0.0029255   0.0044812  -0.0001470
            7           8           9          10          11          12
    1   0.0007622  -0.0010036   0.0016355  -0.0020477   0.0000721   0.0007640
    2  -0.0005287   0.0008052  -0.0032395   0.0041740  -0.0000660  -0.0008130
    3  -0.0003517  -0.0006468   0.0009551  -0.0014811   0.0006254  -0.0001721
           13          14          15          16          17          18
    1   0.0000807  -0.0002546  -0.0004003  -0.0004473   0.0004217  -0.0002027
    2  -0.0000078   0.0000141  -0.0000152   0.0013539  -0.0019492  -0.0001373
    3  -0.0000059  -0.0002010   0.0008223   0.0000755   0.0004474   0.0001047
           19          20          21          22          23          24
    1  -0.0000751  -0.0000129   0.0000641   0.0000046   0.0002718  -0.0000377
    2  -0.0003712  -0.0000377  -0.0002345   0.0001909   0.0003488  -0.0000592
    3   0.0001670  -0.0000781   0.0001469   0.0000110   0.0001530  -0.0000312
           25          26          27          28          29          30
    1  -0.0000375   0.0000023  -0.0000081  -0.0000061   0.0000223  -0.0000894
    2   0.0000478   0.0000045   0.0000222   0.0000233   0.0000680  -0.0000429
    3  -0.0001337  -0.0000151  -0.0000279   0.0000072  -0.0000182  -0.0000029
           31          32          33          34          35          36
    1  -0.0000172  -0.0007789  -0.0000481  -0.0007179   0.0000929   0.0000201
    2  -0.0000063  -0.0011100   0.0009190   0.0001487  -0.0000064  -0.0001708
    3  -0.0000158  -0.0017384   0.0003149  -0.0001130  -0.0001360  -0.0000672
           37          38          39          40          41          42
    1  -0.0001666   0.0002518   0.0002465   0.0000609  -0.0001110  -0.0000278
    2   0.0003590   0.0002666  -0.0007080   0.0000293   0.0000248  -0.0000599
    3   0.0005227   0.0000939  -0.0000230  -0.0002159  -0.0000410  -0.0000623
           43          44          45          46          47          48
    1   0.0000732  -0.0001233  -0.0000595  -0.0000351   0.0001368   0.0000250
    2  -0.0000010   0.0000611   0.0000331  -0.0000844  -0.0000063   0.0000238
    3   0.0000061   0.0000095  -0.0000014  -0.0000407   0.0000827  -0.0000220
           49          50          51          52          53          54
    1   0.0000095   0.0000315   0.0000054  -0.0002957  -0.0002458   0.0000070
    2   0.0003305  -0.0000065   0.0000896   0.0002146  -0.0001104  -0.0008836
    3   0.0001432  -0.0000149  -0.0000262  -0.0000415   0.0001918  -0.0002689
           55          56
    1   0.0004487  -0.0003784
    2   0.0000204   0.0001261
    3  -0.0003369   0.0000682
 Max gradient component =       4.481E-03
 RMS gradient           =       8.473E-04
 Gradient time:  CPU 30.24 s  wall 0.64 s
 Geometry Optimization Parameters
   NAtoms,    NIC,     NZ,  NCons,   NDum,   NFix, NCnnct, MaxDiis
       56     458       0       0       0       0       0       0

 Cartesian Hessian Update
 Hessian Updated using BFGS Update


** GEOMETRY OPTIMIZATION IN DELOCALIZED INTERNAL COORDINATES **
   Searching for a Minimum

   Optimization Cycle:   2

                       Coordinates (Angstroms)
     ATOM                X               Y               Z
      1  O         3.5477407933   -2.8523644192   -0.0424197997
      2  C         3.3555568104   -1.7675443428   -0.6300803906
      3  C         4.3730282258   -0.5788871808   -0.7794676193
      4  C         3.8533750069    0.8104822871   -0.2216527399
      5  C         2.4769671117    0.6777765734    0.5068736384
      6  O         1.6653857064    1.8086366022    0.1644093501
      7  C         0.2875051556    1.6206668492    0.6926027151
      8  C        -0.5038971112    0.7625258756   -0.3694787265
      9  O        -1.8856909473    0.2923937910   -0.0928048119
     10  C        -2.4454585054    0.5491576571    1.1958873582
     11  C        -3.8708996418   -0.1089797086    1.1850313734
     12  C        -4.7398075565    0.2754762435   -0.0822371244
     13  C        -4.0828660141    1.3627665374   -1.0055781076
     14  O        -3.8970307778    1.3088837245   -2.2389116254
     15  O         2.1460983401   -1.4301340783   -1.3271428566
     16  O        -3.7765091354    2.5063336575   -0.1904480747
     17  O        -1.8864069419    1.0942199673    2.1699516609
     18  C        -3.1745790703    3.5742506165   -1.0191540164
     19  C        -3.7536445318   -1.6842654905    0.9818644151
     20  C        -5.1605561785   -2.3432654060    1.2743624374
     21  C        -5.9495581871   -1.9794750592   -0.0383684610
     22  C        -4.8699352798   -1.1264522993   -0.8102538471
     23  O        -3.5991248368   -1.8158308481   -0.4836771599
     24  H        -4.3753417045    0.1538233569    2.1308080280
     25  H        -5.7303847627    0.6543684508    0.2313759939
     26  H        -2.8976638716   -2.1516407592    1.5066648821
     27  H        -5.0561977246   -3.4331013818    1.3959822897
     28  H        -5.6311329042   -1.9305781601    2.1812667083
     29  H        -6.2087370702   -2.8817220368   -0.6150873886
     30  H        -6.8716943571   -1.4101030758    0.1601288764
     31  H        -4.9999460346   -1.0523816053   -1.9076030101
     32  O         2.0966332794   -0.2682316998    1.2320919846
     33  C         1.1478650579   -2.5099324265   -1.1497028494
     34  C         5.6639123507   -0.8077166680    0.1088847030
     35  C         6.8134097403    0.1188327852   -0.4478904037
     36  C         6.3150269077    1.5333989303    0.0313164262
     37  C         5.0045360505    1.1465735099    0.8260348794
     38  O         5.3168936121   -0.1780474561    1.4050792099
     39  H         4.6343884318   -0.4914554246   -1.8502855171
     40  H         3.7688752635    1.5769423919   -1.0115680685
     41  H         0.8398048122   -2.6011876577   -0.0877742920
     42  H         5.9224460655   -1.8746315628    0.2547931460
     43  H         7.7787011509   -0.1446908139    0.0128479767
     44  H         6.9119306882    0.0494248969   -1.5429307299
     45  H         7.0437861625    2.0144346012    0.7028078817
     46  H         6.1029245818    2.2171139449   -0.8062366241
     47  H         4.7081237650    1.8589312916    1.6205531237
     48  H         1.5400997371   -3.4901356259   -1.4887946285
     49  H         0.2735138792   -2.2265523277   -1.7643744540
     50  H        -2.8645132426    4.3698437906   -0.3168472893
     51  H        -3.9049383130    3.9872502541   -1.7451624927
     52  H        -2.2919326345    3.2096644004   -1.5819992680
     53  H        -0.5657116105    1.3409989844   -1.3163963780
     54  H         0.1004833081   -0.1479748969   -0.5753239186
     55  H        -0.1452884923    2.6338089850    0.8005028217
     56  H         0.3077947794    1.1093097441    1.6748051510
   Point Group: c1    Number of degrees of freedom:   162


   Energy is  -1510.279998892

 Hessian Updated using BFGS Update

149 Hessian modes will be used to form the next step
  Hessian Eigenvalues:
     0.001432    0.002227    0.002691    0.002711    0.003772    0.004141
     0.004307    0.004334    0.004455    0.004905    0.005100    0.006735
     0.006811    0.009004    0.010501    0.010786    0.011830    0.021669
     0.021713    0.025824    0.026250    0.030249    0.030872    0.034294
     0.035398    0.035868    0.038626    0.041084    0.041447    0.041923
     0.042757    0.046159    0.046836    0.047584    0.049227    0.051071
     0.051162    0.052904    0.053404    0.054040    0.054480    0.055077
     0.055204    0.055396    0.056283    0.056400    0.058995    0.059736
     0.060475    0.063603    0.063676    0.064117    0.064229    0.064627
     0.069968    0.069989    0.072928    0.073004    0.091913    0.092615
     0.092808    0.093059    0.095934    0.096621    0.096776    0.097186
     0.102486    0.102532    0.109268    0.110072    0.112006    0.121199
     0.123200    0.127692    0.134326    0.144245    0.157439    0.159889
     0.159999    0.161501    0.163042    0.168367    0.218788    0.219342
     0.220265    0.223350    0.228377    0.229476    0.238358    0.238468
     0.239615    0.239650    0.246331    0.246994    0.249267    0.249549
     0.249863    0.249897    0.249938    0.253364    0.253402    0.253623
     0.258661    0.259681    0.260179    0.265527    0.274481    0.292710
     0.293201    0.307458    0.307740    0.324218    0.324642    0.326476
     0.326560    0.327184    0.327657    0.328635    0.328655    0.328660
     0.328667    0.328726    0.329250    0.330291    0.330576    0.330578
     0.330713    0.332589    0.332841    0.334706    0.334848    0.334851
     0.334892    0.335017    0.335034    0.335099    0.335136    0.337205
     0.339596    0.344865    0.346059    0.400230    0.401308    0.405876
     0.412679    0.827915    0.837379    0.838277    0.838448

 Minimum Search - Taking Simple RFO Step
 Searching for Lamda that Minimizes Along All modes
 Value Taken    Lamda =  -0.00277344
 Calculated Step too Large.  Step scaled by  0.514271
 Step Taken.  Stepsize is  0.300000

                             Maximum     Tolerance    Cnvgd?
         Gradient           0.006869      0.000300      NO
         Displacement       0.071114      0.001200      NO
         Energy change     -0.000049      0.000001      NO


 New Cartesian Coordinates Obtained by Inverse Iteration

 Displacement from previous Coordinates is:  2.634220
 Adding empirical dispersion correction 
 ----------------------------------------------------------------
 Doing -D3(op) with
 s6 =   1.00000
 s8 =   0.78311
 a1 =   0.30000
 a2 =   4.25000
 n  =  10.00000
 -D3 energy without 3body term =     -0.0703648355 hartrees
 ----------------------------------------------------------------
             Standard Nuclear Orientation (Angstroms)
    I     Atom           X                Y                Z
 ----------------------------------------------------------------
    1      O       3.6705255073    -2.8037579151     0.1478102835
    2      C       3.4311527159    -1.7886834290    -0.5387695038
    3      C       4.3817893923    -0.5582374815    -0.7703322771
    4      C       3.8213017222     0.8269125219    -0.2394809880
    5      C       2.4751902410     0.6693793524     0.5393089571
    6      O       1.6152185302     1.7633811971     0.1938083706
    7      C       0.2513021320     1.5276163399     0.7384142591
    8      C      -0.5388888608     0.6888922458    -0.3390266971
    9      O      -1.9309882608     0.2392193461    -0.0809933704
   10      C      -2.4828884798     0.4570491226     1.2179954137
   11      C      -3.9357612105    -0.1370330380     1.1761023520
   12      C      -4.7729726721     0.3296672555    -0.0843582265
   13      C      -4.0404892521     1.3941981529    -0.9763585378
   14      O      -3.8235534585     1.3455269334    -2.2048070249
   15      O       2.2257387327    -1.5929954539    -1.2945838203
   16      O      -3.6294161445     2.4757589155    -0.1240176519
   17      O      -1.9191307744     0.9749144877     2.2041604367
   18      C      -2.8994784644     3.4934960922    -0.9120997891
   19      C      -3.8942757242    -1.7092895460     0.9273113402
   20      C      -5.3329900542    -2.3047097515     1.2001865895
   21      C      -6.1012957792    -1.8598906929    -0.0999808001
   22      C      -4.9773615176    -1.0440395580    -0.8486327455
   23      O      -3.7445743020    -1.8074365268    -0.5413729302
   24      H      -4.4355169433     0.1227165813     2.1252312546
   25      H      -5.7416649263     0.7590314949     0.2324745752
   26      H      -3.0638412102    -2.2333901431     1.4394406548
   27      H      -5.2846766074    -3.4016870356     1.2880901378
   28      H      -5.7825655491    -1.8965966606     2.1197243033
   29      H      -6.4082983319    -2.7296792304    -0.7025098211
   30      H      -6.9916524708    -1.2481386615     0.1165364780
   31      H      -5.1016303789    -0.9337478529    -1.9435897248
   32      O       2.1610582983    -0.2535541073     1.3235389109
   33      C       1.3029071736    -2.7286846935    -1.0635566657
   34      C       5.7122606755    -0.6971143841     0.0788857472
   35      C       6.7990222608     0.2597150754    -0.5482414202
   36      C       6.2544297857     1.6662875223    -0.0969923373
   37      C       4.9903472553     1.2486703973     0.7552253917
   38      O       5.3811511513    -0.0403247204     1.3655902667
   39      H       4.6036226844    -0.4993026324    -1.8519497662
   40      H       3.6789774835     1.5606653753    -1.0517622812
   41      H       0.9630367610    -2.7611102782    -0.0079215131
   42      H       6.0244372227    -1.7456940101     0.2504758622
   43      H       7.7902079852     0.0545131075    -0.1136873624
   44      H       6.8634498991     0.1574790543    -1.6432726540
   45      H       6.9833478197     2.2003171455     0.5330198933
   46      H       5.9838068225     2.3122292795    -0.9475789582
   47      H       4.6884094504     1.9739747137     1.5358251007
   48      H       1.7783371442    -3.6994666511    -1.3109183619
   49      H       0.4337586317    -2.5612086165    -1.7262396530
   50      H      -2.5257750855     4.2361201761    -0.1832584142
   51      H      -3.5647933835     3.9968465018    -1.6435488624
   52      H      -2.0458417794     3.0510897927    -1.4639898287
   53      H      -0.5894131235     1.2846642106    -1.2759307482
   54      H       0.0575435701    -0.2236024029    -0.5572195127
   55      H      -0.1998686959     2.5287903665     0.8786605532
   56      H       0.2946317284     0.9912610042     1.7064394738
 ----------------------------------------------------------------
 Molecular Point Group                 C1    NOp =  1
 Largest Abelian Subgroup              C1    NOp =  1
 Nuclear Repulsion Energy =  3148.3170734810 hartrees
 There are      113 alpha and      113 beta electrons
 Applying Cartesian multipole field
    Component          Value
    ---------          -----
     (2,0,0)        1.00000E-12
     (0,2,0)        2.00000E-11
     (0,0,2)       -3.00000E-11
 Nucleus-field energy     =     0.0000000319 hartrees
 Requested basis set is STO-3G
 There are 86 shells and 176 basis functions
 A cutoff of  1.0D-12 yielded   2164 shell pairs
 There are     10117 function pairs
 Smallest overlap matrix eigenvalue = 2.13E-01
 Guess MOs from SCF MO coefficient file
 Reading MOs from coefficient file
 Reading MOs from coefficient file
 A restricted hybrid HF-DFT SCF calculation will be
 performed using Pulay DIIS extrapolation
 Exchange:     0.2000 Hartree-Fock + 0.0800 Slater + 0.7200 B88
 Correlation:  0.1900 VWN1RPA + 0.8100 LYP
 Using SG-1 standard quadrature grid
 Dispersion:   Grimme D3
 SCF converges when DIIS error is below 1.0E-08
 Geometry optimization detected.  Setting ReadMinima to 0
 Setting SaveMinima to 0
 using 48 threads for integral computing
 -------------------------------------------------------
 OpenMP Integral computing Module                
 Release: version 1.0, May 2013, Q-Chem Inc. Pittsburgh 
 -------------------------------------------------------
 -------------------------------------------------------
 OpenMP BLAS3 based DFT computing Module                
 Release: version 1.0, May 2013, Q-Chem Inc. Pittsburgh 
 -------------------------------------------------------
 ---------------------------------------
  Cycle       Energy         DIIS Error
 ---------------------------------------
    1   -1510.2125194837      3.95E-03
    2   -1510.2794049284      3.02E-04
    3   -1510.2792578094      4.54E-04
    4   -1510.2800703547      1.48E-04
    5   -1510.2801599700      4.57E-05
    6   -1510.2801687654      1.65E-05
    7   -1510.2801697991      8.41E-06
    8   -1510.2801701052      1.89E-06
    9   -1510.2801701233      4.51E-07
   10   -1510.2801701244      3.00E-07
   11   -1510.2801701247      1.27E-07
   12   -1510.2801701248      3.46E-08
   13   -1510.2801701249      8.66E-09 Convergence criterion met
 ---------------------------------------
 SCF time:  CPU 91.35 s  wall 1.91 s
 SCF   energy in the final basis set = -1510.28017012
 Total energy in the final basis set = -1510.28017012
 
 --------------------------------------------------------------
 
                    Orbital Energies (a.u.)
 --------------------------------------------------------------
 
 Alpha MOs
 -- Occupied --
-18.936 -18.934 -18.933 -18.928 -18.888 -18.887 -18.877 -18.876
-18.876 -18.873 -10.105 -10.101 -10.101 -10.096 -10.073 -10.070
-10.066 -10.061 -10.061 -10.059 -10.058 -10.056 -10.039 -10.038
-10.037 -10.036 -10.021 -10.020 -10.020 -10.019  -1.017  -1.014
 -1.006  -1.004  -0.970  -0.970  -0.941  -0.937  -0.937  -0.932
 -0.765  -0.763  -0.729  -0.723  -0.712  -0.705  -0.695  -0.664
 -0.659  -0.621  -0.597  -0.587  -0.547  -0.545  -0.538  -0.537
 -0.512  -0.510  -0.481  -0.478  -0.465  -0.461  -0.452  -0.443
 -0.438  -0.431  -0.430  -0.415  -0.409  -0.409  -0.406  -0.397
 -0.389  -0.378  -0.373  -0.367  -0.365  -0.357  -0.356  -0.349
 -0.345  -0.341  -0.338  -0.332  -0.332  -0.326  -0.326  -0.311
 -0.310  -0.306  -0.304  -0.302  -0.297  -0.291  -0.282  -0.277
 -0.274  -0.260  -0.255  -0.251  -0.240  -0.234  -0.233  -0.180
 -0.178  -0.174  -0.172  -0.159  -0.156  -0.149  -0.148  -0.143
 -0.143
 -- Virtual --
  0.090   0.092   0.111   0.112   0.203   0.235   0.237   0.261
  0.263   0.274   0.284   0.288   0.301   0.316   0.321   0.330
  0.331   0.336   0.345   0.345   0.349   0.361   0.361   0.368
  0.376   0.384   0.385   0.397   0.401   0.406   0.409   0.410
  0.412   0.415   0.421   0.423   0.425   0.427   0.429   0.430
  0.432   0.435   0.436   0.441   0.445   0.448   0.450   0.466
  0.467   0.476   0.487   0.489   0.490   0.504   0.507   0.538
  0.541   0.551   0.552   0.644   0.645   0.650   0.654
 --------------------------------------------------------------
 
          Ground-State Mulliken Net Atomic Charges

     Atom                 Charge (a.u.)
  ----------------------------------------
      1 O                    -0.207881
      2 C                     0.213268
      3 C                    -0.079312
      4 C                    -0.078730
      5 C                     0.209959
      6 O                    -0.173482
      7 C                    -0.053477
      8 C                    -0.052902
      9 O                    -0.170116
     10 C                     0.216838
     11 C                    -0.077539
     12 C                    -0.078386
     13 C                     0.216105
     14 O                    -0.212562
     15 O                    -0.177447
     16 O                    -0.175234
     17 O                    -0.213644
     18 C                    -0.128938
     19 C                     0.025618
     20 C                    -0.144130
     21 C                    -0.143636
     22 C                     0.024768
     23 O                    -0.186732
     24 H                     0.085739
     25 H                     0.083743
     26 H                     0.082606
     27 H                     0.078260
     28 H                     0.074111
     29 H                     0.078051
     30 H                     0.073135
     31 H                     0.090074
     32 O                    -0.210679
     33 C                    -0.130896
     34 C                     0.024852
     35 C                    -0.143749
     36 C                    -0.144110
     37 C                     0.025924
     38 O                    -0.186368
     39 H                     0.083900
     40 H                     0.086869
     41 H                     0.091733
     42 H                     0.091143
     43 H                     0.078454
     44 H                     0.072980
     45 H                     0.078254
     46 H                     0.073494
     47 H                     0.083127
     48 H                     0.089833
     49 H                     0.091607
     50 H                     0.090168
     51 H                     0.087774
     52 H                     0.087472
     53 H                     0.085585
     54 H                     0.091938
     55 H                     0.090677
     56 H                     0.111890
  ----------------------------------------
  Sum of atomic charges =     0.000000

 -----------------------------------------------------------------
                    Cartesian Multipole Moments
 -----------------------------------------------------------------
    Charge (ESU x 10^10)
                 0.0000
    Dipole Moment (Debye)
         X      -1.2419      Y       1.7558      Z      -1.6510
       Tot       2.7112
    Quadrupole Moments (Debye-Ang)
        XX    -141.6596     XY       9.0371     YY    -155.5242
        XZ     -14.5679     YZ       0.1355     ZZ    -168.3099
    Octopole Moments (Debye-Ang^2)
       XXX     -43.7588    XXY      21.5323    XYY     -21.3443
       YYY      20.7818    XXZ     -26.5332    XYZ      23.5546
       YYZ     -12.9388    XZZ       4.0869    YZZ      -7.7442
       ZZZ     -10.6924
    Hexadecapole Moments (Debye-Ang^3)
      XXXX  -14944.0561   XXXY      32.1267   XXYY   -3094.5692
      XYYY    -171.5010   YYYY   -2632.0179   XXXZ    -260.0847
      XXYZ      36.3510   XYYZ      15.6266   YYYZ      13.8501
      XXZZ   -2904.7115   XYZZ     -11.9757   YYZZ    -616.5120
      XZZZ     -24.0919   YZZZ      22.4800   ZZZZ   -1104.0366
 -----------------------------------------------------------------
 Calculating analytic gradient of the SCF energy
 Gradient of SCF Energy
            1           2           3           4           5           6
    1   0.0000531   0.0002550  -0.0006457  -0.0005953   0.0011908   0.0011009
    2   0.0006281  -0.0010796   0.0008975  -0.0008711   0.0026743   0.0007899
    3   0.0005528  -0.0025151   0.0013605  -0.0015102   0.0025550   0.0007515
            7           8           9          10          11          12
    1   0.0014686  -0.0008977  -0.0002335  -0.0003685  -0.0008754   0.0025980
    2  -0.0028731   0.0005305  -0.0006310  -0.0001437   0.0008858  -0.0011915
    3  -0.0005624  -0.0004883   0.0005076  -0.0009282  -0.0005203   0.0007642
           13          14          15          16          17          18
    1  -0.0050806   0.0019506  -0.0004704   0.0012883  -0.0002322   0.0003849
    2   0.0027052  -0.0011136  -0.0011603  -0.0006714   0.0000783  -0.0003888
    3  -0.0004786   0.0001606  -0.0006016   0.0003710   0.0002728   0.0002246
           19          20          21          22          23          24
    1   0.0002771  -0.0000713   0.0001232  -0.0000169   0.0001497  -0.0000632
    2  -0.0006694  -0.0001124  -0.0000368   0.0000683  -0.0000248   0.0001230
    3   0.0002525  -0.0001976   0.0004112   0.0000516   0.0001487  -0.0000867
           25          26          27          28          29          30
    1  -0.0000377   0.0000076   0.0000565  -0.0000067  -0.0000346  -0.0001153
    2   0.0002707  -0.0000752   0.0000199   0.0001519   0.0000023  -0.0000256
    3  -0.0002562   0.0000159   0.0000214  -0.0000719  -0.0000378  -0.0000770
           31          32          33          34          35          36
    1   0.0000077   0.0000188   0.0001778  -0.0007573   0.0004306  -0.0002200
    2   0.0000198   0.0000469   0.0000196   0.0001473   0.0000468  -0.0002816
    3   0.0000210   0.0005909  -0.0000219   0.0000301  -0.0000107  -0.0001037
           37          38          39          40          41          42
    1  -0.0004088   0.0001449   0.0007420  -0.0002109  -0.0000233  -0.0000758
    2   0.0001900   0.0003550  -0.0008922  -0.0000283   0.0001595  -0.0001674
    3   0.0000674   0.0001193  -0.0000489  -0.0002238  -0.0000538  -0.0001101
           43          44          45          46          47          48
    1   0.0000189  -0.0001079   0.0000369   0.0001372   0.0001278   0.0000859
    2   0.0000512  -0.0000598   0.0000338   0.0000859  -0.0000174  -0.0000418
    3  -0.0000035   0.0000281  -0.0000361   0.0000462   0.0000120  -0.0000870
           49          50          51          52          53          54
    1   0.0000092   0.0000562  -0.0001116   0.0001840  -0.0007244  -0.0004063
    2  -0.0001462  -0.0000246   0.0000102  -0.0000519   0.0005740   0.0006923
    3   0.0000314  -0.0000598  -0.0000702  -0.0001008   0.0003888  -0.0001290
           55          56
    1   0.0009147  -0.0012057
    2   0.0001781   0.0003438
    3  -0.0005999   0.0002339
 Max gradient component =       5.081E-03
 RMS gradient           =       8.043E-04
 Gradient time:  CPU 30.33 s  wall 0.64 s
 Geometry Optimization Parameters
   NAtoms,    NIC,     NZ,  NCons,   NDum,   NFix, NCnnct, MaxDiis
       56     458       0       0       0       0       0       0

 Cartesian Hessian Update
 Hessian Updated using BFGS Update


** GEOMETRY OPTIMIZATION IN DELOCALIZED INTERNAL COORDINATES **
   Searching for a Minimum

   Optimization Cycle:   3

                       Coordinates (Angstroms)
     ATOM                X               Y               Z
      1  O         3.6705255073   -2.8037579151    0.1478102835
      2  C         3.4311527159   -1.7886834290   -0.5387695038
      3  C         4.3817893923   -0.5582374815   -0.7703322771
      4  C         3.8213017222    0.8269125219   -0.2394809880
      5  C         2.4751902410    0.6693793524    0.5393089571
      6  O         1.6152185302    1.7633811971    0.1938083706
      7  C         0.2513021320    1.5276163399    0.7384142591
      8  C        -0.5388888608    0.6888922458   -0.3390266971
      9  O        -1.9309882608    0.2392193461   -0.0809933704
     10  C        -2.4828884798    0.4570491226    1.2179954137
     11  C        -3.9357612105   -0.1370330380    1.1761023520
     12  C        -4.7729726721    0.3296672555   -0.0843582265
     13  C        -4.0404892521    1.3941981529   -0.9763585378
     14  O        -3.8235534585    1.3455269334   -2.2048070249
     15  O         2.2257387327   -1.5929954539   -1.2945838203
     16  O        -3.6294161445    2.4757589155   -0.1240176519
     17  O        -1.9191307744    0.9749144877    2.2041604367
     18  C        -2.8994784644    3.4934960922   -0.9120997891
     19  C        -3.8942757242   -1.7092895460    0.9273113402
     20  C        -5.3329900542   -2.3047097515    1.2001865895
     21  C        -6.1012957792   -1.8598906929   -0.0999808001
     22  C        -4.9773615176   -1.0440395580   -0.8486327455
     23  O        -3.7445743020   -1.8074365268   -0.5413729302
     24  H        -4.4355169433    0.1227165813    2.1252312546
     25  H        -5.7416649263    0.7590314949    0.2324745752
     26  H        -3.0638412102   -2.2333901431    1.4394406548
     27  H        -5.2846766074   -3.4016870356    1.2880901378
     28  H        -5.7825655491   -1.8965966606    2.1197243033
     29  H        -6.4082983319   -2.7296792304   -0.7025098211
     30  H        -6.9916524708   -1.2481386615    0.1165364780
     31  H        -5.1016303789   -0.9337478529   -1.9435897248
     32  O         2.1610582983   -0.2535541073    1.3235389109
     33  C         1.3029071736   -2.7286846935   -1.0635566657
     34  C         5.7122606755   -0.6971143841    0.0788857472
     35  C         6.7990222608    0.2597150754   -0.5482414202
     36  C         6.2544297857    1.6662875223   -0.0969923373
     37  C         4.9903472553    1.2486703973    0.7552253917
     38  O         5.3811511513   -0.0403247204    1.3655902667
     39  H         4.6036226844   -0.4993026324   -1.8519497662
     40  H         3.6789774835    1.5606653753   -1.0517622812
     41  H         0.9630367610   -2.7611102782   -0.0079215131
     42  H         6.0244372227   -1.7456940101    0.2504758622
     43  H         7.7902079852    0.0545131075   -0.1136873624
     44  H         6.8634498991    0.1574790543   -1.6432726540
     45  H         6.9833478197    2.2003171455    0.5330198933
     46  H         5.9838068225    2.3122292795   -0.9475789582
     47  H         4.6884094504    1.9739747137    1.5358251007
     48  H         1.7783371442   -3.6994666511   -1.3109183619
     49  H         0.4337586317   -2.5612086165   -1.7262396530
     50  H        -2.5257750855    4.2361201761   -0.1832584142
     51  H        -3.5647933835    3.9968465018   -1.6435488624
     52  H        -2.0458417794    3.0510897927   -1.4639898287
     53  H        -0.5894131235    1.2846642106   -1.2759307482
     54  H         0.0575435701   -0.2236024029   -0.5572195127
     55  H        -0.1998686959    2.5287903665    0.8786605532
     56  H         0.2946317284    0.9912610042    1.7064394738
   Point Group: c1    Number of degrees of freedom:   162


   Energy is  -1510.280170125

 Hessian Updated using BFGS Update

152 Hessian modes will be used to form the next step
  Hessian Eigenvalues:
     0.001815    0.002143    0.002360    0.002701    0.002758    0.003933
     0.004184    0.004333    0.004450    0.004904    0.005097    0.006159
     0.006695    0.006890    0.010233    0.010765    0.011766    0.014694
     0.021650    0.021712    0.025540    0.026247    0.030356    0.030795
     0.034264    0.035365    0.036081    0.037690    0.040973    0.041596
     0.041954    0.042198    0.045328    0.046817    0.047573    0.050969
     0.050996    0.052391    0.053338    0.053475    0.054378    0.054420
     0.054953    0.055147    0.055355    0.056330    0.056937    0.058984
     0.060179    0.060441    0.063656    0.063699    0.064211    0.064261
     0.068009    0.069964    0.069998    0.072936    0.073071    0.091960
     0.092618    0.092807    0.093035    0.095935    0.096621    0.096915
     0.099156    0.102486    0.102530    0.109261    0.110122    0.111178
     0.121232    0.123290    0.134002    0.137211    0.144298    0.157513
     0.159954    0.159988    0.160001    0.162817    0.163481    0.180851
     0.218752    0.219470    0.220585    0.221510    0.228423    0.233336
     0.238384    0.238769    0.239612    0.239705    0.246372    0.246989
     0.249148    0.249453    0.249550    0.249882    0.249927    0.250276
     0.253363    0.253403    0.253702    0.258465    0.259681    0.260117
     0.265626    0.292497    0.292733    0.299559    0.307472    0.312460
     0.324560    0.326447    0.326553    0.326916    0.327214    0.328624
     0.328635    0.328655    0.328664    0.328707    0.329111    0.330029
     0.330350    0.330576    0.330705    0.330974    0.332566    0.332840
     0.334707    0.334847    0.334851    0.334910    0.335017    0.335036
     0.335100    0.335141    0.338167    0.339534    0.344979    0.346048
     0.400517    0.401395    0.405031    0.413150    0.827949    0.837416
     0.838267    0.838492

 Minimum Search - Taking Simple RFO Step
 Searching for Lamda that Minimizes Along All modes
 Value Taken    Lamda =  -0.00219165
 Calculated Step too Large.  Step scaled by  0.645512
 Step Taken.  Stepsize is  0.300000

                             Maximum     Tolerance    Cnvgd?
         Gradient           0.004843      0.000300      NO
         Displacement       0.085720      0.001200      NO
         Energy change     -0.000171      0.000001      NO


 New Cartesian Coordinates Obtained by Inverse Iteration

 Displacement from previous Coordinates is:  1.967572
 Adding empirical dispersion correction 
 ----------------------------------------------------------------
 Doing -D3(op) with
 s6 =   1.00000
 s8 =   0.78311
 a1 =   0.30000
 a2 =   4.25000
 n  =  10.00000
 -D3 energy without 3body term =     -0.0697928317 hartrees
 ----------------------------------------------------------------
             Standard Nuclear Orientation (Angstroms)
    I     Atom           X                Y                Z
 ----------------------------------------------------------------
    1      O       3.8473607812    -2.8283911945     0.1536835421
    2      C       3.5678521250    -1.8305012411    -0.5428997056
    3      C       4.4659224451    -0.5633382383    -0.7845847179
    4      C       3.8358626396     0.7987847655    -0.2740680816
    5      C       2.4663639531     0.5879030047     0.4494685441
    6      O       1.5948911922     1.6737810585     0.1042728577
    7      C       0.2428366164     1.4382727059     0.6761040942
    8      C      -0.5449409781     0.5543908764    -0.3646021171
    9      O      -1.9463891365     0.1433795297    -0.0952965086
   10      C      -2.4721786029     0.3772129249     1.2115962266
   11      C      -3.9521795250    -0.1482058854     1.1879451260
   12      C      -4.7941144345     0.3847849127    -0.0436108297
   13      C      -4.0228304253     1.4175720051    -0.9400976859
   14      O      -3.8770575410     1.3955650042    -2.1796945826
   15      O       2.3608897088    -1.6967319521    -1.3092114791
   16      O      -3.6066271317     2.5044137312    -0.0976054139
   17      O      -1.8814313882     0.8926431791     2.1831558110
   18      C      -2.9109119382     3.5328394306    -0.9027844822
   19      C      -3.9966898278    -1.7149411763     0.9107839202
   20      C      -5.4560705710    -2.2406358909     1.2152758874
   21      C      -6.2368505510    -1.7316921101    -0.0539075861
   22      C      -5.0929795915    -0.9634097048    -0.8222656935
   23      O      -3.8939282735    -1.7951306226    -0.5630945668
   24      H      -4.4178627645     0.1181316803     2.1524885363
   25      H      -5.7291161295     0.8616135937     0.3048065906
   26      H      -3.1805646052    -2.2895848928     1.3906340186
   27      H      -5.4627821334    -3.3401176107     1.2825584046
   28      H      -5.8573293361    -1.8276194391     2.1547734489
   29      H      -6.6072944172    -2.5730241504    -0.6611349380
   30      H      -7.0862889282    -1.0774971556     0.1994911507
   31      H      -5.2418810362    -0.8282157233    -1.9113364664
   32      O       2.1712847398    -0.3235180612     1.2541529606
   33      C       1.4975447303    -2.8802446287    -1.0853522341
   34      C       5.7871774327    -0.6353395042     0.0882741182
   35      C       6.8366302875     0.3795888322    -0.5106808172
   36      C       6.2168057987     1.7542142124    -0.0581356936
   37      C       4.9536266825     1.2675595935     0.7575547810
   38      O       5.3929678475    -0.0047738287     1.3700846123
   39      H       4.6976847477    -0.5024366866    -1.8639078560
   40      H       3.6933325780     1.5260699955    -1.0918827001
   41      H       1.1514473293    -2.9310953692    -0.0324229474
   42      H       6.1497085249    -1.6668861880     0.2635458427
   43      H       7.8278985720     0.2187873737    -0.0581104749
   44      H       6.9278928496     0.2903084688    -1.6049781299
   45      H       6.9045653746     2.3146151258     0.5948220244
   46      H       5.9359999785     2.3960194048    -0.9085848706
   47      H       4.5945203863     1.9715811622     1.5334324687
   48      H       2.0259184344    -3.8244054611    -1.3280689074
   49      H       0.6262443620    -2.7596730407    -1.7554007640
   50      H      -2.5360407555     4.2840160223    -0.1833443122
   51      H      -3.5993856484     4.0221595346    -1.6220902394
   52      H      -2.0607566894     3.1035834252    -1.4702343362
   53      H      -0.5799047485     1.1048038628    -1.3296452804
   54      H       0.0421044428    -0.3745873931    -0.5336220054
   55      H      -0.2230864808     2.4360838903     0.7919654829
   56      H       0.3094983647     0.9323261316     1.6590603314
 ----------------------------------------------------------------
 Molecular Point Group                 C1    NOp =  1
 Largest Abelian Subgroup              C1    NOp =  1
 Nuclear Repulsion Energy =  3134.9771812260 hartrees
 There are      113 alpha and      113 beta electrons
 Applying Cartesian multipole field
    Component          Value
    ---------          -----
     (2,0,0)        1.00000E-12
     (0,2,0)        2.00000E-11
     (0,0,2)       -3.00000E-11
 Nucleus-field energy     =     0.0000000330 hartrees
 Requested basis set is STO-3G
 There are 86 shells and 176 basis functions
 A cutoff of  1.0D-12 yielded   2140 shell pairs
 There are      9988 function pairs
 Smallest overlap matrix eigenvalue = 2.13E-01
 Guess MOs from SCF MO coefficient file
 Reading MOs from coefficient file
 Reading MOs from coefficient file
 A restricted hybrid HF-DFT SCF calculation will be
 performed using Pulay DIIS extrapolation
 Exchange:     0.2000 Hartree-Fock + 0.0800 Slater + 0.7200 B88
 Correlation:  0.1900 VWN1RPA + 0.8100 LYP
[...]
      7  C         0.1744137655    1.3368456707    0.0718317796
      8  C        -0.5359095247    0.1016231121   -0.6054326824
      9  O        -2.0032571788    0.0688315472   -0.3927159294
     10  C        -2.3204799450   -0.1674395348    0.9848933990
     11  C        -3.8612627817   -0.4011641436    1.1167672652
     12  C        -4.7820966442    0.5166154747    0.2096317019
     13  C        -4.0342654263    1.6029243159   -0.6424254027
     14  O        -4.0656267763    1.7448038866   -1.8827087631
     15  O         2.7537135122   -2.0315720635   -1.2052732194
     16  O        -3.3682674590    2.5045531574    0.2548646187
     17  O        -1.4745969233   -0.2363740208    1.9031598125
     18  C        -2.7536439756    3.6089133500   -0.5154097511
     19  C        -4.2498241562   -1.8416189424    0.5522859900
     20  C        -5.7022157358   -2.1992916194    1.0622620851
     21  C        -6.5867596349   -1.3016626115    0.1198819616
     22  C        -5.4756259710   -0.5629326009   -0.7223775192
     23  O        -4.4293597451   -1.5984234152   -0.8946501057
     24  H        -4.1223394908   -0.3064926772    2.1853736174
     25  H        -5.5254187307    1.0405470194    0.8384452671
     26  H        -3.4848284065   -2.6234708527    0.7254835480
     27  H        -5.9096181864   -3.2709976232    0.9138722617
     28  H        -5.8349238494   -1.9574872091    2.1287905196
     29  H        -7.2257918696   -1.9129542370   -0.5372885223
     30  H        -7.2242536170   -0.5964173429    0.6767862682
     31  H        -5.7915707786   -0.1667126677   -1.7070949476
     32  O         2.0776697400   -0.3409697736    0.9227083228
     33  C         1.8984786168   -3.1730498416   -0.8110321537
     34  C         5.8676428368   -0.3840805450    0.3276213211
     35  C         6.8847417854    0.6207486780   -0.3393466394
     36  C         6.0980927943    1.9780251972   -0.2076145182
     37  C         4.7917760177    1.5034527431    0.5457747836
     38  O         5.2655783406    0.4120621490    1.4234642520
     39  H         5.0030188374   -0.7277308225   -1.7145183864
     40  H         3.7693685130    1.3026957942   -1.4473475271
     41  H         1.4470353255   -3.0084318371    0.1891707977
     42  H         6.3003612141   -1.3214247237    0.7278457612
     43  H         7.8289907047    0.6463328886    0.2273209002
     44  H         7.1065436928    0.3564126341   -1.3855882657
     45  H         6.6505755567    2.7087236544    0.4042519154
     46  H         5.8693505753    2.4352284879   -1.1835503267
     47  H         4.2784372570    2.2860135831    1.1379271888
     48  H         2.4670483511   -4.1250528121   -0.7883529435
     49  H         1.0999755720   -3.2365509404   -1.5732773712
     50  H        -2.1536431505    4.1933394518    0.2063465995
     51  H        -3.5253775538    4.2657268054   -0.9673779798
     52  H        -2.1021542557    3.2302141227   -1.3288587247
     53  H        -0.4034668386    0.1506019779   -1.7050028841
     54  H        -0.0655367258   -0.8284149927   -0.2212933241
     55  H        -0.3656896293    2.2709625981   -0.1736050045
     56  H         0.1801163575    1.1818861264    1.1710930579
   Point Group: c1    Number of degrees of freedom:   162


   Energy is  -1510.287749119

 Hessian Updated using BFGS Update

162 Hessian modes will be used to form the next step
  Hessian Eigenvalues:
     0.001642    0.002157    0.002446    0.002734    0.003694    0.004209
     0.004814    0.005415    0.005735    0.006006    0.007775    0.010527
     0.011431    0.013980    0.015120    0.021565    0.021743    0.024427
     0.024507    0.025856    0.029746    0.030907    0.031636    0.032340
     0.034801    0.035521    0.036720    0.040353    0.041297    0.041759
     0.042748    0.043406    0.044815    0.046753    0.048143    0.050525
     0.051646    0.052130    0.053062    0.053785    0.054196    0.054592
     0.054662    0.055407    0.056410    0.056870    0.057175    0.059610
     0.059891    0.062428    0.063024    0.063709    0.064158    0.064361
     0.064405    0.065630    0.070169    0.070492    0.072990    0.073072
     0.081120    0.092751    0.093106    0.093569    0.095282    0.096769
     0.097061    0.099617    0.101888    0.102621    0.103957    0.107776
     0.113945    0.116853    0.124864    0.135414    0.138263    0.142942
     0.146843    0.159862    0.159921    0.159964    0.160104    0.160142
     0.160420    0.164669    0.165135    0.177409    0.198546    0.219100
     0.220684    0.226514    0.231272    0.234896    0.235799    0.238904
     0.239582    0.239865    0.243542    0.245303    0.246315    0.248754
     0.249298    0.249662    0.250176    0.251439    0.252854    0.253319
     0.253690    0.254790    0.256023    0.258330    0.260134    0.263960
     0.265637    0.268041    0.277905    0.292748    0.293313    0.300027
     0.306215    0.311124    0.318582    0.325028    0.326407    0.326563
     0.327193    0.327471    0.328624    0.328643    0.328684    0.328729
     0.328918    0.329548    0.330427    0.330564    0.330630    0.330726
     0.332002    0.332850    0.332876    0.334742    0.334863    0.334892
     0.334910    0.335033    0.335100    0.335132    0.335300    0.344568
     0.346110    0.354922    0.391859    0.401915    0.403385    0.415637
     0.448195    0.546116    0.827498    0.837294    0.837806    0.839662

 Minimum Search - Taking Simple RFO Step
 Searching for Lamda that Minimizes Along All modes
 Value Taken    Lamda =   0.00000000
 Step Taken.  Stepsize is  0.008345

                             Maximum     Tolerance    Cnvgd?
         Gradient           0.000119      0.000300     YES
         Displacement       0.003767      0.001200      NO
         Energy change      0.000001      0.000001     YES

 Final energy is   -1510.28774911911     


 ******************************
 **  OPTIMIZATION CONVERGED  **
 ******************************

                       Coordinates (Angstroms)
     ATOM                X               Y               Z
      1  O         4.0915653258   -2.7006059920    0.6419998740
      2  C         3.8375467232   -1.8913934713   -0.2740078743
      3  C         4.6591111550   -0.6115481675   -0.6706390751
      4  C         3.8577783840    0.7456096367   -0.4985190704
      5  C         2.4279706384    0.5277532451    0.0930617252
      6  O         1.5482627038    1.5138264625   -0.4603333261
      7  C         0.1744137655    1.3368456707    0.0718317796
      8  C        -0.5359095247    0.1016231121   -0.6054326824
      9  O        -2.0032571788    0.0688315472   -0.3927159294
     10  C        -2.3204799450   -0.1674395348    0.9848933990
     11  C        -3.8612627817   -0.4011641436    1.1167672652
     12  C        -4.7820966442    0.5166154747    0.2096317019
     13  C        -4.0342654263    1.6029243159   -0.6424254027
     14  O        -4.0656267763    1.7448038866   -1.8827087631
     15  O         2.7537135122   -2.0315720635   -1.2052732194
     16  O        -3.3682674590    2.5045531574    0.2548646187
     17  O        -1.4745969233   -0.2363740208    1.9031598125
     18  C        -2.7536439756    3.6089133500   -0.5154097511
     19  C        -4.2498241562   -1.8416189424    0.5522859900
     20  C        -5.7022157358   -2.1992916194    1.0622620851
     21  C        -6.5867596349   -1.3016626115    0.1198819616
     22  C        -5.4756259710   -0.5629326009   -0.7223775192
     23  O        -4.4293597451   -1.5984234152   -0.8946501057
     24  H        -4.1223394908   -0.3064926772    2.1853736174
     25  H        -5.5254187307    1.0405470194    0.8384452671
     26  H        -3.4848284065   -2.6234708527    0.7254835480
     27  H        -5.9096181864   -3.2709976232    0.9138722617
     28  H        -5.8349238494   -1.9574872091    2.1287905196
     29  H        -7.2257918696   -1.9129542370   -0.5372885223
     30  H        -7.2242536170   -0.5964173429    0.6767862682
     31  H        -5.7915707786   -0.1667126677   -1.7070949476
     32  O         2.0776697400   -0.3409697736    0.9227083228
     33  C         1.8984786168   -3.1730498416   -0.8110321537
     34  C         5.8676428368   -0.3840805450    0.3276213211
     35  C         6.8847417854    0.6207486780   -0.3393466394
     36  C         6.0980927943    1.9780251972   -0.2076145182
     37  C         4.7917760177    1.5034527431    0.5457747836
     38  O         5.2655783406    0.4120621490    1.4234642520
     39  H         5.0030188374   -0.7277308225   -1.7145183864
     40  H         3.7693685130    1.3026957942   -1.4473475271
     41  H         1.4470353255   -3.0084318371    0.1891707977
     42  H         6.3003612141   -1.3214247237    0.7278457612
     43  H         7.8289907047    0.6463328886    0.2273209002
     44  H         7.1065436928    0.3564126341   -1.3855882657
     45  H         6.6505755567    2.7087236544    0.4042519154
     46  H         5.8693505753    2.4352284879   -1.1835503267
     47  H         4.2784372570    2.2860135831    1.1379271888
     48  H         2.4670483511   -4.1250528121   -0.7883529435
     49  H         1.0999755720   -3.2365509404   -1.5732773712
     50  H        -2.1536431505    4.1933394518    0.2063465995
     51  H        -3.5253775538    4.2657268054   -0.9673779798
     52  H        -2.1021542557    3.2302141227   -1.3288587247
     53  H        -0.4034668386    0.1506019779   -1.7050028841
     54  H        -0.0655367258   -0.8284149927   -0.2212933241
     55  H        -0.3656896293    2.2709625981   -0.1736050045
     56  H         0.1801163575    1.1818861264    1.1710930579

Z-matrix Print:
$molecule
0 1
O 
C  1 1.433270
O  2 1.250393 1 124.417836
C  1 1.483048 2 111.130402 3 5.004629 0
H  4 1.108600 1 105.155775 2 172.595893 0
H  4 1.110759 1 110.540497 2 54.824073 0
C  2 1.563979 1 108.888385 3 -176.770800 0
H  7 1.104103 2 107.562630 1 -164.870246 0
C  4 1.577663 1 113.653819 2 -67.386389 0
H  9 1.106583 4 110.239939 1 -48.342805 0
H  9 1.110144 4 108.548083 1 72.048397 0
O  9 1.483908 4 110.871428 1 -165.116219 0
C  12 1.432645 9 110.357971 4 -75.418356 0
O  13 1.251281 12 124.198850 9 -1.011805 0
C  13 1.562619 12 108.642276 9 179.696248 0
H  15 1.103828 13 108.814038 12 -21.986928 0
C  7 1.585292 2 115.943164 1 -39.288437 0
H  17 1.105639 7 109.841146 2 -125.482989 0
C  17 1.570134 7 115.747671 2 -3.526184 0
O  19 1.248766 17 127.273741 7 122.547544 0
O  19 1.435833 17 108.436003 7 -62.022551 0
C  21 1.480100 19 109.628838 17 -175.025174 0
H  22 1.105661 21 106.261082 19 -173.018209 0
H  22 1.108851 21 111.773176 19 -53.116222 0
H  22 1.109618 21 111.396960 19 68.036653 0
C  15 1.585445 13 112.595933 12 -147.134276 0
H  26 1.105195 15 110.475318 13 124.770037 0
C  26 1.571715 15 113.919565 13 2.498687 0
O  28 1.248367 26 127.347562 15 -117.193604 0
O  28 1.435827 26 108.083169 15 66.003487 0
C  30 1.479805 28 109.801950 26 -176.077724 0
H  31 1.105738 30 106.140846 28 -179.017680 0
H  31 1.109097 30 111.794892 28 -59.590041 0
H  31 1.109642 30 111.151205 28 61.830419 0
C  26 1.583924 15 101.203256 13 -116.558148 0
H  35 1.107266 26 113.854234 15 153.710461 0
O  35 1.482294 26 103.483101 15 34.022596 0
C  37 1.478500 35 95.035282 26 -56.609962 0
H  38 1.107503 37 110.654371 35 -179.672911 0
C  35 1.577662 26 108.476868 15 -75.367137 0
H  40 1.101532 35 110.484054 26 -168.519325 0
H  40 1.101677 35 112.238333 26 -46.947509 0
C  40 1.574284 35 101.046067 26 73.432827 0
H  43 1.101607 40 111.576381 35 118.858981 0
H  43 1.101730 40 112.793130 35 -118.425984 0
C  17 1.585890 7 101.315545 2 116.771010 0
H  46 1.107465 17 113.813908 7 -153.440640 0
O  46 1.482090 17 103.603002 7 -33.561839 0
C  48 1.478175 46 94.985863 17 56.329211 0
H  49 1.107478 48 110.678967 46 179.551370 0
C  46 1.577891 17 108.236869 7 75.774733 0
H  51 1.101777 46 112.183733 17 47.167558 0
H  51 1.101777 46 110.475074 17 168.656612 0
C  51 1.573606 46 101.005002 17 -73.216846 0
H  54 1.101619 51 112.759662 46 118.003294 0
H  54 1.101630 51 111.619287 46 -119.243248 0
$end

 
 --------------------------------------------------------------
 
                    Orbital Energies (a.u.)
 --------------------------------------------------------------
 
 Alpha MOs
 -- Occupied --
-18.940 -18.938 -18.931 -18.924 -18.889 -18.887 -18.879 -18.878
-18.873 -18.869 -10.103 -10.102 -10.100 -10.093 -10.072 -10.069
-10.066 -10.063 -10.061 -10.058 -10.058 -10.056 -10.040 -10.038
-10.038 -10.034 -10.022 -10.020 -10.020 -10.019  -1.019  -1.014
 -1.007  -1.002  -0.971  -0.969  -0.942  -0.938  -0.935  -0.929
 -0.765  -0.762  -0.729  -0.723  -0.711  -0.706  -0.695  -0.664
 -0.657  -0.619  -0.598  -0.586  -0.547  -0.544  -0.539  -0.537
 -0.514  -0.510  -0.488  -0.475  -0.465  -0.459  -0.452  -0.444
 -0.435  -0.431  -0.427  -0.414  -0.409  -0.408  -0.405  -0.396
 -0.394  -0.382  -0.374  -0.364  -0.363  -0.361  -0.353  -0.348
 -0.345  -0.341  -0.337  -0.333  -0.332  -0.326  -0.324  -0.311
 -0.310  -0.307  -0.303  -0.300  -0.298  -0.291  -0.281  -0.278
 -0.271  -0.259  -0.254  -0.249  -0.243  -0.236  -0.233  -0.194
 -0.177  -0.171  -0.168  -0.157  -0.156  -0.150  -0.146  -0.145
 -0.143
 -- Virtual --
  0.090   0.092   0.109   0.114   0.209   0.236   0.240   0.261
  0.266   0.274   0.284   0.286   0.301   0.318   0.327   0.331
  0.336   0.342   0.346   0.348   0.354   0.359   0.361   0.369
  0.374   0.382   0.385   0.389   0.397   0.402   0.410   0.412
  0.414   0.416   0.420   0.421   0.424   0.428   0.429   0.430
  0.431   0.432   0.437   0.439   0.442   0.449   0.457   0.467
  0.467   0.469   0.487   0.489   0.491   0.503   0.508   0.539
  0.542   0.552   0.552   0.640   0.647   0.647   0.653
 --------------------------------------------------------------
 
          Ground-State Mulliken Net Atomic Charges

     Atom                 Charge (a.u.)
  ----------------------------------------
      1 O                    -0.209258
      2 C                     0.215017
      3 C                    -0.079786
      4 C                    -0.078800
      5 C                     0.212020
      6 O                    -0.171547
      7 C                    -0.056486
      8 C                    -0.052027
      9 O                    -0.167515
     10 C                     0.211529
     11 C                    -0.078487
     12 C                    -0.078946
     13 C                     0.216816
     14 O                    -0.213207
     15 O                    -0.177779
     16 O                    -0.175620
     17 O                    -0.209991
     18 C                    -0.129806
     19 C                     0.025798
     20 C                    -0.143844
     21 C                    -0.143833
     22 C                     0.024769
     23 O                    -0.187007
     24 H                     0.086549
     25 H                     0.084229
     26 H                     0.082574
     27 H                     0.078510
     28 H                     0.074471
     29 H                     0.078377
     30 H                     0.073325
     31 H                     0.090884
     32 O                    -0.209069
     33 C                    -0.129943
     34 C                     0.024890
     35 C                    -0.144010
     36 C                    -0.143758
     37 C                     0.025820
     38 O                    -0.186753
     39 H                     0.083897
     40 H                     0.086707
     41 H                     0.092348
     42 H                     0.090883
     43 H                     0.078347
     44 H                     0.073141
     45 H                     0.078173
     46 H                     0.073558
     47 H                     0.082814
     48 H                     0.088449
     49 H                     0.087465
     50 H                     0.088887
     51 H                     0.087127
     52 H                     0.089850
     53 H                     0.092578
     54 H                     0.095025
     55 H                     0.087469
     56 H                     0.105174
  ----------------------------------------
  Sum of atomic charges =     0.000000

 -----------------------------------------------------------------
                    Cartesian Multipole Moments
 -----------------------------------------------------------------
    Charge (ESU x 10^10)
                -0.0000
    Dipole Moment (Debye)
         X      -1.1435      Y       1.7078      Z      -1.2836
       Tot       2.4232
    Quadrupole Moments (Debye-Ang)
        XX    -142.4559     XY       7.0778     YY    -152.4712
        XZ     -19.0855     YZ       2.5121     ZZ    -169.7140
    Octopole Moments (Debye-Ang^2)
       XXX     -35.7846    XXY      24.8367    XYY     -16.9330
       YYY      20.6734    XXZ      -7.3876    XYZ      16.5359
       YYZ      -2.5335    XZZ      -0.2722    YZZ       1.9650
       ZZZ       1.7662
    Hexadecapole Moments (Debye-Ang^3)
      XXXX  -15879.0705   XXXY       9.8349   XXYY   -3279.1452
      XYYY    -176.6315   YYYY   -2687.7449   XXXZ    -306.1384
      XXYZ      56.6758   XYYZ      -4.9757   YYYZ     100.0868
      XXZZ   -3064.6863   XYZZ     -21.0230   YYZZ    -627.9103
      XZZZ       1.2292   YZZZ      94.0247   ZZZZ    -859.5929
 -----------------------------------------------------------------
Archival summary:
1\1\vega02.cac.cornell.edu\OPT\ProcedureUnspecified\STO-3G\102026\jj585\MonJan1523:03:382018MonJan1523:03:382018\0\\#,OPT,ProcedureUnspecified,STO-3G,\\0,1\O\C,1,1.43327\O,2,1.25039,1,124.418\C,1,1.48305,2,111.13,3,5.00463,0\H,4,1.1086,1,105.156,2,172.596,0\H,4,1.11076,1,110.54,2,54.8241,0\C,2,1.56398,1,108.888,3,-176.771,0\H,7,1.1041,2,107.563,1,-164.87,0\C,4,1.57766,1,113.654,2,-67.3864,0\H,9,1.10658,4,110.24,1,-48.3428,0\H,9,1.11014,4,108.548,1,72.0484,0\O,9,1.48391,4,110.871,1,-165.116,0\C,12,1.43265,9,110.358,4,-75.4184,0\O,13,1.25128,12,124.199,9,-1.01181,0\C,13,1.56262,12,108.642,9,179.696,0\H,15,1.10383,13,108.814,12,-21.9869,0\C,7,1.58529,2,115.943,1,-39.2884,0\H,17,1.10564,7,109.841,2,-125.483,0\C,17,1.57013,7,115.748,2,-3.52618,0\O,19,1.24877,17,127.274,7,122.548,0\O,19,1.43583,17,108.436,7,-62.0226,0\C,21,1.4801,19,109.629,17,-175.025,0\H,22,1.10566,21,106.261,19,-173.018,0\H,22,1.10885,21,111.773,19,-53.1162,0\H,22,1.10962,21,111.397,19,68.0367,0\C,15,1.58545,13,112.596,12,-147.134,0\H,26,1.10519,15,110.475,13,124.77,0\C,26,1.57172,15,113.92,13,2.49869,0\O,28,1.24837,26,127.348,15,-117.194,0\O,28,1.43583,26,108.083,15,66.0035,0\C,30,1.47981,28,109.802,26,-176.078,0\H,31,1.10574,30,106.141,28,-179.018,0\H,31,1.1091,30,111.795,28,-59.59,0\H,31,1.10964,30,111.151,28,61.8304,0\C,26,1.58392,15,101.203,13,-116.558,0\H,35,1.10727,26,113.854,15,153.71,0\O,35,1.48229,26,103.483,15,34.0226,0\C,37,1.4785,35,95.0353,26,-56.61,0\H,38,1.1075,37,110.654,35,-179.673,0\C,35,1.57766,26,108.477,15,-75.3671,0\H,40,1.10153,35,110.484,26,-168.519,0\H,40,1.10168,35,112.238,26,-46.9475,0\C,40,1.57428,35,101.046,26,73.4328,0\H,43,1.10161,40,111.576,35,118.859,0\H,43,1.10173,40,112.793,35,-118.426,0\C,17,1.58589,7,101.316,2,116.771,0\H,46,1.10747,17,113.814,7,-153.441,0\O,46,1.48209,17,103.603,7,-33.5618,0\C,48,1.47817,46,94.9859,17,56.3292,0\H,49,1.10748,48,110.679,46,179.551,0\C,46,1.57789,17,108.237,7,75.7747,0\H,51,1.10178,46,112.184,17,47.1676,0\H,51,1.10178,46,110.475,17,168.657,0\C,51,1.57361,46,101.005,17,-73.2168,0\H,54,1.10162,51,112.76,46,118.003,0\H,54,1.10163,51,111.619,46,-119.243,0\\\@

 Total job time:  68.76s(wall), 3273.73s(cpu) 
 Mon Jan 15 23:03:38 2018

        *************************************************************
        *                                                           *
        *  Thank you very much for using Q-Chem.  Have a nice day.  *
        *                                                           *
        *************************************************************


0 sent ACK to 0 
now end server 0 ... 
