mFile = /opt/software/qchem/qchem-5.0.1//bin/mpi/machines
Process 0 of 1 is on vega02.cac.cornell.edu - thread support 0
initial socket setup ...start
initial socket setup ...done 
now start server 0 ... 
vega02.cac.cornell.edu 10.84.3
Q-Chem Developer Version! Running on 10.84.3.*
                  Welcome to Q-Chem
     A Quantum Leap Into The Future Of Chemistry


 Q-Chem 5.0, Q-Chem, Inc., Pleasanton, CA (2017)

 Yihan Shao,  Zhengting Gan,  E. Epifanovsky,  A. T. B. Gilbert,  M. Wormit,  
 J. Kussmann,  A. W. Lange,  A. Behn,  Jia Deng,  Xintian Feng,  D. Ghosh,  
 M. Goldey,  P. R. Horn,  L. D. Jacobson,  I. Kaliman,  T. Kus,  A. Landau,  
 Jie Liu,  E. I. Proynov,  R. M. Richard,  R. P. Steele,  E. J. Sundstrom,  
 H. L. Woodcock III,  P. M. Zimmerman,  D. Zuev,  B. Albrecht,  E. Alguire,  
 S. A. Baeppler,  Z. Benda,  Y. A. Bernard,  E. J. Berquist,  K. B. Bravaya,  
 D. Casanova,  Chun-Min Chang,  Yunqing Chen,  A. Chien,  K. D. Closser,  
 M. P. Coons,  S. Dasgupta,  M. Diedenhofen,  Hainam Do,  R. G. Edgar,  
 Po-Tung Fang,  S. Fatehi,  Qingguo Feng,  Qinghui Ge,  A. Ghysels,  
 J. Gomes,  J. Gonthier,  A. Gunina,  M. W. D. Hanson-Heine,  
 P. H. P. Harbach,  A. W. Hauser,  J. E. Herr,  E. G. Hohenstein,  
 Z. C. Holden,  Kerwin Hui,  T.-C. Jagau,  Hyunjun Ji,  B. Kaduk,  
 K. Khistyaev,  Jaehoon Kim,  P. Klunzinger,  K. Koh,  D. Kosenkov,  
 T. Kowalczyk,  C. M. Krauter,  A. Kunitsa,  Ka Un Lao,  A. Laurent,  
 K. V. Lawler,  Joonho Lee,  D. Lefrancois,  S. Lehtola,  D. S. Levine,  
 Yi-Pei Li,  You-Sheng Lin,  Fenglai Liu,  E. Livshits,  A. Luenser,  
 P. Manohar,  E. Mansoor,  S. F. Manzer,  Shan-Ping Mao,  Yuezhi Mao,  
 N. Mardirossian,  A. V. Marenich,  L. A. Martinez-Martinez,  S. A. Maurer,  
 N. J. Mayhall,  S. C. McKenzie,  J.-M. Mewes,  A. F. Morrison,  K. Nanda,  
 T. S. Nguyen-Beck,  R. Olivares-Amaya,  J. A. Parkhill,  T. M. Perrine,  
 F. Plasser,  S. Prager,  A. Prociuk,  D. R. Rehn,  F. Rob,  M. Schneider,  
 N. Sergueev,  S. M. Sharada,  S. Sharma,  D. W. Small,  T. Stauch,  
 T. Stein,  Yu-Chuan Su,  A. J. W. Thom,  T. Tsuchimochi,  L. Vogt,  
 O. Vydrov,  M. A. Watson,  J. Wenzel,  M. de Wergifosse,  T. A. Wesolowski,  
 A. White,  J. Witte,  A. Yamada,  Jun Yang,  K. Yao,  S. Yeganeh,  
 S. R. Yost,  Zhi-Qiang You,  A. Zech,  Igor Ying Zhang,  Xing Zhang,  
 Yan Zhao,  Ying Zhu,  B. R. Brooks,  G. K. L. Chan,  C. J. Cramer,  
 M. S. Gordon,  W. J. Hehre,  A. Klamt,  M. W. Schmidt,  C. D. Sherrill,  
 D. G. Truhlar,  A. Aspuru-Guzik,  R. Baer,  A. T. Bell,  N. A. Besley,  
 Jeng-Da Chai,  A. Dreuw,  B. D. Dunietz,  T. R. Furlani,  Chao-Ping Hsu,  
 Yousung Jung,  Jing Kong,  D. S. Lambrecht,  WanZhen Liang,  C. Ochsenfeld,  
 V. A. Rassolov,  L. V. Slipchenko,  J. E. Subotnik,  T. Van Voorhis,  
 J. M. Herbert,  A. I. Krylov,  P. M. W. Gill,  M. Head-Gordon

 Contributors to earlier versions of Q-Chem not listed above: 
 R. D. Adamson,  B. Austin,  J. Baker,  G. J. O. Beran,  K. Brandhorst,  
 S. T. Brown,  E. F. C. Byrd,  A. K. Chakraborty,  C.-L. Cheng,  
 Siu Hung Chien,  D. M. Chipman,  D. L. Crittenden,  H. Dachsel,  
 R. A. DiStasio Jr.,  R. J. Doerksen,  A. D. Dutoi,  L. Fusti-Molnar,  
 W. A. Goddard III,  A. Golubeva-Zadorozhnaya,  S. R. Gwaltney,  G. Hawkins,  
 A. Heyden,  S. Hirata,  G. Kedziora,  F. J. Keil,  C. Kelley,  Jihan Kim,  
 R. A. King,  R. Z. Khaliullin,  P. P. Korambath,  W. Kurlancheek,  
 A. M. Lee,  M. S. Lee,  S. V. Levchenko,  Ching Yeh Lin,  D. Liotard,  
 R. C. Lochan,  I. Lotan,  P. E. Maslen,  N. Nair,  D. P. O'Neill,  
 D. Neuhauser,  E. Neuscamman,  C. M. Oana,  R. Olson,  B. Peters,  
 R. Peverati,  P. A. Pieniazek,  Y. M. Rhee,  J. Ritchie,  M. A. Rohrdanz,  
 E. Rosta,  N. J. Russ,  H. F. Schaefer III,  N. E. Schultz,  N. Shenvi,  
 A. C. Simmonett,  A. Sodt,  D. Stuck,  K. S. Thanthiriwatte,  V. Vanovschi,  
 Tao Wang,  A. Warshel,  C. F. Williams,  Q. Wu,  X. Xu,  W. Zhang

 Please cite Q-Chem as follows:
 Y. Shao et al., Mol. Phys. 113, 184-215 (2015)
 DOI: 10.1080/00268976.2014.952696

 Q-Chem 5.0.1 for Intel X86 EM64T Linux

 Parts of Q-Chem use Armadillo 5.200.1 (Boston Tea Smuggler).
 http://arma.sourceforge.net/

 Q-Chem begins on Mon Jan 15 23:20:21 2018  

Host: vega02.cac.cornell.edu
0

     Scratch files written to /scratch/jj585/SOT1001/0958r.save//
 Parallel job on  1  processors

Checking the input file for inconsistencies... 	...done.

--------------------------------------------------------------
User input:
--------------------------------------------------------------
$molecule
0  1
O 3.6351208867 -2.7447393408 -0.0503297998
C 3.5128301834 -1.6662875031 -0.6678403642
C 4.4964030824 -0.4408105289 -0.6349179231
C 3.8047205894 0.9553182503 -0.3611470299
C 2.3105533962 0.7870390586 0.0696176659
O 1.5927117359 1.9787524815 -0.2632955942
C 0.1638976016 1.8508852793 0.1157013472
C -0.5777016202 0.8119124225 -0.8191534645
O -1.860301527 0.2250166811 -0.3439050581
C -2.0972199661 0.1784494401 1.0614079001
C -3.508053474 -0.4825723944 1.2494548522
C -4.6648192082 0.2195818236 0.4217501303
C -4.1805898049 1.4455997163 -0.4314539693
O -4.3215476874 1.6256853827 -1.6587598394
O 2.513206843 -1.4188132353 -1.6708105234
O -3.5649014081 2.3917012154 0.4563638154
O -1.3266839713 0.5240096582 1.9873131298
C -3.1143805412 3.5773969653 -0.3061166231
C -3.5545903379 -1.9473819158 0.6266572704
C -4.8347705505 -2.6869194948 1.1840729218
C -5.9760739805 -1.9859769067 0.356434249
C -5.1393074129 -0.9681456349 -0.5120619177
O -3.8843638961 -1.7040070441 -0.7948092871
H -3.728485753 -0.4899300952 2.331015449
H -5.4725366367 0.5628710456 1.0942980031
H -2.6078282774 -2.5151298839 0.7149770505
H -4.7796469188 -3.764934054 0.9640734912
H -4.9520140805 -2.5540857525 2.2715222936
H -6.50276295 -2.7038521873 -0.2920713331
H -6.715649518 -1.4789306565 0.9965081586
H -5.6105584072 -0.6331737984 -1.4564690957
O 1.8141137766 -0.1982085098 0.6617737183
C 1.5518031706 -2.5431531003 -1.7072223089
C 5.5185148109 -0.5285965397 0.5735656637
C 6.7562084733 0.3859097656 0.2274923834
C 6.1194917757 1.817363322 0.3858830311
C 4.6623210485 1.4565012161 0.8822325486
O 4.8457333499 0.2147639129 1.6653572694
H 5.029147959 -0.4172930115 -1.603585028
H 3.8680091993 1.6440421508 -1.2211684032
H 0.9952976663 -2.6267844624 -0.7508770301
H 5.7480796515 -1.564183232 0.8921083181
H 7.5690051104 0.2249622134 0.9534730416
H 7.1440296777 0.1993439006 -0.786645399
H 6.6480689028 2.4155384558 1.1449448471
H 6.1036432828 2.382117581 -0.5600946947
H 4.1671597923 2.2356306796 1.4940049198
H 2.0571360994 -3.5101013371 -1.9063663706
H 0.8449690918 -2.3180463362 -2.5272076323
H -2.5745566993 4.2189857193 0.4144635409
H -3.9719812253 4.1391322298 -0.7299731672
H -2.4374937402 3.2957211458 -1.1379177957
H -0.8237567811 1.2720401184 -1.7988596098
H 0.1188507865 -0.034755307 -1.0046058413
H -0.2669433525 2.862878398 0.0003970778
H 0.0232731876 1.4947758659 1.1620695191
$end

$rem
JOBTYPE                   OPT
METHOD                    B3LYP
DFT_D                     d3_op
BASIS                     STO-3G
GEOM_OPT_MAX_CYCLES       100
GEOM_OPT_TOL_GRADIENT     300
GEOM_OPT_TOL_DISPLACEMENT 1200
GEOM_OPT_TOL_ENERGY       100
SYMMETRY                  False
THRESH                    12
SCF_CONVERGENCE           8
MAX_SUB_FILE_NUM          128
MEM_STATIC                400
MEM_TOTAL                 4000
$end
--------------------------------------------------------------
 Adding empirical dispersion correction 
 ----------------------------------------------------------------
 Doing -D3(op) with
 s6 =   1.00000
 s8 =   0.78311
 a1 =   0.30000
 a2 =   4.25000
 n  =  10.00000
 -D3 energy without 3body term =     -0.0708188014 hartrees
 ----------------------------------------------------------------
             Standard Nuclear Orientation (Angstroms)
    I     Atom           X                Y                Z
 ----------------------------------------------------------------
    1      O      -3.5370960423    -2.9006808991    -0.0665984792
    2      C      -3.4471229779    -1.8538149126     0.6081675050
    3      C      -4.4669008929    -0.6582555454     0.6395387157
    4      C      -3.8172702088     0.7706011867     0.4423100297
    5      C      -2.3187294641     0.6704115008     0.0055613902
    6      O      -1.6368522635     1.8634065445     0.4031982586
    7      C      -0.2048449588     1.7988180666     0.0202074739
    8      C       0.5674701929     0.7336985343     0.8990915448
    9      O       1.8670572107     0.2117587892     0.3950849321
   10      C       2.1052937399     0.2479009082    -1.0103119758
   11      C       3.5352671712    -0.3596352015    -1.2313064776
   12      C       4.6705004136     0.3312337250    -0.3651839527
   13      C       4.1498066298     1.4946061250     0.5518754054
   14      O       4.2852888106     1.6125819839     1.7873129579
   15      O      -2.4553694306    -1.6308794664     1.6246143381
   16      O       3.5061220855     2.4682609667    -0.2848247345
   17      O       1.3247897690     0.6195749822    -1.9175660814
   18      C       3.0203295581     3.5972711724     0.5395304424
   19      C       3.6255716511    -1.8537634920    -0.6880430109
   20      C       4.9273063705    -2.5237112767    -1.2823039823
   21      C       6.0471204564    -1.8345098205    -0.4163377187
   22      C       5.1802722529    -0.8902784141     0.5042303783
   23      O       3.9478881668    -1.6774181531     0.7449829787
   24      H       3.7558451601    -0.3022543609    -2.3113391807
   25      H       5.4676062974     0.7341456377    -1.0169966374
   26      H       2.6962124096    -2.4439581374    -0.8082853443
   27      H       4.9044384721    -3.6131583570    -1.1206380532
   28      H       5.0405497242    -2.3291688213    -2.3608521548
   29      H       6.5950260635    -2.5701627731     0.1935146063
   30      H       6.7712173445    -1.2719311666    -1.0270352217
   31      H       5.6412746038    -0.5926392558     1.4660392536
   32      O      -1.7930365703    -0.2663151446    -0.6378700597
   33      C      -1.4607752234    -2.7263426551     1.6021257458
   34      C      -5.4859033401    -0.7114283835    -0.5735804089
   35      C      -6.7503978811     0.1457869802    -0.1808852653
   36      C      -6.1567673224     1.6020577901    -0.2610920137
   37      C      -4.6894461938     1.3120707188    -0.7737391000
   38      O      -4.8356270587     0.1093064054    -1.6227532884
   39      H      -5.0001325095    -0.7027634425     1.6072004476
   40      H      -3.9011448198     1.4098986996     1.3379922063
   41      H      -0.9019962887    -2.7417877736     0.6435766215
   42      H      -5.6843910797    -1.7347854034    -0.9476823511
   43      H      -7.5580019094    -0.0000975731    -0.9157892281
   44      H      -7.1324895030    -0.1065239012     0.8211290868
   45      H      -6.7029783519     2.2241240636    -0.9877756953
   46      H      -6.1578350680     2.1153623464     0.7138898825
   47      H      -4.2177910622     2.1373983270    -1.3419543768
   48      H      -1.9369718493    -3.7172551228     1.7482006366
   49      H      -0.7610070382    -2.5246377425     2.4341732300
   50      H       2.4615777763     4.2602643861    -0.1464127967
   51      H       3.8607395659     4.1607643846     0.9943559358
   52      H       2.3521497869     3.2512013105     1.3538900948
   53      H       0.7996340728     1.1476350265     1.9025063560
   54      H      -0.1034568551    -0.1421345839     1.0376459701
   55      H       0.1955389661     2.8155617445     0.1904252191
   56      H      -0.0536111639     1.5038323784    -1.0435534364
 ----------------------------------------------------------------
 Molecular Point Group                 C1    NOp =  1
 Largest Abelian Subgroup              C1    NOp =  1
 Nuclear Repulsion Energy =  3168.3479325666 hartrees
 There are      113 alpha and      113 beta electrons
 Requested basis set is STO-3G
 There are 86 shells and 176 basis functions

 Total QAlloc Memory Limit   4000 MB
 Mega-Array Size       392 MB
 MEM_STATIC part       400 MB
 A cutoff of  1.0D-12 yielded   2187 shell pairs
 There are     10230 function pairs
 
 -------------------------------------------------------
 OpenMP Integral Computing Module                       
 Release: version 1.0, May 2013, Q-Chem Inc. Pittsburgh 
 -------------------------------------------------------
 Integral Job Info:
 Integral job number is                      11
 Integral operator is                         1
 short-range coefficients                     0
 long-range coefficients              100000000
 Omega coefficients                           0
 if combine SR and LR in K                    0
 Integral screening is                        0
 Integral computing path is                   2
 max size of driver memory is            800000
 size of driver memory is                 45569
 size of scratch memory is              1046100
 max col of scratch BK array                289
 max len of scratch array in speh3           22
 max len of scratch index in speh4            8
 max int batch size is                      520
 min int batch size is                       52
 fixed nKL is                                52
 max L of basis functions is                  1
 order of int derivative is                   0
 number of shells is                         86
 number of basis is                         176
 number of cartesian basis is               176
 number of contracted shell pairs          2187
 number of primitive shell pairs          11191
 maxK2 (contraction) of shell pair            9
 max number of K2 of shell pair               1
 max number of CS2 of shell pair            335
 max number of PS2 of shell pair           1266
 mem total for path MDJ                   53354
 -------------------------------------------------------
 Smallest overlap matrix eigenvalue = 2.13E-01

 Scale SEOQF with 1.000000e-02/1.000000e-01/1.000000e-01

 Standard Electronic Orientation quadrupole field applied
 Nucleus-field energy     =     0.0000000354 hartrees
 Guess from superposition of atomic densities
 Warning:  Energy on first SCF cycle will be non-variational
 A restricted hybrid HF-DFT SCF calculation will be
 performed using Pulay DIIS extrapolation
 Exchange:     0.2000 Hartree-Fock + 0.0800 Slater + 0.7200 B88
 Correlation:  0.1900 VWN1RPA + 0.8100 LYP
 Using SG-1 standard quadrature grid
 Dispersion:   Grimme D3
 SCF converges when DIIS error is below 1.0E-08
 using 48 threads for integral computing
 -------------------------------------------------------
 OpenMP Integral computing Module                
 Release: version 1.0, May 2013, Q-Chem Inc. Pittsburgh 
 -------------------------------------------------------
 -------------------------------------------------------
 OpenMP BLAS3 based DFT computing Module                
 Release: version 1.0, May 2013, Q-Chem Inc. Pittsburgh 
 -------------------------------------------------------
 ---------------------------------------
  Cycle       Energy         DIIS Error
 ---------------------------------------
    1   -1507.6387257541      7.46E-02
    2   -1509.7414096192      1.04E-02
    3   -1507.3842058063      2.72E-02
    4   -1510.1929513206      4.38E-03
    5   -1510.2719657843      1.42E-03
    6   -1510.2802247840      4.35E-04
    7   -1510.2809822957      1.49E-04
    8   -1510.2810789548      3.21E-05
    9   -1510.2810834030      7.67E-06
   10   -1510.2810836587      2.42E-06
   11   -1510.2810836811      1.11E-06
   12   -1510.2810836859      3.73E-07
   13   -1510.2810836866      8.76E-08
   14   -1510.2810836866      2.72E-08
   15   -1510.2810836865      1.52E-08
   16   -1510.2810836866      6.24E-09 Convergence criterion met
 ---------------------------------------
 SCF time:  CPU 118.26 s  wall 2.52 s
 SCF   energy in the final basis set = -1510.28108369
 Total energy in the final basis set = -1510.28108369
 
 --------------------------------------------------------------
 
                    Orbital Energies (a.u.)
 --------------------------------------------------------------
 
 Alpha MOs
 -- Occupied --
-18.940 -18.936 -18.934 -18.923 -18.888 -18.885 -18.883 -18.877
-18.875 -18.868 -10.109 -10.101 -10.100 -10.093 -10.071 -10.068
-10.061 -10.060 -10.059 -10.058 -10.057 -10.055 -10.039 -10.037
-10.037 -10.033 -10.021 -10.020 -10.020 -10.018  -1.018  -1.013
 -1.007  -1.001  -0.970  -0.968  -0.944  -0.938  -0.937  -0.928
 -0.765  -0.761  -0.729  -0.722  -0.711  -0.704  -0.694  -0.666
 -0.657  -0.621  -0.597  -0.586  -0.547  -0.544  -0.538  -0.536
 -0.513  -0.509  -0.483  -0.476  -0.465  -0.459  -0.452  -0.444
 -0.438  -0.431  -0.429  -0.415  -0.409  -0.407  -0.405  -0.390
 -0.390  -0.379  -0.373  -0.369  -0.364  -0.356  -0.354  -0.350
 -0.344  -0.342  -0.338  -0.332  -0.331  -0.327  -0.324  -0.311
 -0.310  -0.306  -0.302  -0.299  -0.296  -0.289  -0.282  -0.278
 -0.273  -0.262  -0.255  -0.248  -0.236  -0.234  -0.232  -0.189
 -0.180  -0.175  -0.168  -0.157  -0.154  -0.147  -0.146  -0.144
 -0.142
 -- Virtual --
  0.088   0.093   0.109   0.115   0.203   0.234   0.241   0.260
  0.265   0.274   0.284   0.287   0.300   0.316   0.324   0.330
  0.332   0.337   0.344   0.346   0.349   0.360   0.361   0.371
  0.380   0.384   0.386   0.396   0.402   0.403   0.410   0.411
  0.415   0.417   0.421   0.425   0.426   0.429   0.430   0.431
  0.435   0.436   0.437   0.443   0.444   0.448   0.464   0.467
  0.468   0.478   0.487   0.489   0.492   0.503   0.511   0.538
  0.542   0.552   0.553   0.642   0.647   0.649   0.651
 --------------------------------------------------------------
 
          Ground-State Mulliken Net Atomic Charges

     Atom                 Charge (a.u.)
  ----------------------------------------
      1 O                    -0.212404
      2 C                     0.215973
      3 C                    -0.079888
      4 C                    -0.078340
      5 C                     0.213947
      6 O                    -0.171908
      7 C                    -0.069238
      8 C                    -0.054413
      9 O                    -0.167701
     10 C                     0.220628
     11 C                    -0.077808
     12 C                    -0.078296
     13 C                     0.215240
     14 O                    -0.211569
     15 O                    -0.178782
     16 O                    -0.175088
     17 O                    -0.207743
     18 C                    -0.129263
     19 C                     0.026129
     20 C                    -0.143758
     21 C                    -0.144159
     22 C                     0.024722
     23 O                    -0.186116
     24 H                     0.086173
     25 H                     0.084743
     26 H                     0.083517
     27 H                     0.078437
     28 H                     0.074364
     29 H                     0.078265
     30 H                     0.073147
     31 H                     0.090026
     32 O                    -0.210489
     33 C                    -0.130055
     34 C                     0.024312
     35 C                    -0.143356
     36 C                    -0.144227
     37 C                     0.025507
     38 O                    -0.187977
     39 H                     0.083320
     40 H                     0.086505
     41 H                     0.091023
     42 H                     0.091665
     43 H                     0.078175
     44 H                     0.072969
     45 H                     0.078084
     46 H                     0.073402
     47 H                     0.083403
     48 H                     0.088774
     49 H                     0.088520
     50 H                     0.090248
     51 H                     0.088538
     52 H                     0.087818
     53 H                     0.087498
     54 H                     0.093857
     55 H                     0.082475
     56 H                     0.121174
  ----------------------------------------
  Sum of atomic charges =     0.000000

 -----------------------------------------------------------------
                    Cartesian Multipole Moments
 -----------------------------------------------------------------
    Charge (ESU x 10^10)
                 0.0000
    Dipole Moment (Debye)
         X       0.7906      Y       1.7515      Z       1.1440
       Tot       2.2364
    Quadrupole Moments (Debye-Ang)
        XX    -140.9281     XY      -6.8989     YY    -154.7176
        XZ     -15.4395     YZ      -0.5856     ZZ    -167.0750
    Octopole Moments (Debye-Ang^2)
       XXX      -5.9454    XXY      15.3255    XYY      27.0602
       YYY      30.9948    XXZ     -10.2198    XYZ      16.7365
       YYZ       7.8854    XZZ      -2.5617    YZZ      -7.0803
       ZZZ       7.6385
    Hexadecapole Moments (Debye-Ang^3)
      XXXX  -14295.5253   XXXY     -48.5837   XXYY   -3006.3861
      XYYY     109.9909   YYYY   -2773.6204   XXXZ    -209.1510
      XXYZ     -24.3076   XYYZ      13.3314   YYYZ     -24.9695
      XXZZ   -2781.8215   XYZZ       5.3675   YYZZ    -637.9162
      XZZZ      -0.1699   YZZZ     -14.4384   ZZZZ   -1023.6297
 -----------------------------------------------------------------
 Calculating analytic gradient of the SCF energy
 Gradient of SCF Energy
            1           2           3           4           5           6
    1  -0.0014257   0.0017133  -0.0010207  -0.0001324   0.0002491  -0.0010330
    2  -0.0013251   0.0020513  -0.0009654   0.0008451  -0.0018990   0.0003123
    3   0.0021825  -0.0025187  -0.0019995   0.0010180   0.0037516  -0.0031505
            7           8           9          10          11          12
    1  -0.0007883   0.0023276  -0.0031614   0.0011773  -0.0003294  -0.0000082
    2   0.0006383   0.0031092  -0.0062204   0.0035483  -0.0005081   0.0005929
    3   0.0011173   0.0004177  -0.0013378  -0.0000802   0.0006042  -0.0005836
           13          14          15          16          17          18
    1   0.0002266  -0.0002248   0.0000959   0.0001310   0.0002003   0.0000507
    2   0.0003367  -0.0001571   0.0000273  -0.0000555  -0.0000887  -0.0000383
    3  -0.0002378   0.0000816  -0.0001126   0.0000440   0.0000676   0.0000704
           19          20          21          22          23          24
    1   0.0000761   0.0000479   0.0000516  -0.0000759   0.0000207   0.0000763
    2  -0.0000604   0.0000676  -0.0000759   0.0001208   0.0000921  -0.0000949
    3  -0.0000189   0.0001063  -0.0001071   0.0001153   0.0000543   0.0000717
           25          26          27          28          29          30
    1   0.0001718   0.0000771  -0.0000057   0.0000631  -0.0000497  -0.0000421
    2  -0.0001712  -0.0000646   0.0000211  -0.0000207   0.0000255   0.0000790
    3   0.0000112   0.0000367   0.0000224  -0.0000576   0.0000247   0.0000643
           31          32          33          34          35          36
    1   0.0000549   0.0001490  -0.0000057   0.0001241  -0.0000226   0.0002783
    2  -0.0000376   0.0000046   0.0000525   0.0001250   0.0000837  -0.0000433
    3   0.0000436   0.0000088   0.0000893  -0.0003633   0.0001132  -0.0000009
           37          38          39          40          41          42
    1  -0.0000571   0.0001462   0.0001049   0.0000713   0.0000815   0.0000010
    2  -0.0000040   0.0000223  -0.0000690  -0.0000102  -0.0000104  -0.0000416
    3   0.0002860  -0.0000691   0.0001403  -0.0000206  -0.0000306   0.0000457
           43          44          45          46          47          48
    1   0.0000150   0.0000527   0.0000142  -0.0000628   0.0000393   0.0000456
    2  -0.0000235  -0.0000220  -0.0000020  -0.0000476  -0.0000043  -0.0000070
    3   0.0000035  -0.0000312   0.0000094   0.0000481   0.0000771   0.0000214
           49          50          51          52          53          54
    1   0.0000475   0.0000444   0.0000255   0.0000159   0.0000287   0.0001231
    2  -0.0000038   0.0000144  -0.0000078  -0.0000155  -0.0000173  -0.0000524
    3   0.0000235   0.0000306   0.0000131  -0.0000277  -0.0000082   0.0000357
           55          56
    1   0.0001194   0.0001068
    2  -0.0000681   0.0000628
    3  -0.0000556  -0.0000395
 Max gradient component =       6.220E-03
 RMS gradient           =       9.233E-04
 Gradient time:  CPU 31.60 s  wall 0.68 s
 Geometry Optimization Parameters
   NAtoms,    NIC,     NZ,  NCons,   NDum,   NFix, NCnnct, MaxDiis
       56     458       0       0       0       0       0       0


** GEOMETRY OPTIMIZATION IN DELOCALIZED INTERNAL COORDINATES **
   Searching for a Minimum

   Optimization Cycle:   1

                       Coordinates (Angstroms)
     ATOM                X               Y               Z
      1  O        -3.5370960423   -2.9006808991   -0.0665984792
      2  C        -3.4471229779   -1.8538149126    0.6081675050
      3  C        -4.4669008929   -0.6582555454    0.6395387157
      4  C        -3.8172702088    0.7706011867    0.4423100297
      5  C        -2.3187294641    0.6704115008    0.0055613902
      6  O        -1.6368522635    1.8634065445    0.4031982586
      7  C        -0.2048449588    1.7988180666    0.0202074739
      8  C         0.5674701929    0.7336985343    0.8990915448
      9  O         1.8670572107    0.2117587892    0.3950849321
     10  C         2.1052937399    0.2479009082   -1.0103119758
     11  C         3.5352671712   -0.3596352015   -1.2313064776
     12  C         4.6705004136    0.3312337250   -0.3651839527
     13  C         4.1498066298    1.4946061250    0.5518754054
     14  O         4.2852888106    1.6125819839    1.7873129579
     15  O        -2.4553694306   -1.6308794664    1.6246143381
     16  O         3.5061220855    2.4682609667   -0.2848247345
     17  O         1.3247897690    0.6195749822   -1.9175660814
     18  C         3.0203295581    3.5972711724    0.5395304424
     19  C         3.6255716511   -1.8537634920   -0.6880430109
     20  C         4.9273063705   -2.5237112767   -1.2823039823
     21  C         6.0471204564   -1.8345098205   -0.4163377187
     22  C         5.1802722529   -0.8902784141    0.5042303783
     23  O         3.9478881668   -1.6774181531    0.7449829787
     24  H         3.7558451601   -0.3022543609   -2.3113391807
     25  H         5.4676062974    0.7341456377   -1.0169966374
     26  H         2.6962124096   -2.4439581374   -0.8082853443
     27  H         4.9044384721   -3.6131583570   -1.1206380532
     28  H         5.0405497242   -2.3291688213   -2.3608521548
     29  H         6.5950260635   -2.5701627731    0.1935146063
     30  H         6.7712173445   -1.2719311666   -1.0270352217
     31  H         5.6412746038   -0.5926392558    1.4660392536
     32  O        -1.7930365703   -0.2663151446   -0.6378700597
     33  C        -1.4607752234   -2.7263426551    1.6021257458
     34  C        -5.4859033401   -0.7114283835   -0.5735804089
     35  C        -6.7503978811    0.1457869802   -0.1808852653
     36  C        -6.1567673224    1.6020577901   -0.2610920137
     37  C        -4.6894461938    1.3120707188   -0.7737391000
     38  O        -4.8356270587    0.1093064054   -1.6227532884
     39  H        -5.0001325095   -0.7027634425    1.6072004476
     40  H        -3.9011448198    1.4098986996    1.3379922063
     41  H        -0.9019962887   -2.7417877736    0.6435766215
     42  H        -5.6843910797   -1.7347854034   -0.9476823511
     43  H        -7.5580019094   -0.0000975731   -0.9157892281
     44  H        -7.1324895030   -0.1065239012    0.8211290868
     45  H        -6.7029783519    2.2241240636   -0.9877756953
     46  H        -6.1578350680    2.1153623464    0.7138898825
     47  H        -4.2177910622    2.1373983270   -1.3419543768
     48  H        -1.9369718493   -3.7172551228    1.7482006366
     49  H        -0.7610070382   -2.5246377425    2.4341732300
     50  H         2.4615777763    4.2602643861   -0.1464127967
     51  H         3.8607395659    4.1607643846    0.9943559358
     52  H         2.3521497869    3.2512013105    1.3538900948
     53  H         0.7996340728    1.1476350265    1.9025063560
     54  H        -0.1034568551   -0.1421345839    1.0376459701
     55  H         0.1955389661    2.8155617445    0.1904252191
     56  H        -0.0536111639    1.5038323784   -1.0435534364
   Point Group: c1    Number of degrees of freedom:   162


   Energy is  -1510.281083687


 Attempting to Generate Delocalized Internal Coordinates

162 Hessian modes will be used to form the next step
  Hessian Eigenvalues:
     0.002000    0.002000    0.002000    0.002000    0.002000    0.002682
     0.002707    0.003950    0.004113    0.004403    0.004568    0.004633
     0.004814    0.005071    0.005091    0.006805    0.006816    0.010683
     0.010869    0.011612    0.012219    0.021718    0.021735    0.026251
     0.026292    0.030851    0.030903    0.035357    0.035489    0.039754
     0.040941    0.041362    0.041673    0.042101    0.046330    0.046512
     0.047325    0.047614    0.048691    0.051089    0.051145    0.053055
     0.053563    0.054452    0.054470    0.055082    0.055341    0.055801
     0.058049    0.058739    0.059744    0.060381    0.060537    0.063511
     0.063885    0.064063    0.064334    0.069856    0.070035    0.072929
     0.072944    0.091556    0.092532    0.092757    0.092770    0.095554
     0.096282    0.096781    0.096899    0.102493    0.102572    0.110095
     0.110111    0.110709    0.121021    0.121075    0.121122    0.136829
     0.142528    0.157324    0.157533    0.160000    0.160000    0.160000
     0.160000    0.160000    0.160000    0.162860    0.163335    0.218651
     0.219516    0.220919    0.221371    0.227471    0.229261    0.238272
     0.238308    0.239632    0.239775    0.246677    0.246919    0.248550
     0.249662    0.249788    0.249888    0.250000    0.250000    0.250000
     0.250000    0.250000    0.250000    0.250000    0.250000    0.250844
     0.253403    0.253507    0.258843    0.260020    0.260718    0.264863
     0.292662    0.292711    0.307361    0.307539    0.321578    0.323948
     0.326007    0.326387    0.326679    0.327000    0.327287    0.328636
     0.328690    0.328692    0.328839    0.330363    0.330540    0.330551
     0.330594    0.330737    0.332632    0.332847    0.334784    0.334851
     0.334938    0.334976    0.335024    0.335042    0.335128    0.335166
     0.336241    0.341444    0.345765    0.345942    0.399287    0.401244
     0.409186    0.415834    0.820760    0.824571    0.837069    0.838193

 Minimum Search - Taking Simple RFO Step
 Searching for Lamda that Minimizes Along All modes
 Value Taken    Lamda =  -0.00508123
 Calculated Step too Large.  Step scaled by  0.407278
 Step Taken.  Stepsize is  0.300000

                             Maximum     Tolerance    Cnvgd?
         Gradient           0.003014      0.000300      NO
         Displacement       0.090674      0.001200      NO
         Energy change     *********      0.000001      NO


 New Cartesian Coordinates Obtained by Inverse Iteration

 Displacement from previous Coordinates is:  2.470783
 Adding empirical dispersion correction 
 ----------------------------------------------------------------
 Doing -D3(op) with
 s6 =   1.00000
 s8 =   0.78311
 a1 =   0.30000
 a2 =   4.25000
 n  =  10.00000
 -D3 energy without 3body term =     -0.0713527896 hartrees
 ----------------------------------------------------------------
             Standard Nuclear Orientation (Angstroms)
    I     Atom           X                Y                Z
 ----------------------------------------------------------------
    1      O      -3.5089430956    -2.8041430967    -0.3405785160
    2      C      -3.4307791529    -1.8418299401     0.4513540544
    3      C      -4.4476572895    -0.6524094791     0.6002213442
    4      C      -3.8069249778     0.7872504434     0.4574493185
    5      C      -2.3281555133     0.7170731819    -0.0480908206
    6      O      -1.6155740051     1.8594670728     0.4350827438
    7      C      -0.1845819415     1.7822115141     0.0515354076
    8      C       0.5844977372     0.7279265169     0.9461672085
    9      O       1.8902550626     0.2090484220     0.4553350535
   10      C       2.0837001188     0.1157619750    -0.9542479829
   11      C       3.5283801532    -0.4583607558    -1.1669282945
   12      C       4.6555732030     0.3232173344    -0.3707729585
   13      C       4.1111030038     1.5223342778     0.4844613546
   14      O       4.2742125479     1.7265909357     1.7052113288
   15      O      -2.4165919005    -1.7044687627     1.4606547238
   16      O       3.4014579778     2.4100861739    -0.3936560485
   17      O       1.2672044889     0.3859509554    -1.8657857156
   18      C       2.8848093974     3.5677244834     0.3700587405
   19      C       3.6794071558    -1.9106618760    -0.5316352427
   20      C       4.9893704086    -2.5754455545    -1.1132548871
   21      C       6.1041291846    -1.7960366505    -0.3201687436
   22      C       5.2263634884    -0.8237130667     0.5601174851
   23      O       4.0268213943    -1.6333490173     0.8793305701
   24      H       3.7248791155    -0.4643890438    -2.2531380683
   25      H       5.4233135543     0.7127452010    -1.0645588702
   26      H       2.7676058058    -2.5363208585    -0.5925545655
   27      H       5.0067665216    -3.6524599155    -0.8823637993
   28      H       5.0720000235    -2.4468824622    -2.2043545645
   29      H       6.6903168294    -2.4730591546     0.3212117707
   30      H       6.7949103696    -1.2506262334    -0.9828489156
   31      H       5.6978217188    -0.4508736290     1.4900841229
   32      O      -1.8286510744    -0.1813544112    -0.7630049364
   33      C      -1.4088125271    -2.7766758717     1.3045517809
   34      C      -5.5173248329    -0.6363592761    -0.5698768219
   35      C      -6.7641299249     0.1934364639    -0.0749146368
   36      C      -6.1746740979     1.6534547502    -0.0960431377
   37      C      -4.7303886070     1.3971006932    -0.6865320852
   38      O      -4.9127709891     0.2452633249    -1.5966754069
   39      H      -4.9413966532    -0.7570196039     1.5840167007
   40      H      -3.8521597974     1.3724358122     1.3920778627
   41      H      -0.8752169540    -2.6880536842     0.3357286000
   42      H      -5.7317874009    -1.6365347400    -0.9944186522
   43      H      -7.6022076530     0.0882571417    -0.7821432138
   44      H      -7.1034157595    -0.1172328887     0.9261400589
   45      H      -6.7513876384     2.3149763016    -0.7617709831
   46      H      -6.1340450574     2.1098485338     0.9060013914
   47      H      -4.2833859683     2.2550179718    -1.2256950398
   48      H      -1.8683344137    -3.7843939646     1.3626018181
   49      H      -0.6903209552    -2.6479206500     2.1350840308
   50      H       2.2772675673     4.1578489594    -0.3405544298
   51      H       3.7092861746     4.1977029949     0.7625087286
   52      H       2.2555036655     3.2461227419     1.2244594703
   53      H       0.8135598153     1.1613529813     1.9420432081
   54      H      -0.0828903998    -0.1481462327     1.0996505684
   55      H       0.2193053163     2.7986985107     0.2149917994
   56      H      -0.0333658245     1.4790580552    -1.0099032907
 ----------------------------------------------------------------
 Molecular Point Group                 C1    NOp =  1
 Largest Abelian Subgroup              C1    NOp =  1
 Nuclear Repulsion Energy =  3174.0684533108 hartrees
 There are      113 alpha and      113 beta electrons
 Applying Cartesian multipole field
    Component          Value
    ---------          -----
     (2,0,0)        1.00000E-12
     (0,2,0)        2.00000E-11
     (0,0,2)       -3.00000E-11
 Nucleus-field energy     =     0.0000000379 hartrees
 Requested basis set is STO-3G
 There are 86 shells and 176 basis functions
 A cutoff of  1.0D-12 yielded   2192 shell pairs
 There are     10262 function pairs
 Smallest overlap matrix eigenvalue = 2.13E-01
 Guess MOs from SCF MO coefficient file
 Reading MOs from coefficient file
 Reading MOs from coefficient file
 A restricted hybrid HF-DFT SCF calculation will be
 performed using Pulay DIIS extrapolation
 Exchange:     0.2000 Hartree-Fock + 0.0800 Slater + 0.7200 B88
 Correlation:  0.1900 VWN1RPA + 0.8100 LYP
 Using SG-1 standard quadrature grid
 Dispersion:   Grimme D3
 SCF converges when DIIS error is below 1.0E-08
 Geometry optimization detected.  Setting ReadMinima to 0
 Setting SaveMinima to 0
 using 48 threads for integral computing
 -------------------------------------------------------
 OpenMP Integral computing Module                
 Release: version 1.0, May 2013, Q-Chem Inc. Pittsburgh 
 -------------------------------------------------------
 -------------------------------------------------------
 OpenMP BLAS3 based DFT computing Module                
 Release: version 1.0, May 2013, Q-Chem Inc. Pittsburgh 
 -------------------------------------------------------
 ---------------------------------------
  Cycle       Energy         DIIS Error
 ---------------------------------------
    1   -1510.1911451315      4.65E-03
    2   -1510.2811122371      3.52E-04
    3   -1510.2811211183      4.78E-04
    4   -1510.2819421515      1.93E-04
    5   -1510.2820929902      5.77E-05
    6   -1510.2821082372      1.77E-05
    7   -1510.2821094477      8.94E-06
    8   -1510.2821097743      2.63E-06
    9   -1510.2821098069      4.89E-07
   10   -1510.2821098082      2.93E-07
   11   -1510.2821098085      1.43E-07
   12   -1510.2821098085      3.44E-08
   13   -1510.2821098086      9.78E-09 Convergence criterion met
 ---------------------------------------
 SCF time:  CPU 91.47 s  wall 1.91 s
 SCF   energy in the final basis set = -1510.28210981
 Total energy in the final basis set = -1510.28210981
 
 --------------------------------------------------------------
 
                    Orbital Energies (a.u.)
 --------------------------------------------------------------
 
 Alpha MOs
 -- Occupied --
-18.940 -18.936 -18.934 -18.924 -18.888 -18.885 -18.882 -18.876
-18.876 -18.868 -10.108 -10.101 -10.100 -10.093 -10.073 -10.068
-10.061 -10.061 -10.060 -10.058 -10.058 -10.055 -10.039 -10.037
-10.037 -10.034 -10.021 -10.020 -10.020 -10.018  -1.018  -1.013
 -1.006  -1.001  -0.970  -0.968  -0.944  -0.937  -0.937  -0.929
 -0.765  -0.761  -0.729  -0.722  -0.711  -0.704  -0.694  -0.666
 -0.657  -0.621  -0.597  -0.586  -0.547  -0.544  -0.538  -0.536
 -0.513  -0.509  -0.483  -0.476  -0.465  -0.459  -0.452  -0.446
 -0.438  -0.431  -0.429  -0.415  -0.409  -0.407  -0.405  -0.391
 -0.391  -0.379  -0.374  -0.369  -0.364  -0.357  -0.354  -0.350
 -0.343  -0.342  -0.338  -0.333  -0.331  -0.327  -0.324  -0.311
 -0.310  -0.306  -0.302  -0.299  -0.297  -0.290  -0.281  -0.279
 -0.272  -0.261  -0.255  -0.248  -0.237  -0.235  -0.232  -0.189
 -0.179  -0.173  -0.169  -0.156  -0.154  -0.148  -0.146  -0.144
 -0.142
 -- Virtual --
  0.088   0.093   0.110   0.116   0.203   0.234   0.240   0.261
  0.265   0.274   0.284   0.287   0.301   0.316   0.324   0.330
  0.331   0.337   0.344   0.346   0.349   0.360   0.361   0.371
  0.379   0.384   0.386   0.395   0.401   0.403   0.410   0.411
  0.415   0.416   0.420   0.424   0.425   0.428   0.430   0.431
  0.435   0.435   0.437   0.443   0.444   0.448   0.462   0.467
  0.468   0.480   0.486   0.489   0.491   0.503   0.510   0.537
  0.542   0.552   0.553   0.642   0.647   0.649   0.650
 --------------------------------------------------------------
 
          Ground-State Mulliken Net Atomic Charges

     Atom                 Charge (a.u.)
  ----------------------------------------
      1 O                    -0.211182
      2 C                     0.215531
      3 C                    -0.079897
      4 C                    -0.078371
      5 C                     0.213034
      6 O                    -0.171976
      7 C                    -0.067626
      8 C                    -0.053364
      9 O                    -0.168416
     10 C                     0.219730
     11 C                    -0.078101
     12 C                    -0.078332
     13 C                     0.216135
     14 O                    -0.212177
     15 O                    -0.178885
     16 O                    -0.175626
     17 O                    -0.206422
     18 C                    -0.129238
     19 C                     0.025969
     20 C                    -0.143716
     21 C                    -0.144153
     22 C                     0.024766
     23 O                    -0.186477
     24 H                     0.086237
     25 H                     0.084690
     26 H                     0.082743
     27 H                     0.078302
     28 H                     0.074427
     29 H                     0.078272
     30 H                     0.073255
     31 H                     0.090135
     32 O                    -0.208113
     33 C                    -0.130286
     34 C                     0.024536
     35 C                    -0.143400
     36 C                    -0.144282
     37 C                     0.025558
     38 O                    -0.187663
     39 H                     0.083074
     40 H                     0.086615
     41 H                     0.091348
     42 H                     0.091509
     43 H                     0.078165
     44 H                     0.072883
     45 H                     0.077990
     46 H                     0.073307
     47 H                     0.083132
     48 H                     0.088826
     49 H                     0.088225
     50 H                     0.090006
     51 H                     0.088520
     52 H                     0.087708
     53 H                     0.088941
     54 H                     0.091778
     55 H                     0.082691
     56 H                     0.119663
  ----------------------------------------
  Sum of atomic charges =     0.000000

 -----------------------------------------------------------------
                    Cartesian Multipole Moments
 -----------------------------------------------------------------
    Charge (ESU x 10^10)
                 0.0000
    Dipole Moment (Debye)
         X       0.7894      Y       1.5720      Z       1.2681
       Tot       2.1686
    Quadrupole Moments (Debye-Ang)
        XX    -141.8064     XY      -6.9664     YY    -153.5642
        XZ     -16.6793     YZ      -1.3725     ZZ    -168.2240
    Octopole Moments (Debye-Ang^2)
       XXX      -4.8973    XXY       9.9679    XYY      23.4249
       YYY      25.1926    XXZ      -6.6312    XYZ      14.6779
       YYZ       6.2598    XZZ      -0.7861    YZZ      -4.7685
       ZZZ       9.5774
    Hexadecapole Moments (Debye-Ang^3)
      XXXX  -14366.6156   XXXY      24.3156   XXYY   -3011.3598
      XYYY     186.8715   YYYY   -2768.2063   XXXZ    -265.5896
      XXYZ     -36.5779   XYYZ      -9.5487   YYYZ     -50.8533
      XXZZ   -2786.3550   XYZZ      29.5716   YYZZ    -633.7244
      XZZZ     -36.4480   YZZZ     -23.3745   ZZZZ    -921.6199
 -----------------------------------------------------------------
 Calculating analytic gradient of the SCF energy
 Gradient of SCF Energy
            1           2           3           4           5           6
    1  -0.0005475  -0.0005939   0.0003505   0.0000969  -0.0013045  -0.0017932
    2  -0.0005010   0.0000584   0.0003310  -0.0001643   0.0021396   0.0003560
    3   0.0001491   0.0013824  -0.0022177   0.0023018  -0.0001980  -0.0019207
            7           8           9          10          11          12
    1  -0.0023078   0.0029251  -0.0021881   0.0012301   0.0002308  -0.0002389
    2  -0.0020120   0.0041702  -0.0057907   0.0019034   0.0001181   0.0007156
    3   0.0024168   0.0011842  -0.0026011   0.0018783   0.0001815  -0.0003607
           13          14          15          16          17          18
    1   0.0008560  -0.0005082   0.0009195  -0.0002691   0.0006265  -0.0006788
    2   0.0003946  -0.0002843  -0.0001384  -0.0009836  -0.0006644   0.0000526
    3  -0.0006443   0.0002326  -0.0002971   0.0004276  -0.0020644  -0.0000509
           19          20          21          22          23          24
    1   0.0001834   0.0000092   0.0001831  -0.0001946   0.0002621   0.0000240
    2   0.0002780   0.0000275   0.0000319  -0.0000861  -0.0001529  -0.0000670
    3   0.0000965   0.0000850  -0.0001652   0.0002308   0.0001844  -0.0000172
           25          26          27          28          29          30
    1  -0.0000481  -0.0000026  -0.0000312   0.0000404  -0.0000904  -0.0001291
    2  -0.0002266  -0.0001492  -0.0000196  -0.0000470   0.0000107   0.0000794
    3  -0.0000114   0.0000697   0.0000014  -0.0000165   0.0000021  -0.0000284
           31          32          33          34          35          36
    1  -0.0000475   0.0000671  -0.0000467   0.0002293  -0.0001759   0.0003107
    2   0.0000291  -0.0012522   0.0002224   0.0004263   0.0000666  -0.0001078
    3  -0.0000451  -0.0001527  -0.0000214  -0.0005063   0.0002011   0.0000664
           37          38          39          40          41          42
    1   0.0003778   0.0000165  -0.0001730  -0.0001284   0.0000687  -0.0000309
    2   0.0000615   0.0002391  -0.0006369  -0.0000909  -0.0000476  -0.0001070
    3  -0.0001175   0.0001208  -0.0000690   0.0000137   0.0000816   0.0001187
           43          44          45          46          47          48
    1  -0.0000186   0.0001296   0.0000379  -0.0001036  -0.0000021  -0.0000532
    2  -0.0000319  -0.0001398  -0.0000055  -0.0000006  -0.0000110   0.0000232
    3   0.0000359  -0.0000804   0.0000100  -0.0000100   0.0000465   0.0000146
           49          50          51          52          53          54
    1   0.0000381  -0.0001792   0.0000106  -0.0005317   0.0000166   0.0013745
    2   0.0000424  -0.0001539  -0.0000497  -0.0002500   0.0006473  -0.0000228
    3  -0.0000470  -0.0000123   0.0000445  -0.0000410   0.0000544   0.0001321
           55          56
    1   0.0004884   0.0013137
    2   0.0004852   0.0012847
    3   0.0002433  -0.0003116
 Max gradient component =       5.791E-03
 RMS gradient           =       9.247E-04
 Gradient time:  CPU 30.66 s  wall 0.65 s
 Geometry Optimization Parameters
   NAtoms,    NIC,     NZ,  NCons,   NDum,   NFix, NCnnct, MaxDiis
       56     458       0       0       0       0       0       0

 Cartesian Hessian Update
 Hessian Updated using BFGS Update


** GEOMETRY OPTIMIZATION IN DELOCALIZED INTERNAL COORDINATES **
   Searching for a Minimum

   Optimization Cycle:   2

                       Coordinates (Angstroms)
     ATOM                X               Y               Z
      1  O        -3.5089430956   -2.8041430967   -0.3405785160
      2  C        -3.4307791529   -1.8418299401    0.4513540544
      3  C        -4.4476572895   -0.6524094791    0.6002213442
      4  C        -3.8069249778    0.7872504434    0.4574493185
      5  C        -2.3281555133    0.7170731819   -0.0480908206
      6  O        -1.6155740051    1.8594670728    0.4350827438
      7  C        -0.1845819415    1.7822115141    0.0515354076
      8  C         0.5844977372    0.7279265169    0.9461672085
      9  O         1.8902550626    0.2090484220    0.4553350535
     10  C         2.0837001188    0.1157619750   -0.9542479829
     11  C         3.5283801532   -0.4583607558   -1.1669282945
     12  C         4.6555732030    0.3232173344   -0.3707729585
     13  C         4.1111030038    1.5223342778    0.4844613546
     14  O         4.2742125479    1.7265909357    1.7052113288
     15  O        -2.4165919005   -1.7044687627    1.4606547238
     16  O         3.4014579778    2.4100861739   -0.3936560485
     17  O         1.2672044889    0.3859509554   -1.8657857156
     18  C         2.8848093974    3.5677244834    0.3700587405
     19  C         3.6794071558   -1.9106618760   -0.5316352427
     20  C         4.9893704086   -2.5754455545   -1.1132548871
     21  C         6.1041291846   -1.7960366505   -0.3201687436
     22  C         5.2263634884   -0.8237130667    0.5601174851
     23  O         4.0268213943   -1.6333490173    0.8793305701
     24  H         3.7248791155   -0.4643890438   -2.2531380683
     25  H         5.4233135543    0.7127452010   -1.0645588702
     26  H         2.7676058058   -2.5363208585   -0.5925545655
     27  H         5.0067665216   -3.6524599155   -0.8823637993
     28  H         5.0720000235   -2.4468824622   -2.2043545645
     29  H         6.6903168294   -2.4730591546    0.3212117707
     30  H         6.7949103696   -1.2506262334   -0.9828489156
     31  H         5.6978217188   -0.4508736290    1.4900841229
     32  O        -1.8286510744   -0.1813544112   -0.7630049364
     33  C        -1.4088125271   -2.7766758717    1.3045517809
     34  C        -5.5173248329   -0.6363592761   -0.5698768219
     35  C        -6.7641299249    0.1934364639   -0.0749146368
     36  C        -6.1746740979    1.6534547502   -0.0960431377
     37  C        -4.7303886070    1.3971006932   -0.6865320852
     38  O        -4.9127709891    0.2452633249   -1.5966754069
     39  H        -4.9413966532   -0.7570196039    1.5840167007
     40  H        -3.8521597974    1.3724358122    1.3920778627
     41  H        -0.8752169540   -2.6880536842    0.3357286000
     42  H        -5.7317874009   -1.6365347400   -0.9944186522
     43  H        -7.6022076530    0.0882571417   -0.7821432138
     44  H        -7.1034157595   -0.1172328887    0.9261400589
     45  H        -6.7513876384    2.3149763016   -0.7617709831
     46  H        -6.1340450574    2.1098485338    0.9060013914
     47  H        -4.2833859683    2.2550179718   -1.2256950398
     48  H        -1.8683344137   -3.7843939646    1.3626018181
     49  H        -0.6903209552   -2.6479206500    2.1350840308
     50  H         2.2772675673    4.1578489594   -0.3405544298
     51  H         3.7092861746    4.1977029949    0.7625087286
     52  H         2.2555036655    3.2461227419    1.2244594703
     53  H         0.8135598153    1.1613529813    1.9420432081
     54  H        -0.0828903998   -0.1481462327    1.0996505684
     55  H         0.2193053163    2.7986985107    0.2149917994
     56  H        -0.0333658245    1.4790580552   -1.0099032907
   Point Group: c1    Number of degrees of freedom:   162


   Energy is  -1510.282109809

 Hessian Updated using BFGS Update

149 Hessian modes will be used to form the next step
  Hessian Eigenvalues:
     0.001444    0.002153    0.002657    0.002704    0.002978    0.004215
     0.004431    0.004485    0.004624    0.005069    0.005091    0.006621
     0.006805    0.007308    0.010682    0.011004    0.011098    0.021541
     0.021734    0.024876    0.026275    0.030183    0.030893    0.032114
     0.035353    0.035650    0.039813    0.040955    0.041521    0.042077
     0.042334    0.046154    0.046458    0.047099    0.047888    0.051055
     0.051105    0.053016    0.053142    0.053559    0.054450    0.054571
     0.055334    0.055799    0.056237    0.058323    0.059738    0.060321
     0.060393    0.063508    0.063877    0.064062    0.064333    0.069442
     0.069856    0.070680    0.072929    0.073187    0.091542    0.092754
     0.092768    0.093073    0.096248    0.096723    0.096897    0.097725
     0.102571    0.102594    0.110077    0.110695    0.110904    0.120991
     0.121063    0.130134    0.137363    0.145896    0.157306    0.159984
     0.159995    0.162699    0.163303    0.170996    0.218682    0.219544
     0.220625    0.224421    0.229102    0.229639    0.238286    0.238456
     0.239625    0.239774    0.246635    0.246916    0.248495    0.248984
     0.249707    0.249809    0.249888    0.250831    0.253399    0.253507
     0.258813    0.259996    0.260546    0.264822    0.292532    0.292672
     0.306632    0.307534    0.321565    0.323236    0.325893    0.326372
     0.326678    0.327000    0.327130    0.328632    0.328665    0.328692
     0.328824    0.329687    0.330537    0.330549    0.330584    0.330735
     0.332619    0.332846    0.333964    0.334787    0.334855    0.334938
     0.334977    0.335024    0.335045    0.335128    0.335166    0.339493
     0.345740    0.345892    0.393636    0.400514    0.401231    0.410232
     0.415836    0.821513    0.825391    0.837135    0.838197

 Minimum Search - Taking Simple RFO Step
 Searching for Lamda that Minimizes Along All modes
 Value Taken    Lamda =  -0.00526376
 Calculated Step too Large.  Step scaled by  0.405335
 Step Taken.  Stepsize is  0.300000

                             Maximum     Tolerance    Cnvgd?
         Gradient           0.011181      0.000300      NO
         Displacement       0.105242      0.001200      NO
         Energy change     -0.001026      0.000001      NO


 New Cartesian Coordinates Obtained by Inverse Iteration

 Displacement from previous Coordinates is:  2.830044
 Adding empirical dispersion correction 
 ----------------------------------------------------------------
 Doing -D3(op) with
 s6 =   1.00000
 s8 =   0.78311
 a1 =   0.30000
 a2 =   4.25000
 n  =  10.00000
 -D3 energy without 3body term =     -0.0705618553 hartrees
 ----------------------------------------------------------------
             Standard Nuclear Orientation (Angstroms)
    I     Atom           X                Y                Z
 ----------------------------------------------------------------
    1      O      -3.3932427575    -2.7259819283    -0.5962890769
    2      C      -3.3610935115    -1.8535898814     0.2965021974
    3      C      -4.4162110768    -0.7156606547     0.5488099085
    4      C      -3.8340961823     0.7535051131     0.4627703108
    5      C      -2.3689488395     0.7675348099    -0.0866911549
    6      O      -1.6693921749     1.8799277252     0.4788001366
    7      C      -0.2370889427     1.8355764520     0.0987401966
    8      C       0.5511532052     0.8072023045     1.0058999096
    9      O       1.8803534192     0.3381288938     0.5298683548
   10      C       2.0447346706     0.1681237732    -0.8761399821
   11      C       3.4614167525    -0.4713282016    -1.0907598295
   12      C       4.6440124130     0.2938990908    -0.3605078499
   13      C       4.1876485762     1.5633781707     0.4438478162
   14      O       4.4109070666     1.8273677206     1.6434109531
   15      O      -2.3415682578    -1.7644119688     1.3054235747
   16      O       3.5512737989     2.4670199654    -0.4737371429
   17      O       1.2047626659     0.3909091250    -1.7790361307
   18      C       3.1870972719     3.7199285768     0.2247808111
   19      C       3.5633849262    -1.8967804385    -0.3888542169
   20      C       4.8270051143    -2.6486606403    -0.9667274183
   21      C       5.9950170194    -1.8860844755    -0.2364908476
   22      C       5.1840655951    -0.8320948111     0.6134370355
   23      O       3.9569358357    -1.5683458969     0.9986842587
   24      H       3.6293922669    -0.5404707070    -2.1796113984
   25      H       5.4113199745     0.6091401489    -1.0914899115
   26      H       2.6228866061    -2.4814976619    -0.3991055977
   27      H       4.8007691051    -3.7133490512    -0.6850750649
   28      H       4.8886977517    -2.5751234259    -2.0642379129
   29      H       6.5643564228    -2.5587247712     0.4244466464
   30      H       6.6946483928    -1.4068180610    -0.9398293881
   31      H       5.6945600027    -0.4369601401     1.5130638892
   32      O      -1.8594636728    -0.0688296517    -0.8666247935
   33      C      -1.2887166974    -2.7690933736     1.0375944611
   34      C      -5.5225667452    -0.6775919116    -0.5866031749
   35      C      -6.7829932065     0.0772056833    -0.0122227568
   36      C      -6.2487174413     1.5579481379     0.0261983949
   37      C      -4.8149959008     1.3875676759    -0.6191444435
   38      O      -4.9838744964     0.2783755450    -1.5829952984
   39      H      -4.8764151040    -0.8948259119     1.5379916704
   40      H      -3.8714806038     1.2851294021     1.4292425143
   41      H      -0.7733934490    -2.5634347411     0.0767302996
   42      H      -5.7138330320    -1.6612329201    -1.0581626642
   43      H      -7.6382048464    -0.0231556423    -0.6993754548
   44      H      -7.0797551750    -0.2971035264     0.9805985237
   45      H      -6.8699390889     2.2302678136    -0.5865967036
   46      H      -6.1930650808     1.9635985787     1.0491153503
   47      H      -4.4168172900     2.2886267301    -1.1252548382
   48      H      -1.7016688089    -3.7978234475     1.0024467460
   49      H      -0.5654695131    -2.6875265388     1.8699143760
   50      H       2.6209554176     4.3258828077    -0.5064252914
   51      H       4.0870015019     4.2809549584     0.5504223356
   52      H       2.5583666022     3.5237226620     1.1166641133
   53      H       0.7581187655     1.2574673509     1.9990278310
   54      H      -0.0889825843    -0.0888549067     1.1622785311
   55      H       0.1403077977     2.8615865288     0.2646050238
   56      H      -0.0752070639     1.5346224478    -0.9616672101
 ----------------------------------------------------------------
 Molecular Point Group                 C1    NOp =  1
 Largest Abelian Subgroup              C1    NOp =  1
 Nuclear Repulsion Energy =  3169.5194920452 hartrees
 There are      113 alpha and      113 beta electrons
 Applying Cartesian multipole field
    Component          Value
    ---------          -----
     (2,0,0)        1.00000E-12
     (0,2,0)        2.00000E-11
     (0,0,2)       -3.00000E-11
 Nucleus-field energy     =     0.0000000409 hartrees
 Requested basis set is STO-3G
 There are 86 shells and 176 basis functions
 A cutoff of  1.0D-12 yielded   2194 shell pairs
 There are     10264 function pairs
 Smallest overlap matrix eigenvalue = 2.13E-01
 Guess MOs from SCF MO coefficient file
 Reading MOs from coefficient file
 Reading MOs from coefficient file
 A restricted hybrid HF-DFT SCF calculation will be
 performed using Pulay DIIS extrapolation
 Exchange:     0.2000 Hartree-Fock + 0.0800 Slater + 0.7200 B88
 Correlation:  0.1900 VWN1RPA + 0.8100 LYP
 Using SG-1 standard quadrature grid
 Dispersion:   Grimme D3
 SCF converges when DIIS error is below 1.0E-08
 Geometry optimization detected.  Setting ReadMinima to 0
 Setting SaveMinima to 0
 using 48 threads for integral computing
 -------------------------------------------------------
 OpenMP Integral computing Module                
 Release: version 1.0, May 2013, Q-Chem Inc. Pittsburgh 
 -------------------------------------------------------
 -------------------------------------------------------
 OpenMP BLAS3 based DFT computing Module                
 Release: version 1.0, May 2013, Q-Chem Inc. Pittsburgh 
 -------------------------------------------------------
 ---------------------------------------
  Cycle       Energy         DIIS Error
 ---------------------------------------
    1   -1510.1937651451      4.44E-03
    2   -1510.2814219391      3.57E-04
    3   -1510.2812541403      5.23E-04
    4   -1510.2823045159      1.80E-04
    5   -1510.2824329939      6.21E-05
    6   -1510.2824503093      1.77E-05
    7   -1510.2824513941      1.05E-05
    8   -1510.2824518631      2.36E-06
    9   -1510.2824518903      5.27E-07
   10   -1510.2824518915      4.05E-07
   11   -1510.2824518922      1.33E-07
   12   -1510.2824518923      3.33E-08
   13   -1510.2824518923      9.08E-09 Convergence criterion met
 ---------------------------------------
 SCF time:  CPU 96.23 s  wall 2.01 s
 SCF   energy in the final basis set = -1510.28245189
 Total energy in the final basis set = -1510.28245189
 
 --------------------------------------------------------------
 
                    Orbital Energies (a.u.)
 --------------------------------------------------------------
 
 Alpha MOs
 -- Occupied --
-18.941 -18.936 -18.933 -18.924 -18.888 -18.885 -18.883 -18.876
-18.876 -18.868 -10.107 -10.101 -10.099 -10.093 -10.073 -10.067
-10.062 -10.061 -10.060 -10.058 -10.058 -10.055 -10.039 -10.038
-10.037 -10.034 -10.021 -10.020 -10.019 -10.018  -1.018  -1.013
 -1.007  -1.002  -0.971  -0.968  -0.944  -0.937  -0.937  -0.929
 -0.765  -0.761  -0.729  -0.722  -0.712  -0.704  -0.694  -0.665
 -0.658  -0.621  -0.598  -0.586  -0.547  -0.543  -0.538  -0.536
 -0.513  -0.508  -0.482  -0.476  -0.465  -0.459  -0.452  -0.445
 -0.437  -0.430  -0.429  -0.415  -0.409  -0.408  -0.406  -0.392
 -0.391  -0.379  -0.374  -0.368  -0.365  -0.357  -0.354  -0.349
 -0.343  -0.342  -0.337  -0.333  -0.331  -0.327  -0.324  -0.311
 -0.310  -0.306  -0.302  -0.299  -0.297  -0.291  -0.280  -0.278
 -0.272  -0.260  -0.255  -0.249  -0.238  -0.235  -0.232  -0.189
 -0.178  -0.173  -0.170  -0.156  -0.154  -0.148  -0.146  -0.144
 -0.141
 -- Virtual --
  0.088   0.093   0.108   0.115   0.205   0.235   0.240   0.261
  0.265   0.275   0.285   0.287   0.301   0.316   0.325   0.330
  0.331   0.337   0.345   0.346   0.348   0.360   0.361   0.372
  0.379   0.384   0.386   0.396   0.402   0.404   0.410   0.411
  0.415   0.418   0.421   0.425   0.425   0.427   0.431   0.432
  0.434   0.435   0.436   0.442   0.444   0.446   0.461   0.467
  0.468   0.474   0.485   0.489   0.491   0.503   0.510   0.537
  0.542   0.552   0.553   0.642   0.647   0.648   0.651
 --------------------------------------------------------------
 
          Ground-State Mulliken Net Atomic Charges

     Atom                 Charge (a.u.)
  ----------------------------------------
      1 O                    -0.210013
      2 C                     0.215068
      3 C                    -0.079927
      4 C                    -0.078373
      5 C                     0.212189
      6 O                    -0.172179
      7 C                    -0.067578
      8 C                    -0.052666
      9 O                    -0.168075
     10 C                     0.218168
     11 C                    -0.078089
     12 C                    -0.078241
     13 C                     0.215576
     14 O                    -0.212296
     15 O                    -0.178782
     16 O                    -0.175253
     17 O                    -0.205567
     18 C                    -0.129157
     19 C                     0.025989
     20 C                    -0.143716
     21 C                    -0.144096
     22 C                     0.024622
     23 O                    -0.186623
     24 H                     0.086303
     25 H                     0.085007
     26 H                     0.081941
     27 H                     0.078311
     28 H                     0.074622
     29 H                     0.078290
     30 H                     0.073342
     31 H                     0.090278
     32 O                    -0.207033
     33 C                    -0.130555
     34 C                     0.024724
     35 C                    -0.143438
     36 C                    -0.144309
     37 C                     0.025596
     38 O                    -0.187453
     39 H                     0.082935
     40 H                     0.086680
     41 H                     0.091373
     42 H                     0.091140
     43 H                     0.078117
     44 H                     0.072749
     45 H                     0.077905
     46 H                     0.073261
     47 H                     0.083015
     48 H                     0.088916
     49 H                     0.088058
     50 H                     0.090135
     51 H                     0.087895
     52 H                     0.087980
     53 H                     0.089844
     54 H                     0.090425
     55 H                     0.082036
     56 H                     0.120928
  ----------------------------------------
  Sum of atomic charges =     0.000000

 -----------------------------------------------------------------
                    Cartesian Multipole Moments
 -----------------------------------------------------------------
    Charge (ESU x 10^10)
                 0.0000
    Dipole Moment (Debye)
         X       0.7896      Y       1.2832      Z       1.3461
       Tot       2.0204
    Quadrupole Moments (Debye-Ang)
        XX    -142.2146     XY      -6.3224     YY    -152.2787
        XZ     -17.3654     YZ      -1.7147     ZZ    -169.1687
    Octopole Moments (Debye-Ang^2)
       XXX      -8.3046    XXY       3.0424    XYY      24.5742
       YYY      21.3050    XXZ      -3.9572    XYZ      12.7633
       YYZ       5.2498    XZZ       0.8349    YZZ      -4.3440
       ZZZ      10.4212
    Hexadecapole Moments (Debye-Ang^3)
      XXXX  -14400.0518   XXXY     -24.8723   XXYY   -3002.1213
      XYYY     144.6800   YYYY   -2829.6987   XXXZ    -338.5546
      XXYZ     -48.8814   XYYZ     -32.9503   YYYZ     -71.9990
      XXZZ   -2792.3173   XYZZ       3.4099   YYZZ    -647.0884
      XZZZ    -102.6704   YZZZ     -33.3793   ZZZZ    -851.4279
 -----------------------------------------------------------------
 Calculating analytic gradient of the SCF energy
 Gradient of SCF Energy
            1           2           3           4           5           6
    1   0.0002948  -0.0019989   0.0015208   0.0005199  -0.0020962  -0.0013580
    2   0.0009712  -0.0025444   0.0014873  -0.0013227   0.0047461   0.0006382
    3  -0.0011807   0.0038717  -0.0015647   0.0026654  -0.0030629  -0.0012671
            7           8           9          10          11          12
    1  -0.0027017   0.0019507  -0.0022582   0.0019663  -0.0005260   0.0014731
    2  -0.0046610   0.0025807  -0.0065417   0.0061095  -0.0015972   0.0015385
    3   0.0021464   0.0005887  -0.0019735   0.0014473   0.0005045  -0.0006208
           13          14          15          16          17          18
    1  -0.0034361   0.0011535   0.0011228   0.0007308  -0.0005163   0.0008499
    2  -0.0023103   0.0008502  -0.0001882   0.0008413  -0.0017050   0.0004702
    3   0.0013472  -0.0005388  -0.0003634  -0.0000841  -0.0009996   0.0000030
           19          20          21          22          23          24
    1   0.0006451   0.0000065   0.0001127  -0.0000579   0.0003102  -0.0002223
    2   0.0003808   0.0000016   0.0001641  -0.0003005  -0.0000448  -0.0001360
    3  -0.0000541  -0.0000012   0.0002697  -0.0001685   0.0002943  -0.0000319
           25          26          27          28          29          30
    1  -0.0001377  -0.0000125   0.0000081  -0.0000121   0.0000097  -0.0000352
    2  -0.0001260   0.0000146  -0.0000077  -0.0000563  -0.0000180  -0.0001363
    3  -0.0000344   0.0000029   0.0000095   0.0000082  -0.0000436  -0.0001590
           31          32          33          34          35          36
    1  -0.0000304   0.0002638  -0.0001307   0.0007358  -0.0002499  -0.0000026
    2   0.0000213  -0.0017298   0.0003628   0.0004602   0.0000445   0.0000255
    3  -0.0001101   0.0000108  -0.0001791  -0.0000047   0.0000150   0.0000646
           37          38          39          40          41          42
    1   0.0004791   0.0000335  -0.0006676  -0.0002615   0.0000401   0.0000223
    2   0.0001966   0.0003544  -0.0009341  -0.0002613  -0.0001329  -0.0001198
    3  -0.0005668   0.0002036  -0.0004825   0.0000659   0.0002669   0.0001620
           43          44          45          46          47          48
    1  -0.0000349   0.0000120   0.0000314  -0.0000341  -0.0000681  -0.0001214
    2   0.0000296  -0.0001655  -0.0000219  -0.0000566   0.0000509   0.0000264
    3   0.0000396   0.0000240   0.0000112  -0.0000498  -0.0000559  -0.0000052
           49          50          51          52          53          54
    1  -0.0000317   0.0001060  -0.0001261   0.0004817   0.0004193   0.0015113
    2   0.0001004   0.0000219   0.0000501   0.0000803   0.0010416   0.0002308
    3  -0.0001073  -0.0000673   0.0000487  -0.0000486  -0.0001381   0.0006693
           55          56
    1  -0.0012733   0.0015903
    2  -0.0007344   0.0019609
    3   0.0002033  -0.0009799
 Max gradient component =       6.542E-03
 RMS gradient           =       1.297E-03
 Gradient time:  CPU 29.90 s  wall 0.63 s
 Geometry Optimization Parameters
   NAtoms,    NIC,     NZ,  NCons,   NDum,   NFix, NCnnct, MaxDiis
       56     458       0       0       0       0       0       0

 Cartesian Hessian Update
 Hessian Updated using BFGS Update


** GEOMETRY OPTIMIZATION IN DELOCALIZED INTERNAL COORDINATES **
   Searching for a Minimum

   Optimization Cycle:   3

                       Coordinates (Angstroms)
     ATOM                X               Y               Z
      1  O        -3.3932427575   -2.7259819283   -0.5962890769
      2  C        -3.3610935115   -1.8535898814    0.2965021974
      3  C        -4.4162110768   -0.7156606547    0.5488099085
      4  C        -3.8340961823    0.7535051131    0.4627703108
      5  C        -2.3689488395    0.7675348099   -0.0866911549
      6  O        -1.6693921749    1.8799277252    0.4788001366
      7  C        -0.2370889427    1.8355764520    0.0987401966
      8  C         0.5511532052    0.8072023045    1.0058999096
      9  O         1.8803534192    0.3381288938    0.5298683548
     10  C         2.0447346706    0.1681237732   -0.8761399821
     11  C         3.4614167525   -0.4713282016   -1.0907598295
     12  C         4.6440124130    0.2938990908   -0.3605078499
     13  C         4.1876485762    1.5633781707    0.4438478162
     14  O         4.4109070666    1.8273677206    1.6434109531
     15  O        -2.3415682578   -1.7644119688    1.3054235747
     16  O         3.5512737989    2.4670199654   -0.4737371429
     17  O         1.2047626659    0.3909091250   -1.7790361307
     18  C         3.1870972719    3.7199285768    0.2247808111
     19  C         3.5633849262   -1.8967804385   -0.3888542169
     20  C         4.8270051143   -2.6486606403   -0.9667274183
     21  C         5.9950170194   -1.8860844755   -0.2364908476
     22  C         5.1840655951   -0.8320948111    0.6134370355
     23  O         3.9569358357   -1.5683458969    0.9986842587
     24  H         3.6293922669   -0.5404707070   -2.1796113984
     25  H         5.4113199745    0.6091401489   -1.0914899115
     26  H         2.6228866061   -2.4814976619   -0.3991055977
     27  H         4.8007691051   -3.7133490512   -0.6850750649
     28  H         4.8886977517   -2.5751234259   -2.0642379129
     29  H         6.5643564228   -2.5587247712    0.4244466464
     30  H         6.6946483928   -1.4068180610   -0.9398293881
     31  H         5.6945600027   -0.4369601401    1.5130638892
     32  O        -1.8594636728   -0.0688296517   -0.8666247935
     33  C        -1.2887166974   -2.7690933736    1.0375944611
     34  C        -5.5225667452   -0.6775919116   -0.5866031749
     35  C        -6.7829932065    0.0772056833   -0.0122227568
     36  C        -6.2487174413    1.5579481379    0.0261983949
     37  C        -4.8149959008    1.3875676759   -0.6191444435
     38  O        -4.9838744964    0.2783755450   -1.5829952984
     39  H        -4.8764151040   -0.8948259119    1.5379916704
     40  H        -3.8714806038    1.2851294021    1.4292425143
     41  H        -0.7733934490   -2.5634347411    0.0767302996
     42  H        -5.7138330320   -1.6612329201   -1.0581626642
     43  H        -7.6382048464   -0.0231556423   -0.6993754548
     44  H        -7.0797551750   -0.2971035264    0.9805985237
     45  H        -6.8699390889    2.2302678136   -0.5865967036
     46  H        -6.1930650808    1.9635985787    1.0491153503
     47  H        -4.4168172900    2.2886267301   -1.1252548382
     48  H        -1.7016688089   -3.7978234475    1.0024467460
     49  H        -0.5654695131   -2.6875265388    1.8699143760
     50  H         2.6209554176    4.3258828077   -0.5064252914
     51  H         4.0870015019    4.2809549584    0.5504223356
     52  H         2.5583666022    3.5237226620    1.1166641133
     53  H         0.7581187655    1.2574673509    1.9990278310
     54  H        -0.0889825843   -0.0888549067    1.1622785311
     55  H         0.1403077977    2.8615865288    0.2646050238
     56  H        -0.0752070639    1.5346224478   -0.9616672101
   Point Group: c1    Number of degrees of freedom:   162


   Energy is  -1510.282451892

 Hessian Updated using BFGS Update

152 Hessian modes will be used to form the next step
  Hessian Eigenvalues:
     0.001834    0.002113    0.002209    0.002665    0.002705    0.003724
     0.004407    0.004451    0.004578    0.005067    0.005091    0.005923
     0.006773    0.006954    0.009396    0.010684    0.010793    0.015271
     0.021547    0.021732    0.025092    0.026259    0.030703    0.030937
     0.035053    0.035456    0.036812    0.039403    0.040947    0.041553
     0.042129    0.043058    0.045885    0.046597    0.047542    0.050982
     0.051057    0.052533    0.053040    0.053420    0.053587    0.054448
     0.054572    0.055342    0.055798    0.056801    0.059578    0.059746
     0.060368    0.060495    0.063508    0.063882    0.064062    0.064335
     0.069828    0.069877    0.072808    0.072931    0.075647    0.091610
     0.092754    0.092766    0.093100    0.096361    0.096751    0.096893
     0.100001    0.102571    0.102759    0.110403    0.110751    0.111443
     0.120903    0.121571    0.136477    0.138868    0.145842    0.157538
     0.159984    0.159996    0.160034    0.163173    0.163398    0.189828
     0.217463    0.218692    0.219686    0.224711    0.229541    0.230300
     0.238101    0.238435    0.239625    0.239760    0.246092    0.246817
     0.247348    0.248597    0.249703    0.249810    0.249889    0.250768
     0.253323    0.253505    0.254274    0.258884    0.259720    0.260157
     0.264871    0.292608    0.292761    0.305609    0.307553    0.321403
     0.324007    0.326022    0.326353    0.326561    0.326683    0.327000
     0.328527    0.328636    0.328693    0.328771    0.328847    0.330538
     0.330553    0.330602    0.330738    0.332631    0.332845    0.334785
     0.334851    0.334938    0.334969    0.335024    0.335042    0.335128
     0.335165    0.336319    0.341049    0.345769    0.345977    0.392427
     0.399230    0.401323    0.409462    0.420103    0.821078    0.824624
     0.837084    0.838219

 Minimum Search - Taking Simple RFO Step
 Searching for Lamda that Minimizes Along All modes
 Value Taken    Lamda =  -0.00356344
 Calculated Step too Large.  Step scaled by  0.533758
 Step Taken.  Stepsize is  0.300000

                             Maximum     Tolerance    Cnvgd?
         Gradient           0.010265      0.000300      NO
         Displacement       0.130046      0.001200      NO
         Energy change     -0.000342      0.000001      NO


 New Cartesian Coordinates Obtained by Inverse Iteration

 Displacement from previous Coordinates is:  1.192861
 Adding empirical dispersion correction 
 ----------------------------------------------------------------
 Doing -D3(op) with
 s6 =   1.00000
 s8 =   0.78311
 a1 =   0.30000
 a2 =   4.25000
 n  =  10.00000
 -D3 energy without 3body term =     -0.0708507338 hartrees
 ----------------------------------------------------------------
             Standard Nuclear Orientation (Angstroms)
    I     Atom           X                Y                Z
 ----------------------------------------------------------------
    1      O      -3.2871139513    -2.7108046467    -0.5744919894
    2      C      -3.2767327715    -1.8296583175     0.3100258075
    3      C      -4.3626189790    -0.7199037252     0.5583836812
    4      C      -3.8156584380     0.7605632783     0.4423388024
    5      C      -2.3426071859     0.7937560472    -0.0862626392
    6      O      -1.6710597201     1.9288283441     0.4693298279
    7      C      -0.2439768959     1.9066547327     0.0762829942
    8      C       0.5472973411     0.8924341024     0.9934790113
    9      O       1.8934752680     0.4676010089     0.5290449147
   10      C       2.0205924631     0.2230097699    -0.8702429973
   11      C       3.4213493040    -0.4454142689    -1.0968999743
   12      C       4.6270950824     0.2724882910    -0.3561172057
   13      C       4.2154415025     1.5471953932     0.4644090046
   14      O       4.4323221273     1.7809959257     1.6713779906
   15      O      -2.2830772198    -1.7326409508     1.3430355489
   16      O       3.5630491151     2.4634764057    -0.4293721766
   17      O       1.1750097787     0.4623498906    -1.7631399680
   18      C       3.2022626347     3.7016736877     0.2963957217
   19      C       3.4809600026    -1.8837135317    -0.4173456938
   20      C       4.7221588712    -2.6634767562    -1.0066118663
   21      C       5.9114738582    -1.9486387164    -0.2627005420
   22      C       5.1316367625    -0.8831856204     0.6019293993
   23      O       3.8820230958    -1.5875185335     0.9750341596
   24      H       3.5853334471    -0.5047373756    -2.1869595275
   25      H       5.4037869473     0.5736592140    -1.0832459926
   26      H       2.5233742346    -2.4396621091    -0.4375479764
   27      H       4.6636576565    -3.7314272301    -0.7428087788
   28      H       4.7873314924    -2.5733454305    -2.1026614146
   29      H       6.4588394292    -2.6485007332     0.3885332510
   30      H       6.6271678133    -1.4802042793    -0.9571638328
   31      H       5.6528379186    -0.5170126030     1.5077110115
   32      O      -1.8159076593    -0.0234728786    -0.8741732762
   33      C      -1.2137678111    -2.7253629016     1.0949242911
   34      C      -5.4723096834    -0.7287806820    -0.5749495318
   35      C      -6.7469405195     0.0165092238    -0.0195969759
   36      C      -6.2426502606     1.5082140699    -0.0212963759
   37      C      -4.8042671896     1.3483679916    -0.6590628878
   38      O      -4.9509676000     0.2119928507    -1.5947253419
   39      H      -4.8138091078    -0.8928829813     1.5527089417
   40      H      -3.8724384067     1.3104650607     1.3976488404
   41      H      -0.6792506768    -2.5087100615     0.1469025052
   42      H      -5.6450083828    -1.7261450290    -1.0241836186
   43      H      -7.5997664400    -0.1187267257    -0.7037448751
   44      H      -7.0371958220    -0.3361928999     0.9830431506
   45      H      -6.8759563757     2.1511404362    -0.6530368850
   46      H      -6.1965022555     1.9427640203     0.9901995062
   47      H      -4.4216800994     2.2437391089    -1.1868375783
   48      H      -1.6147637922    -3.7581802614     1.0445521425
   49      H      -0.5107759319    -2.6411737763     1.9441910714
   50      H       2.6237307183     4.3183128553    -0.4159338666
   51      H       4.1041339973     4.2609311278     0.6197227719
   52      H       2.5868045214     3.4869112739     1.1932581554
   53      H       0.7331730370     1.3466556307     1.9885551540
   54      H      -0.0782905106    -0.0164709475     1.1415140649
   55      H       0.1248301330     2.9382513520     0.2276634532
   56      H      -0.0921074724     1.5862457850    -0.9794207687
 ----------------------------------------------------------------
 Molecular Point Group                 C1    NOp =  1
 Largest Abelian Subgroup              C1    NOp =  1
 Nuclear Repulsion Energy =  3178.8976583030 hartrees
 There are      113 alpha and      113 beta electrons
 Applying Cartesian multipole field
    Component          Value
    ---------          -----
     (2,0,0)        1.00000E-12
     (0,2,0)        2.00000E-11
     (0,0,2)       -3.00000E-11
 Nucleus-field energy     =     0.0000000404 hartrees
 Requested basis set is STO-3G
 There are 86 shells and 176 basis functions
 A cutoff of  1.0D-12 yielded   2201 shell pairs
 There are     10322 function pairs
 Smallest overlap matrix eigenvalue = 2.13E-01
 Guess MOs from SCF MO coefficient file
 Reading MOs from coefficient file
 Reading MOs from coefficient file
 A restricted hybrid HF-DFT SCF calculation will be
 performed using Pulay DIIS extrapolation
 Exchange:     0.2000 Hartree-Fock + 0.0800 Slater + 0.7200 B88
 Correlation:  0.1900 VWN1RPA + 0.8100 LYP
[...]
      7  C        -0.1070112212    1.1102012159    0.8955573052
      8  C         0.6320835276   -0.1287116444    1.5158868316
      9  O         2.0432082158   -0.2217122408    1.0649996962
     10  C         2.1378131549   -0.8357987825   -0.2227946292
     11  C         3.6486396414   -1.0711903988   -0.5543193989
     12  C         4.5575490624    0.2223074248   -0.4486008151
     13  C         3.7791086691    1.5567852486   -0.1741302477
     14  O         4.0282944341    2.4179269371    0.6949159301
     15  O        -2.4146479674   -1.6887760493    0.1143773617
     16  O         2.7354539067    1.6656271261   -1.1520583514
     17  O         1.1619191636   -1.1863030502   -0.9246351806
     18  C         2.0673917743    2.9831046806   -1.0509673760
     19  C         4.3294616960   -1.9870828517    0.5564076058
     20  C         5.7338463925   -2.4735121241    0.0187114508
     21  C         6.6022109568   -1.1730038761    0.2041966487
     22  C         5.5181859816   -0.1663103318    0.7520377792
     23  O         4.6720110290   -1.0187467464    1.6200125150
     24  H         3.7013717342   -1.5268699666   -1.5583998702
     25  H         5.1288416107    0.3596243969   -1.3857008818
     26  H         3.6753779585   -2.7874064669    0.9537537340
     27  H         6.1127902646   -3.3051214447    0.6336558899
     28  H         5.6823841375   -2.8054417118   -1.0306668984
     29  H         7.3976183712   -1.3238145012    0.9511701654
     30  H         7.0600598429   -0.8262477162   -0.7358897514
     31  H         5.9006467435    0.7049663288    1.3186470489
     32  O        -1.9309324064    0.9549036969   -1.0423112268
     33  C        -1.4729414096   -2.5675117304   -0.6244775881
     34  C        -5.7365834438    0.0032207865   -0.7270834285
     35  C        -6.8433693343    0.6295514543    0.2072545269
     36  C        -6.1516572775    1.9768194168    0.6349763395
     37  C        -4.7819630235    1.8799729169   -0.1480254119
     38  O        -5.1439851072    1.1826310902   -1.4017656429
     39  H        -4.9240235680   -1.0689920200    1.0685727549
     40  H        -3.8751281448    0.9696669835    1.6985243057
     41  H        -0.5145739648   -2.0182641879   -0.7724709121
     42  H        -6.0909385347   -0.7321515413   -1.4757542464
     43  H        -7.7682746256    0.8136121782   -0.3623170274
     44  H        -7.0809315223   -0.0190865589    1.0657942430
     45  H        -6.7267273659    2.8523737950    0.2943835503
     46  H        -6.0023268243    2.0530561888    1.7238773424
     47  H        -4.2950940116    2.8492578503   -0.3702159450
     48  H        -1.9200536943   -2.8445528083   -1.5992657105
     49  H        -1.2963317391   -3.4799918069   -0.0216511460
     50  H         1.1304495244    2.9030493363   -1.6324920892
     51  H         2.7022064737    3.7832679244   -1.4844457690
     52  H         1.8393967139    3.2473908677    0.0003074489
     53  H         0.6822859936   -0.0319794217    2.6189050553
     54  H         0.0684855461   -1.0491625436    1.2564607012
     55  H         0.3366962346    2.0543398661    1.2716950064
     56  H        -0.0598440571    1.0776601639   -0.2150583750
   Point Group: c1    Number of degrees of freedom:   162


   Energy is  -1510.292457608

 Hessian Updated using BFGS Update

162 Hessian modes will be used to form the next step
  Hessian Eigenvalues:
     0.000939    0.002230    0.002462    0.002641    0.004082    0.004727
     0.005313    0.005638    0.006868    0.008145    0.008748    0.010035
     0.011471    0.016473    0.021647    0.021703    0.024265    0.025279
     0.027574    0.031000    0.031428    0.032360    0.032422    0.033915
     0.034278    0.036633    0.039002    0.040764    0.041364    0.042040
     0.042584    0.044657    0.046004    0.048054    0.049150    0.051170
     0.051417    0.052924    0.053366    0.053580    0.054200    0.054688
     0.054772    0.056334    0.056863    0.057247    0.058677    0.060704
     0.061510    0.063525    0.063714    0.064086    0.064324    0.064607
     0.069506    0.070086    0.071608    0.072817    0.073178    0.078874
     0.081268    0.092669    0.092797    0.093466    0.096569    0.097644
     0.099852    0.101166    0.103188    0.104848    0.107735    0.108788
     0.113342    0.119315    0.125870    0.137705    0.140706    0.143863
     0.152251    0.157854    0.158547    0.159991    0.160381    0.160884
     0.162797    0.164663    0.165580    0.195526    0.208817    0.219400
     0.221286    0.230695    0.232594    0.236960    0.237322    0.239137
     0.239680    0.241423    0.245152    0.246794    0.246950    0.248132
     0.248507    0.249992    0.250702    0.252101    0.252881    0.253401
     0.253894    0.259057    0.259503    0.260601    0.262679    0.267729
     0.270967    0.292467    0.293073    0.305127    0.307718    0.314287
     0.320976    0.325352    0.326124    0.326507    0.326683    0.327055
     0.327336    0.328667    0.328710    0.328788    0.328943    0.329864
     0.330402    0.330707    0.330868    0.330921    0.332679    0.332755
     0.334351    0.334780    0.334859    0.334959    0.335019    0.335042
     0.335116    0.335163    0.335879    0.345896    0.349192    0.364109
     0.389399    0.398547    0.402397    0.418655    0.504575    0.508337
     0.540054    0.819308    0.824597    0.837752    0.838179    1.945093

 Minimum Search - Taking Simple RFO Step
 Searching for Lamda that Minimizes Along All modes
 Value Taken    Lamda =  -0.00000133
 Step Taken.  Stepsize is  0.013274

                             Maximum     Tolerance    Cnvgd?
         Gradient           0.000155      0.000300     YES
         Displacement       0.005188      0.001200      NO
         Energy change      0.000000      0.000001     YES

 Final energy is   -1510.29245760846     


 ******************************
 **  OPTIMIZATION CONVERGED  **
 ******************************

                       Coordinates (Angstroms)
     ATOM                X               Y               Z
      1  O        -3.8736882690   -2.0444012888   -1.7274161634
      2  C        -3.6206091215   -1.5002154104   -0.6309783448
      3  C        -4.5517852226   -0.5293336094    0.1780822475
      4  C        -3.8517278084    0.8308068472    0.6037527199
      5  C        -2.3641027732    0.9349594038    0.1309872064
      6  O        -1.5325889223    1.0638516104    1.2976496343
      7  C        -0.1070112212    1.1102012159    0.8955573052
      8  C         0.6320835276   -0.1287116444    1.5158868316
      9  O         2.0432082158   -0.2217122408    1.0649996962
     10  C         2.1378131549   -0.8357987825   -0.2227946292
     11  C         3.6486396414   -1.0711903988   -0.5543193989
     12  C         4.5575490624    0.2223074248   -0.4486008151
     13  C         3.7791086691    1.5567852486   -0.1741302477
     14  O         4.0282944341    2.4179269371    0.6949159301
     15  O        -2.4146479674   -1.6887760493    0.1143773617
     16  O         2.7354539067    1.6656271261   -1.1520583514
     17  O         1.1619191636   -1.1863030502   -0.9246351806
     18  C         2.0673917743    2.9831046806   -1.0509673760
     19  C         4.3294616960   -1.9870828517    0.5564076058
     20  C         5.7338463925   -2.4735121241    0.0187114508
     21  C         6.6022109568   -1.1730038761    0.2041966487
     22  C         5.5181859816   -0.1663103318    0.7520377792
     23  O         4.6720110290   -1.0187467464    1.6200125150
     24  H         3.7013717342   -1.5268699666   -1.5583998702
     25  H         5.1288416107    0.3596243969   -1.3857008818
     26  H         3.6753779585   -2.7874064669    0.9537537340
     27  H         6.1127902646   -3.3051214447    0.6336558899
     28  H         5.6823841375   -2.8054417118   -1.0306668984
     29  H         7.3976183712   -1.3238145012    0.9511701654
     30  H         7.0600598429   -0.8262477162   -0.7358897514
     31  H         5.9006467435    0.7049663288    1.3186470489
     32  O        -1.9309324064    0.9549036969   -1.0423112268
     33  C        -1.4729414096   -2.5675117304   -0.6244775881
     34  C        -5.7365834438    0.0032207865   -0.7270834285
     35  C        -6.8433693343    0.6295514543    0.2072545269
     36  C        -6.1516572775    1.9768194168    0.6349763395
     37  C        -4.7819630235    1.8799729169   -0.1480254119
     38  O        -5.1439851072    1.1826310902   -1.4017656429
     39  H        -4.9240235680   -1.0689920200    1.0685727549
     40  H        -3.8751281448    0.9696669835    1.6985243057
     41  H        -0.5145739648   -2.0182641879   -0.7724709121
     42  H        -6.0909385347   -0.7321515413   -1.4757542464
     43  H        -7.7682746256    0.8136121782   -0.3623170274
     44  H        -7.0809315223   -0.0190865589    1.0657942430
     45  H        -6.7267273659    2.8523737950    0.2943835503
     46  H        -6.0023268243    2.0530561888    1.7238773424
     47  H        -4.2950940116    2.8492578503   -0.3702159450
     48  H        -1.9200536943   -2.8445528083   -1.5992657105
     49  H        -1.2963317391   -3.4799918069   -0.0216511460
     50  H         1.1304495244    2.9030493363   -1.6324920892
     51  H         2.7022064737    3.7832679244   -1.4844457690
     52  H         1.8393967139    3.2473908677    0.0003074489
     53  H         0.6822859936   -0.0319794217    2.6189050553
     54  H         0.0684855461   -1.0491625436    1.2564607012
     55  H         0.3366962346    2.0543398661    1.2716950064
     56  H        -0.0598440571    1.0776601639   -0.2150583750

Z-matrix Print:
$molecule
0 1
O 
C  1 1.429848
O  2 1.252119 1 124.993929
C  1 1.484325 2 111.308976 3 3.769514 0
H  4 1.108389 1 105.349267 2 158.273072 0
H  4 1.110034 1 111.084482 2 40.218902 0
C  2 1.564581 1 108.623507 3 -176.504382 0
H  7 1.103903 2 107.515544 1 -178.917562 0
C  4 1.570342 1 112.140737 2 -81.820996 0
H  9 1.108943 4 110.450003 1 -65.805678 0
H  9 1.112093 4 110.576401 1 56.551345 0
O  9 1.481924 4 108.717592 1 175.091617 0
C  12 1.438447 9 109.805102 4 -117.614472 0
O  13 1.250865 12 123.997228 9 -4.531761 0
C  13 1.564411 12 108.092640 9 177.710314 0
H  15 1.103791 13 108.150543 12 4.723495 0
C  7 1.584433 2 114.643931 1 -54.029372 0
H  17 1.106069 7 109.944896 2 -127.267310 0
C  17 1.569119 7 114.921970 2 -5.990066 0
O  19 1.248559 17 127.539758 7 130.523546 0
O  19 1.434366 17 107.832944 7 -52.128475 0
C  21 1.480633 19 110.442512 17 -173.115508 0
H  22 1.105640 21 106.380711 19 -165.713862 0
H  22 1.107704 21 111.713453 19 -45.662536 0
H  22 1.109574 21 110.907689 19 75.453776 0
C  17 1.585995 7 101.416089 2 115.162397 0
H  26 1.107450 17 113.811206 7 -152.384564 0
O  26 1.481904 17 103.797630 7 -32.225944 0
C  28 1.478604 26 95.030138 17 55.688700 0
H  29 1.107352 28 110.612577 26 179.366431 0
C  26 1.577553 17 108.039894 7 76.900300 0
H  31 1.101538 26 110.368807 17 169.507387 0
H  31 1.101648 26 112.399838 17 47.896661 0
C  31 1.574733 26 100.894020 17 -72.592052 0
H  34 1.101512 31 111.594530 26 -119.870668 0
H  34 1.101826 31 112.751227 26 117.475210 0
C  15 1.587847 13 113.282159 12 -119.223917 0
H  37 1.105787 15 110.522381 13 122.119070 0
C  37 1.569802 15 113.980324 13 -0.032648 0
O  39 1.249945 37 126.959862 15 -128.350137 0
O  39 1.430193 37 108.247416 15 52.703571 0
C  41 1.484889 39 110.699427 37 -178.196421 0
H  42 1.107643 41 109.263778 39 1.750843 0
H  42 1.107795 41 108.529049 39 -117.846232 0
H  42 1.114470 41 108.650016 39 122.627980 0
C  37 1.583252 15 101.248392 13 -119.186202 0
H  46 1.107632 37 113.735865 15 154.808974 0
O  46 1.482355 37 103.219151 15 35.182744 0
C  48 1.479598 46 94.998735 37 -56.947576 0
H  49 1.107214 48 110.495898 46 -179.877202 0
C  46 1.578053 37 108.654130 15 -74.273045 0
H  51 1.101699 46 110.427305 37 -167.967502 0
H  51 1.101934 46 112.264205 37 -46.525447 0
C  51 1.573703 46 101.095017 37 73.896129 0
H  54 1.101501 51 111.529776 46 117.957451 0
H  54 1.101734 51 112.795571 46 -119.321989 0
$end

 
 --------------------------------------------------------------
 
                    Orbital Energies (a.u.)
 --------------------------------------------------------------
 
 Alpha MOs
 -- Occupied --
-18.942 -18.936 -18.930 -18.925 -18.891 -18.886 -18.885 -18.880
-18.873 -18.872 -10.110 -10.103 -10.097 -10.095 -10.073 -10.066
-10.065 -10.063 -10.060 -10.059 -10.055 -10.043 -10.041 -10.037
-10.035 -10.035 -10.023 -10.022 -10.019 -10.018  -1.021  -1.012
 -1.010  -1.002  -0.973  -0.968  -0.945  -0.940  -0.934  -0.929
 -0.768  -0.761  -0.730  -0.722  -0.712  -0.706  -0.695  -0.665
 -0.649  -0.617  -0.599  -0.583  -0.549  -0.543  -0.540  -0.535
 -0.516  -0.507  -0.487  -0.475  -0.468  -0.458  -0.449  -0.447
 -0.437  -0.433  -0.428  -0.416  -0.411  -0.409  -0.403  -0.399
 -0.394  -0.379  -0.377  -0.366  -0.363  -0.357  -0.355  -0.351
 -0.350  -0.336  -0.335  -0.330  -0.328  -0.326  -0.324  -0.313
 -0.308  -0.308  -0.303  -0.302  -0.295  -0.291  -0.284  -0.278
 -0.269  -0.256  -0.255  -0.244  -0.241  -0.237  -0.232  -0.190
 -0.181  -0.171  -0.165  -0.161  -0.158  -0.155  -0.150  -0.146
 -0.142
 -- Virtual --
  0.086   0.096   0.103   0.113   0.209   0.232   0.239   0.258
  0.265   0.277   0.285   0.286   0.302   0.317   0.327   0.330
  0.338   0.340   0.345   0.349   0.350   0.357   0.362   0.372
  0.374   0.381   0.386   0.388   0.396   0.404   0.407   0.412
  0.413   0.419   0.421   0.423   0.424   0.427   0.432   0.433
  0.434   0.436   0.443   0.445   0.446   0.463   0.465   0.468
  0.472   0.485   0.489   0.493   0.495   0.504   0.508   0.536
  0.543   0.550   0.553   0.640   0.644   0.649   0.654
 --------------------------------------------------------------
 
          Ground-State Mulliken Net Atomic Charges

     Atom                 Charge (a.u.)
  ----------------------------------------
      1 O                    -0.210565
      2 C                     0.214089
      3 C                    -0.077968
      4 C                    -0.078583
      5 C                     0.213837
      6 O                    -0.173342
      7 C                    -0.059681
      8 C                    -0.049990
      9 O                    -0.165805
     10 C                     0.218979
     11 C                    -0.077756
     12 C                    -0.078167
     13 C                     0.213899
     14 O                    -0.210346
     15 O                    -0.178302
     16 O                    -0.173155
     17 O                    -0.213205
     18 C                    -0.130034
     19 C                     0.026267
     20 C                    -0.144163
     21 C                    -0.143547
     22 C                     0.024486
     23 O                    -0.185550
     24 H                     0.087599
     25 H                     0.085562
     26 H                     0.082120
     27 H                     0.078693
     28 H                     0.074419
     29 H                     0.078826
     30 H                     0.073727
     31 H                     0.091293
     32 O                    -0.212901
     33 C                    -0.153814
     34 C                     0.024354
     35 C                    -0.144081
     36 C                    -0.143908
     37 C                     0.025737
     38 O                    -0.186178
     39 H                     0.084431
     40 H                     0.086303
     41 H                     0.110059
     42 H                     0.091261
     43 H                     0.078179
     44 H                     0.072879
     45 H                     0.077877
     46 H                     0.073238
     47 H                     0.082607
     48 H                     0.097682
     49 H                     0.074604
     50 H                     0.095193
     51 H                     0.086220
     52 H                     0.091471
     53 H                     0.092962
     54 H                     0.095197
     55 H                     0.081346
     56 H                     0.105646
  ----------------------------------------
  Sum of atomic charges =     0.000000

 -----------------------------------------------------------------
                    Cartesian Multipole Moments
 -----------------------------------------------------------------
    Charge (ESU x 10^10)
                 0.0000
    Dipole Moment (Debye)
         X       1.1682      Y      -0.1028      Z       1.5023
       Tot       1.9059
    Quadrupole Moments (Debye-Ang)
        XX    -143.7540     XY      -7.8683     YY    -153.8172
        XZ     -20.3912     YZ      -2.8844     ZZ    -169.3491
    Octopole Moments (Debye-Ang^2)
       XXX      14.3750    XXY     -22.9141    XYY       7.4625
       YYY      -7.2377    XXZ       9.2216    XYZ      -6.0325
       YYZ      -2.8586    XZZ      14.5167    YZZ      -1.1013
       ZZZ       7.6810
    Hexadecapole Moments (Debye-Ang^3)
      XXXX  -15285.9440   XXXY     450.4001   XXYY   -3120.4209
      XYYY     567.1617   YYYY   -2405.7187   XXXZ    -624.8432
      XXYZ     -31.6212   XYYZ    -146.9771   YYYZ     -87.3585
      XXZZ   -2984.9046   XYZZ     221.5723   YYZZ    -577.3543
      XZZZ    -347.7261   YZZZ     -24.5202   ZZZZ    -906.3986
 -----------------------------------------------------------------
Archival summary:
1\1\vega02.cac.cornell.edu\OPT\ProcedureUnspecified\STO-3G\102026\jj585\MonJan1523:21:492018MonJan1523:21:492018\0\\#,OPT,ProcedureUnspecified,STO-3G,\\0,1\O\C,1,1.42985\O,2,1.25212,1,124.994\C,1,1.48433,2,111.309,3,3.76951,0\H,4,1.10839,1,105.349,2,158.273,0\H,4,1.11003,1,111.084,2,40.2189,0\C,2,1.56458,1,108.624,3,-176.504,0\H,7,1.1039,2,107.516,1,-178.918,0\C,4,1.57034,1,112.141,2,-81.821,0\H,9,1.10894,4,110.45,1,-65.8057,0\H,9,1.11209,4,110.576,1,56.5513,0\O,9,1.48192,4,108.718,1,175.092,0\C,12,1.43845,9,109.805,4,-117.614,0\O,13,1.25087,12,123.997,9,-4.53176,0\C,13,1.56441,12,108.093,9,177.71,0\H,15,1.10379,13,108.151,12,4.7235,0\C,7,1.58443,2,114.644,1,-54.0294,0\H,17,1.10607,7,109.945,2,-127.267,0\C,17,1.56912,7,114.922,2,-5.99007,0\O,19,1.24856,17,127.54,7,130.524,0\O,19,1.43437,17,107.833,7,-52.1285,0\C,21,1.48063,19,110.443,17,-173.116,0\H,22,1.10564,21,106.381,19,-165.714,0\H,22,1.1077,21,111.713,19,-45.6625,0\H,22,1.10957,21,110.908,19,75.4538,0\C,17,1.58599,7,101.416,2,115.162,0\H,26,1.10745,17,113.811,7,-152.385,0\O,26,1.4819,17,103.798,7,-32.2259,0\C,28,1.4786,26,95.0301,17,55.6887,0\H,29,1.10735,28,110.613,26,179.366,0\C,26,1.57755,17,108.04,7,76.9003,0\H,31,1.10154,26,110.369,17,169.507,0\H,31,1.10165,26,112.4,17,47.8967,0\C,31,1.57473,26,100.894,17,-72.5921,0\H,34,1.10151,31,111.595,26,-119.871,0\H,34,1.10183,31,112.751,26,117.475,0\C,15,1.58785,13,113.282,12,-119.224,0\H,37,1.10579,15,110.522,13,122.119,0\C,37,1.5698,15,113.98,13,-0.0326482,0\O,39,1.24995,37,126.96,15,-128.35,0\O,39,1.43019,37,108.247,15,52.7036,0\C,41,1.48489,39,110.699,37,-178.196,0\H,42,1.10764,41,109.264,39,1.75084,0\H,42,1.1078,41,108.529,39,-117.846,0\H,42,1.11447,41,108.65,39,122.628,0\C,37,1.58325,15,101.248,13,-119.186,0\H,46,1.10763,37,113.736,15,154.809,0\O,46,1.48236,37,103.219,15,35.1827,0\C,48,1.4796,46,94.9987,37,-56.9476,0\H,49,1.10721,48,110.496,46,-179.877,0\C,46,1.57805,37,108.654,15,-74.273,0\H,51,1.1017,46,110.427,37,-167.968,0\H,51,1.10193,46,112.264,37,-46.5254,0\C,51,1.5737,46,101.095,37,73.8961,0\H,54,1.1015,51,111.53,46,117.957,0\H,54,1.10173,51,112.796,46,-119.322,0\\\@

 Total job time:  88.80s(wall), 4229.71s(cpu) 
 Mon Jan 15 23:21:49 2018

        *************************************************************
        *                                                           *
        *  Thank you very much for using Q-Chem.  Have a nice day.  *
        *                                                           *
        *************************************************************


0 sent ACK to 0 
now end server 0 ... 
