mFile = /opt/software/qchem/qchem-5.0.1//bin/mpi/machines
Process 0 of 1 is on vega02.cac.cornell.edu - thread support 0
initial socket setup ...start
initial socket setup ...done 
now start server 0 ... 
vega02.cac.cornell.edu 10.84.3
Q-Chem Developer Version! Running on 10.84.3.*
                  Welcome to Q-Chem
     A Quantum Leap Into The Future Of Chemistry


 Q-Chem 5.0, Q-Chem, Inc., Pleasanton, CA (2017)

 Yihan Shao,  Zhengting Gan,  E. Epifanovsky,  A. T. B. Gilbert,  M. Wormit,  
 J. Kussmann,  A. W. Lange,  A. Behn,  Jia Deng,  Xintian Feng,  D. Ghosh,  
 M. Goldey,  P. R. Horn,  L. D. Jacobson,  I. Kaliman,  T. Kus,  A. Landau,  
 Jie Liu,  E. I. Proynov,  R. M. Richard,  R. P. Steele,  E. J. Sundstrom,  
 H. L. Woodcock III,  P. M. Zimmerman,  D. Zuev,  B. Albrecht,  E. Alguire,  
 S. A. Baeppler,  Z. Benda,  Y. A. Bernard,  E. J. Berquist,  K. B. Bravaya,  
 D. Casanova,  Chun-Min Chang,  Yunqing Chen,  A. Chien,  K. D. Closser,  
 M. P. Coons,  S. Dasgupta,  M. Diedenhofen,  Hainam Do,  R. G. Edgar,  
 Po-Tung Fang,  S. Fatehi,  Qingguo Feng,  Qinghui Ge,  A. Ghysels,  
 J. Gomes,  J. Gonthier,  A. Gunina,  M. W. D. Hanson-Heine,  
 P. H. P. Harbach,  A. W. Hauser,  J. E. Herr,  E. G. Hohenstein,  
 Z. C. Holden,  Kerwin Hui,  T.-C. Jagau,  Hyunjun Ji,  B. Kaduk,  
 K. Khistyaev,  Jaehoon Kim,  P. Klunzinger,  K. Koh,  D. Kosenkov,  
 T. Kowalczyk,  C. M. Krauter,  A. Kunitsa,  Ka Un Lao,  A. Laurent,  
 K. V. Lawler,  Joonho Lee,  D. Lefrancois,  S. Lehtola,  D. S. Levine,  
 Yi-Pei Li,  You-Sheng Lin,  Fenglai Liu,  E. Livshits,  A. Luenser,  
 P. Manohar,  E. Mansoor,  S. F. Manzer,  Shan-Ping Mao,  Yuezhi Mao,  
 N. Mardirossian,  A. V. Marenich,  L. A. Martinez-Martinez,  S. A. Maurer,  
 N. J. Mayhall,  S. C. McKenzie,  J.-M. Mewes,  A. F. Morrison,  K. Nanda,  
 T. S. Nguyen-Beck,  R. Olivares-Amaya,  J. A. Parkhill,  T. M. Perrine,  
 F. Plasser,  S. Prager,  A. Prociuk,  D. R. Rehn,  F. Rob,  M. Schneider,  
 N. Sergueev,  S. M. Sharada,  S. Sharma,  D. W. Small,  T. Stauch,  
 T. Stein,  Yu-Chuan Su,  A. J. W. Thom,  T. Tsuchimochi,  L. Vogt,  
 O. Vydrov,  M. A. Watson,  J. Wenzel,  M. de Wergifosse,  T. A. Wesolowski,  
 A. White,  J. Witte,  A. Yamada,  Jun Yang,  K. Yao,  S. Yeganeh,  
 S. R. Yost,  Zhi-Qiang You,  A. Zech,  Igor Ying Zhang,  Xing Zhang,  
 Yan Zhao,  Ying Zhu,  B. R. Brooks,  G. K. L. Chan,  C. J. Cramer,  
 M. S. Gordon,  W. J. Hehre,  A. Klamt,  M. W. Schmidt,  C. D. Sherrill,  
 D. G. Truhlar,  A. Aspuru-Guzik,  R. Baer,  A. T. Bell,  N. A. Besley,  
 Jeng-Da Chai,  A. Dreuw,  B. D. Dunietz,  T. R. Furlani,  Chao-Ping Hsu,  
 Yousung Jung,  Jing Kong,  D. S. Lambrecht,  WanZhen Liang,  C. Ochsenfeld,  
 V. A. Rassolov,  L. V. Slipchenko,  J. E. Subotnik,  T. Van Voorhis,  
 J. M. Herbert,  A. I. Krylov,  P. M. W. Gill,  M. Head-Gordon

 Contributors to earlier versions of Q-Chem not listed above: 
 R. D. Adamson,  B. Austin,  J. Baker,  G. J. O. Beran,  K. Brandhorst,  
 S. T. Brown,  E. F. C. Byrd,  A. K. Chakraborty,  C.-L. Cheng,  
 Siu Hung Chien,  D. M. Chipman,  D. L. Crittenden,  H. Dachsel,  
 R. A. DiStasio Jr.,  R. J. Doerksen,  A. D. Dutoi,  L. Fusti-Molnar,  
 W. A. Goddard III,  A. Golubeva-Zadorozhnaya,  S. R. Gwaltney,  G. Hawkins,  
 A. Heyden,  S. Hirata,  G. Kedziora,  F. J. Keil,  C. Kelley,  Jihan Kim,  
 R. A. King,  R. Z. Khaliullin,  P. P. Korambath,  W. Kurlancheek,  
 A. M. Lee,  M. S. Lee,  S. V. Levchenko,  Ching Yeh Lin,  D. Liotard,  
 R. C. Lochan,  I. Lotan,  P. E. Maslen,  N. Nair,  D. P. O'Neill,  
 D. Neuhauser,  E. Neuscamman,  C. M. Oana,  R. Olson,  B. Peters,  
 R. Peverati,  P. A. Pieniazek,  Y. M. Rhee,  J. Ritchie,  M. A. Rohrdanz,  
 E. Rosta,  N. J. Russ,  H. F. Schaefer III,  N. E. Schultz,  N. Shenvi,  
 A. C. Simmonett,  A. Sodt,  D. Stuck,  K. S. Thanthiriwatte,  V. Vanovschi,  
 Tao Wang,  A. Warshel,  C. F. Williams,  Q. Wu,  X. Xu,  W. Zhang

 Please cite Q-Chem as follows:
 Y. Shao et al., Mol. Phys. 113, 184-215 (2015)
 DOI: 10.1080/00268976.2014.952696

 Q-Chem 5.0.1 for Intel X86 EM64T Linux

 Parts of Q-Chem use Armadillo 5.200.1 (Boston Tea Smuggler).
 http://arma.sourceforge.net/

 Q-Chem begins on Tue Jan 16 00:30:58 2018  

Host: vega02.cac.cornell.edu
0

     Scratch files written to /scratch/jj585/SOT1001/0975r.save//
 Parallel job on  1  processors

Checking the input file for inconsistencies... 	...done.

--------------------------------------------------------------
User input:
--------------------------------------------------------------
$molecule
0  1
O -1.5709793154 -0.7888790522 1.9160014952
C -2.4772780456 -1.0270372393 1.0867329699
C -3.895092696 -0.3507901636 1.0733403374
C -3.9815264112 1.0422910473 0.3173470225
C -2.9089319655 1.3201822687 -0.8053055301
O -1.6945855277 0.6210287167 -0.5415622508
C -0.5549129048 1.1923038048 -1.292480092
C 0.6985809 1.1319257411 -0.346576853
O 1.096638039 -0.2710171378 -0.0735724067
C 1.96945755 -0.7413416005 -1.1482404366
C 3.5098886393 -0.8399478012 -0.8429461236
C 4.4325398188 0.4231649203 -0.5571071244
C 3.7920212868 1.7753438023 -0.0896453252
O 3.9141537872 2.8838948581 -0.6601075361
O -2.3736472331 -1.973423809 0.0225869378
O 3.1659316076 1.5995783428 1.1836795865
O 1.4864779174 -1.1469225801 -2.2291689932
C 2.7435617755 2.9120188218 1.7271577647
C 3.8499412684 -1.7669421149 0.421267308
C 5.1879499283 -2.5298224801 0.0787803985
C 6.2168639748 -1.3397675362 0.1359997296
C 5.2996307915 -0.1568437973 0.6485917828
O 4.2724278052 -0.8252816964 1.4770859882
H 3.9090543615 -1.327351729 -1.7514334573
H 5.0454526729 0.6509898918 -1.4473805035
H 3.01075043 -2.3966095964 0.7754185552
H 5.4046870431 -3.2849698466 0.8514523557
H 5.1551360353 -3.025416125 -0.9045026522
H 7.028253017 -1.5370506361 0.8539674624
H 6.6628001747 -1.116694544 -0.8465757839
H 5.8260096693 0.6194773405 1.236822818
O -3.0528643737 2.1199939157 -1.756555669
C -0.9797605658 -2.4751295869 -0.0481730963
C -5.0749260184 -1.153819916 0.368033645
C -6.4135118477 -0.7403206515 1.0927758931
C -6.5535182107 0.7521773315 0.6100556688
C -5.368757743 0.8578224708 -0.4304806868
O -5.2226842488 -0.5195146904 -0.9628037998
H -4.1493768827 -0.1765624545 2.134871411
H -3.9704601598 1.8939903606 1.0228055324
H -0.7622403927 -3.1708116965 0.7883942023
H -4.8965066776 -2.2410655932 0.2626901732
H -7.2507950252 -1.3584050594 0.7306711999
H -6.3503017008 -0.8337048694 2.1886405658
H -7.5214017816 0.9331383111 0.1165905798
H -6.4386948625 1.4736989901 1.4350848536
H -5.5195883662 1.5799354725 -1.2566298814
H -0.248757225 -1.6312352694 -0.0222732372
H -0.9025602159 -3.0218492792 -1.005837331
H 2.2063062985 2.6902621335 2.6673989984
H 2.0710854961 3.4535826214 1.0316800819
H 3.6179743203 3.559432899 1.9430677674
H 1.5165960289 1.7263869695 -0.8022252315
H 0.434956816 1.5662982408 0.6388036927
H -0.7813501941 2.2363703138 -1.6002199954
H -0.3618078765 0.5874571898 -2.2068754188
$end

$rem
JOBTYPE                   OPT
METHOD                    B3LYP
DFT_D                     d3_op
BASIS                     STO-3G
GEOM_OPT_MAX_CYCLES       100
GEOM_OPT_TOL_GRADIENT     300
GEOM_OPT_TOL_DISPLACEMENT 1200
GEOM_OPT_TOL_ENERGY       100
SYMMETRY                  False
THRESH                    12
SCF_CONVERGENCE           8
MAX_SUB_FILE_NUM          128
MEM_STATIC                400
MEM_TOTAL                 4000
$end
--------------------------------------------------------------
 Adding empirical dispersion correction 
 ----------------------------------------------------------------
 Doing -D3(op) with
 s6 =   1.00000
 s8 =   0.78311
 a1 =   0.30000
 a2 =   4.25000
 n  =  10.00000
 -D3 energy without 3body term =     -0.0717311777 hartrees
 ----------------------------------------------------------------
             Standard Nuclear Orientation (Angstroms)
    I     Atom           X                Y                Z
 ----------------------------------------------------------------
    1      O       1.5609288588     0.9501997371     1.8247845635
    2      C       2.4632963025     1.1396086355     0.9788293263
    3      C       3.8900965875     0.4832392876     1.0121171425
    4      C       3.9947422173    -0.9597990663     0.3591534827
    5      C       2.9251363355    -1.3328664800    -0.7384781004
    6      O       1.7016682019    -0.6327384449    -0.5240954095
    7      C       0.5692337826    -1.2722809265    -1.2295486100
    8      C      -0.6842362442    -1.1601493479    -0.2883448235
    9      O      -1.1009796067     0.2534583844    -0.1172665254
   10      C      -1.9808886233     0.6327257558    -1.2217332550
   11      C      -3.5222759290     0.7325955901    -0.9217217033
   12      C      -4.4275793785    -0.5186659674    -0.5432866906
   13      C      -3.7685150065    -1.8246045595     0.0200345318
   14      O      -3.8761140271    -2.9732069728    -0.4681906950
   15      O       2.3460897143     2.0047110605    -0.1510618509
   16      O      -3.1438796729    -1.5484221117     1.2761364661
   17      O      -1.5042534721     0.9651433941    -2.3301055965
   18      C      -2.7034221252    -2.8121321968     1.9127672742
   19      C      -3.8738388381     1.7443431005     0.2724141118
   20      C      -5.2222818710     2.4623243366    -0.1222442727
   21      C      -6.2349993297     1.2658876939     0.0230541969
   22      C      -5.3014949959     0.1357292089     0.6186105377
   23      O      -4.2827716915     0.8762974326     1.3945740571
   24      H      -3.9286776940     1.1473169674    -1.8625133289
   25      H      -5.0380433879    -0.8187607387    -1.4135911749
   26      H      -3.0429504140     2.4092663725     0.5784320449
   27      H      -5.4485978429     3.2686372388     0.5939156677
   28      H      -5.1969112443     2.8855690010    -1.1389820243
   29      H      -7.0484268681     1.5039164117     0.7262102491
   30      H      -6.6786367129     0.9660642290    -0.9399447938
   31      H      -5.8168997268    -0.6027912235     1.2625907525
   32      O       3.0791202677    -2.1976709475    -1.6293732778
   33      C       0.9455061032     2.4812231374    -0.2556443541
   34      C       5.0584460494     1.2486481126     0.2482913457
   35      C       6.4030441837     0.9068715168     0.9988175651
   36      C       6.5628082886    -0.6147408945     0.6255322499
   37      C       5.3787851673    -0.8115705758    -0.4025151679
   38      O       5.2137315313     0.5213724427    -1.0332157504
   39      H       4.1475211431     0.3900150237     2.0830540207
   40      H       3.9957099388    -1.7580685484     1.1246277075
   41      H       0.7192584870     3.2328647115     0.5285625246
   42      H       4.8652908925     2.3228784554     0.0645683833
   43      H       7.2316331748     1.5081824869     0.5913170565
   44      H       6.3394184858     1.0787668856     2.0851136888
   45      H       7.5326676506    -0.8180847065     0.1448271542
   46      H       6.4583632754    -1.2758923837     1.5009869937
   47      H       5.5387139627    -1.5897077887    -1.1742954567
   48      H       0.2259770141     1.6317187811    -0.1672444414
   49      H       0.8602022421     2.9558408186    -1.2503525577
   50      H      -2.1684884482    -2.5154730396     2.8334802369
   51      H      -2.0242316633    -3.3937288245     1.2572899049
   52      H      -3.5688532157    -3.4538112396     2.1766544639
   53      H      -1.4945036623    -1.7970524212    -0.6981856884
   54      H      -0.4140204947    -1.5182146397     0.7255213617
   55      H       0.8095036446    -2.3328166206    -1.4610372803
   56      H       0.3672845753    -0.7381051697    -2.1851220356
 ----------------------------------------------------------------
 Molecular Point Group                 C1    NOp =  1
 Largest Abelian Subgroup              C1    NOp =  1
 Nuclear Repulsion Energy =  3192.0626425245 hartrees
 There are      113 alpha and      113 beta electrons
 Requested basis set is STO-3G
 There are 86 shells and 176 basis functions

 Total QAlloc Memory Limit   4000 MB
 Mega-Array Size       392 MB
 MEM_STATIC part       400 MB
 A cutoff of  1.0D-12 yielded   2221 shell pairs
 There are     10504 function pairs
 
 -------------------------------------------------------
 OpenMP Integral Computing Module                       
 Release: version 1.0, May 2013, Q-Chem Inc. Pittsburgh 
 -------------------------------------------------------
 Integral Job Info:
 Integral job number is                      11
 Integral operator is                         1
 short-range coefficients                     0
 long-range coefficients              100000000
 Omega coefficients                           0
 if combine SR and LR in K                    0
 Integral screening is                        0
 Integral computing path is                   2
 max size of driver memory is            800000
 size of driver memory is                 45569
 size of scratch memory is              1046100
 max col of scratch BK array                289
 max len of scratch array in speh3           22
 max len of scratch index in speh4            8
 max int batch size is                      520
 min int batch size is                       52
 fixed nKL is                                52
 max L of basis functions is                  1
 order of int derivative is                   0
 number of shells is                         86
 number of basis is                         176
 number of cartesian basis is               176
 number of contracted shell pairs          2221
 number of primitive shell pairs          11447
 maxK2 (contraction) of shell pair            9
 max number of K2 of shell pair               1
 max number of CS2 of shell pair            349
 max number of PS2 of shell pair           1266
 mem total for path MDJ                   50314
 -------------------------------------------------------
 Smallest overlap matrix eigenvalue = 2.14E-01

 Scale SEOQF with 1.000000e-02/1.000000e-01/1.000000e-01

 Standard Electronic Orientation quadrupole field applied
 Nucleus-field energy     =     0.0000000230 hartrees
 Guess from superposition of atomic densities
 Warning:  Energy on first SCF cycle will be non-variational
 A restricted hybrid HF-DFT SCF calculation will be
 performed using Pulay DIIS extrapolation
 Exchange:     0.2000 Hartree-Fock + 0.0800 Slater + 0.7200 B88
 Correlation:  0.1900 VWN1RPA + 0.8100 LYP
 Using SG-1 standard quadrature grid
 Dispersion:   Grimme D3
 SCF converges when DIIS error is below 1.0E-08
 using 48 threads for integral computing
 -------------------------------------------------------
 OpenMP Integral computing Module                
 Release: version 1.0, May 2013, Q-Chem Inc. Pittsburgh 
 -------------------------------------------------------
 -------------------------------------------------------
 OpenMP BLAS3 based DFT computing Module                
 Release: version 1.0, May 2013, Q-Chem Inc. Pittsburgh 
 -------------------------------------------------------
 ---------------------------------------
  Cycle       Energy         DIIS Error
 ---------------------------------------
    1   -1507.5963312024      7.45E-02
    2   -1509.6874871321      1.06E-02
    3   -1507.3451720870      2.70E-02
    4   -1510.1597950114      4.53E-03
    5   -1510.2414756742      1.56E-03
    6   -1510.2501738183      7.06E-04
    7   -1510.2522992841      1.44E-04
    8   -1510.2523865825      3.99E-05
    9   -1510.2523923147      1.70E-05
   10   -1510.2523934712      6.31E-06
   11   -1510.2523936379      1.59E-06
   12   -1510.2523936490      3.39E-07
   13   -1510.2523936493      2.30E-07
   14   -1510.2523936494      6.52E-08
   15   -1510.2523936494      1.50E-08
   16   -1510.2523936495      5.78E-09 Convergence criterion met
 ---------------------------------------
 SCF time:  CPU 119.66 s  wall 2.55 s
 SCF   energy in the final basis set = -1510.25239365
 Total energy in the final basis set = -1510.25239365
 
 --------------------------------------------------------------
 
                    Orbital Energies (a.u.)
 --------------------------------------------------------------
 
 Alpha MOs
 -- Occupied --
-18.944 -18.936 -18.920 -18.913 -18.912 -18.898 -18.882 -18.879
-18.873 -18.847 -10.119 -10.108 -10.100 -10.082 -10.082 -10.072
-10.070 -10.069 -10.068 -10.053 -10.051 -10.050 -10.046 -10.036
-10.031 -10.027 -10.026 -10.026 -10.016 -10.014  -1.021  -1.018
 -1.013  -0.988  -0.979  -0.963  -0.948  -0.943  -0.935  -0.913
 -0.770  -0.756  -0.730  -0.723  -0.714  -0.705  -0.697  -0.668
 -0.639  -0.615  -0.605  -0.583  -0.552  -0.545  -0.539  -0.531
 -0.527  -0.506  -0.489  -0.484  -0.467  -0.455  -0.447  -0.440
 -0.435  -0.432  -0.426  -0.420  -0.418  -0.406  -0.404  -0.395
 -0.392  -0.380  -0.373  -0.370  -0.361  -0.357  -0.356  -0.352
 -0.347  -0.340  -0.333  -0.328  -0.326  -0.324  -0.322  -0.316
 -0.314  -0.313  -0.307  -0.302  -0.294  -0.290  -0.283  -0.281
 -0.271  -0.260  -0.254  -0.241  -0.233  -0.230  -0.226  -0.186
 -0.181  -0.175  -0.164  -0.160  -0.155  -0.151  -0.149  -0.139
 -0.129
 -- Virtual --
  0.057   0.086   0.100   0.122   0.216   0.235   0.238   0.250
  0.256   0.273   0.283   0.291   0.291   0.312   0.320   0.323
  0.328   0.332   0.336   0.344   0.349   0.357   0.358   0.362
  0.373   0.379   0.387   0.393   0.395   0.405   0.408   0.410
  0.417   0.418   0.419   0.421   0.425   0.428   0.435   0.440
  0.445   0.447   0.448   0.449   0.457   0.459   0.461   0.465
  0.470   0.476   0.481   0.492   0.495   0.501   0.517   0.530
  0.541   0.548   0.561   0.595   0.634   0.634   0.660
 --------------------------------------------------------------
 
          Ground-State Mulliken Net Atomic Charges

     Atom                 Charge (a.u.)
  ----------------------------------------
      1 O                    -0.224083
      2 C                     0.215121
      3 C                    -0.082460
      4 C                    -0.075586
      5 C                     0.214504
      6 O                    -0.170602
      7 C                    -0.051420
      8 C                    -0.043731
      9 O                    -0.182163
     10 C                     0.216204
     11 C                    -0.084032
     12 C                    -0.079004
     13 C                     0.200230
     14 O                    -0.214657
     15 O                    -0.172517
     16 O                    -0.158547
     17 O                    -0.178321
     18 C                    -0.128913
     19 C                     0.027451
     20 C                    -0.142029
     21 C                    -0.145410
     22 C                     0.027910
     23 O                    -0.179339
     24 H                     0.086107
     25 H                     0.087595
     26 H                     0.088448
     27 H                     0.080028
     28 H                     0.075495
     29 H                     0.079991
     30 H                     0.074828
     31 H                     0.084013
     32 O                    -0.215664
     33 C                    -0.142337
     34 C                     0.024124
     35 C                    -0.142380
     36 C                    -0.145735
     37 C                     0.023386
     38 O                    -0.190805
     39 H                     0.079970
     40 H                     0.084467
     41 H                     0.074502
     42 H                     0.088701
     43 H                     0.076747
     44 H                     0.072494
     45 H                     0.077437
     46 H                     0.072193
     47 H                     0.087920
     48 H                     0.106949
     49 H                     0.080490
     50 H                     0.095767
     51 H                     0.087356
     52 H                     0.088404
     53 H                     0.083396
     54 H                     0.099343
     55 H                     0.094514
     56 H                     0.093652
  ----------------------------------------
  Sum of atomic charges =    -0.000000

 -----------------------------------------------------------------
                    Cartesian Multipole Moments
 -----------------------------------------------------------------
    Charge (ESU x 10^10)
                -0.0000
    Dipole Moment (Debye)
         X      -2.4560      Y      -0.5545      Z       1.3206
       Tot       2.8431
    Quadrupole Moments (Debye-Ang)
        XX    -141.4762     XY      -5.4876     YY    -157.5784
        XZ      11.9327     YZ      -6.2830     ZZ    -167.5140
    Octopole Moments (Debye-Ang^2)
       XXX     -44.3498    XXY      18.9285    XYY      -0.6623
       YYY      19.5333    XXZ      39.4635    XYZ      14.4345
       YYZ      23.3923    XZZ      -8.5681    YZZ     -14.1743
       ZZZ       2.6493
    Hexadecapole Moments (Debye-Ang^3)
      XXXX  -14198.0088   XXXY     -95.1735   XXYY   -2940.1989
      XYYY       9.2855   YYYY   -2392.5223   XXXZ     152.4375
      XXYZ     -62.1968   XYYZ     -51.4305   YYYZ     -48.5494
      XXZZ   -2741.9289   XYZZ      52.4415   YYZZ    -577.7930
      XZZZ     -41.8554   YZZZ      -9.8000   ZZZZ   -1166.4589
 -----------------------------------------------------------------
 Calculating analytic gradient of the SCF energy
 Gradient of SCF Energy
            1           2           3           4           5           6
    1  -0.0008032   0.0004294   0.0019347  -0.0049819   0.0029626  -0.0000076
    2  -0.0018939   0.0019352   0.0015622  -0.0066523   0.0059658   0.0022111
    3  -0.0011896   0.0023167  -0.0048970   0.0080871  -0.0037113  -0.0050639
            7           8           9          10          11          12
    1  -0.0008737  -0.0085140   0.0108869  -0.0020435  -0.0004883  -0.0008725
    2  -0.0018195  -0.0047722   0.0009495   0.0101659  -0.0072982  -0.0020646
    3   0.0044770   0.0041907  -0.0066020   0.0039332   0.0016187  -0.0031854
           13          14          15          16          17          18
    1   0.0032849  -0.0023699   0.0000579  -0.0000745   0.0000582   0.0000141
    2   0.0007725  -0.0003977   0.0000893  -0.0000089   0.0000102   0.0001029
    3  -0.0012716   0.0014880   0.0000614  -0.0000593  -0.0000128  -0.0001889
           19          20          21          22          23          24
    1  -0.0000374   0.0000124  -0.0000222   0.0000917  -0.0000949  -0.0002248
    2   0.0003201   0.0001247  -0.0000043   0.0005097  -0.0001925  -0.0000717
    3   0.0001264  -0.0002205   0.0000304  -0.0000829   0.0000549   0.0001181
           25          26          27          28          29          30
    1  -0.0000634   0.0000644   0.0000433   0.0000184   0.0000433   0.0001290
    2   0.0001091  -0.0000061  -0.0000967  -0.0000416  -0.0000599  -0.0000132
    3  -0.0001345   0.0000944   0.0000477   0.0000371  -0.0000096   0.0000539
           31          32          33          34          35          36
    1   0.0000250   0.0001060   0.0001744   0.0001715   0.0000825   0.0002494
    2   0.0000146   0.0000349   0.0000261  -0.0001588   0.0001480  -0.0001256
    3  -0.0000450  -0.0000407   0.0000661   0.0000342  -0.0000693   0.0000798
           37          38          39          40          41          42
    1  -0.0002141   0.0001103   0.0001716   0.0000253   0.0000276   0.0001078
    2   0.0002194  -0.0000007  -0.0000645   0.0000538   0.0000539   0.0000468
    3  -0.0000202  -0.0000888   0.0000011  -0.0001492  -0.0000008   0.0000468
           43          44          45          46          47          48
    1  -0.0000151   0.0000178   0.0000173  -0.0000881   0.0000631   0.0000322
    2   0.0000313   0.0000313   0.0000196   0.0001020   0.0000199  -0.0000764
    3  -0.0000072   0.0000237   0.0000110   0.0000396  -0.0000546  -0.0000434
           49          50          51          52          53          54
    1   0.0000337   0.0000293   0.0000081   0.0000119   0.0000767   0.0000644
    2   0.0000189  -0.0000173   0.0000327  -0.0000200   0.0000608   0.0000930
    3  -0.0000285   0.0000440   0.0000574   0.0000687   0.0000031  -0.0000109
           55          56
    1   0.0000500   0.0001022
    2   0.0000058   0.0000156
    3   0.0000304  -0.0000539
 Max gradient component =       1.089E-02
 RMS gradient           =       2.161E-03
 Gradient time:  CPU 31.13 s  wall 0.67 s
 Geometry Optimization Parameters
   NAtoms,    NIC,     NZ,  NCons,   NDum,   NFix, NCnnct, MaxDiis
       56     458       0       0       0       0       0       0


** GEOMETRY OPTIMIZATION IN DELOCALIZED INTERNAL COORDINATES **
   Searching for a Minimum

   Optimization Cycle:   1

                       Coordinates (Angstroms)
     ATOM                X               Y               Z
      1  O         1.5609288588    0.9501997371    1.8247845635
      2  C         2.4632963025    1.1396086355    0.9788293263
      3  C         3.8900965875    0.4832392876    1.0121171425
      4  C         3.9947422173   -0.9597990663    0.3591534827
      5  C         2.9251363355   -1.3328664800   -0.7384781004
      6  O         1.7016682019   -0.6327384449   -0.5240954095
      7  C         0.5692337826   -1.2722809265   -1.2295486100
      8  C        -0.6842362442   -1.1601493479   -0.2883448235
      9  O        -1.1009796067    0.2534583844   -0.1172665254
     10  C        -1.9808886233    0.6327257558   -1.2217332550
     11  C        -3.5222759290    0.7325955901   -0.9217217033
     12  C        -4.4275793785   -0.5186659674   -0.5432866906
     13  C        -3.7685150065   -1.8246045595    0.0200345318
     14  O        -3.8761140271   -2.9732069728   -0.4681906950
     15  O         2.3460897143    2.0047110605   -0.1510618509
     16  O        -3.1438796729   -1.5484221117    1.2761364661
     17  O        -1.5042534721    0.9651433941   -2.3301055965
     18  C        -2.7034221252   -2.8121321968    1.9127672742
     19  C        -3.8738388381    1.7443431005    0.2724141118
     20  C        -5.2222818710    2.4623243366   -0.1222442727
     21  C        -6.2349993297    1.2658876939    0.0230541969
     22  C        -5.3014949959    0.1357292089    0.6186105377
     23  O        -4.2827716915    0.8762974326    1.3945740571
     24  H        -3.9286776940    1.1473169674   -1.8625133289
     25  H        -5.0380433879   -0.8187607387   -1.4135911749
     26  H        -3.0429504140    2.4092663725    0.5784320449
     27  H        -5.4485978429    3.2686372388    0.5939156677
     28  H        -5.1969112443    2.8855690010   -1.1389820243
     29  H        -7.0484268681    1.5039164117    0.7262102491
     30  H        -6.6786367129    0.9660642290   -0.9399447938
     31  H        -5.8168997268   -0.6027912235    1.2625907525
     32  O         3.0791202677   -2.1976709475   -1.6293732778
     33  C         0.9455061032    2.4812231374   -0.2556443541
     34  C         5.0584460494    1.2486481126    0.2482913457
     35  C         6.4030441837    0.9068715168    0.9988175651
     36  C         6.5628082886   -0.6147408945    0.6255322499
     37  C         5.3787851673   -0.8115705758   -0.4025151679
     38  O         5.2137315313    0.5213724427   -1.0332157504
     39  H         4.1475211431    0.3900150237    2.0830540207
     40  H         3.9957099388   -1.7580685484    1.1246277075
     41  H         0.7192584870    3.2328647115    0.5285625246
     42  H         4.8652908925    2.3228784554    0.0645683833
     43  H         7.2316331748    1.5081824869    0.5913170565
     44  H         6.3394184858    1.0787668856    2.0851136888
     45  H         7.5326676506   -0.8180847065    0.1448271542
     46  H         6.4583632754   -1.2758923837    1.5009869937
     47  H         5.5387139627   -1.5897077887   -1.1742954567
     48  H         0.2259770141    1.6317187811   -0.1672444414
     49  H         0.8602022421    2.9558408186   -1.2503525577
     50  H        -2.1684884482   -2.5154730396    2.8334802369
     51  H        -2.0242316633   -3.3937288245    1.2572899049
     52  H        -3.5688532157   -3.4538112396    2.1766544639
     53  H        -1.4945036623   -1.7970524212   -0.6981856884
     54  H        -0.4140204947   -1.5182146397    0.7255213617
     55  H         0.8095036446   -2.3328166206   -1.4610372803
     56  H         0.3672845753   -0.7381051697   -2.1851220356
   Point Group: c1    Number of degrees of freedom:   162


   Energy is  -1510.252393649


 Attempting to Generate Delocalized Internal Coordinates

162 Hessian modes will be used to form the next step
  Hessian Eigenvalues:
     0.002000    0.002000    0.002000    0.002000    0.002000    0.002785
     0.002815    0.003630    0.004466    0.004580    0.004651    0.004727
     0.004801    0.004824    0.005122    0.006813    0.006815    0.007422
     0.011708    0.011960    0.012228    0.021304    0.021449    0.024544
     0.025533    0.030206    0.030384    0.034465    0.035035    0.036088
     0.038100    0.041683    0.041725    0.042838    0.043803    0.046224
     0.047717    0.048005    0.050955    0.051276    0.051803    0.053982
     0.054481    0.055572    0.055952    0.056412    0.056844    0.056928
     0.058059    0.058742    0.059177    0.060532    0.060849    0.062949
     0.063126    0.064463    0.064476    0.069809    0.070416    0.073225
     0.073476    0.091665    0.092191    0.092795    0.094314    0.096442
     0.097056    0.097304    0.097483    0.102687    0.103079    0.108096
     0.111494    0.111646    0.113212    0.121342    0.123885    0.134426
     0.137328    0.157149    0.160000    0.160000    0.160000    0.160000
     0.160000    0.160000    0.160464    0.165131    0.165246    0.218068
     0.219705    0.219995    0.220854    0.226252    0.227123    0.238279
     0.238325    0.238643    0.239594    0.239723    0.245151    0.248805
     0.249384    0.249424    0.249982    0.250000    0.250000    0.250000
     0.250000    0.250000    0.250000    0.250000    0.250000    0.252803
     0.253425    0.254507    0.257471    0.259008    0.259489    0.262124
     0.291011    0.295220    0.305807    0.309887    0.318927    0.322620
     0.324124    0.326462    0.326832    0.326933    0.327386    0.327411
     0.328583    0.328860    0.329044    0.329398    0.330297    0.330755
     0.330883    0.330937    0.330941    0.331779    0.334596    0.334698
     0.334725    0.334783    0.335002    0.335052    0.335292    0.335443
     0.341546    0.342152    0.343439    0.346204    0.366944    0.410226
     0.412978    0.415932    0.822513    0.826968    0.827538    0.828257

 Minimum Search - Taking Simple RFO Step
 Searching for Lamda that Minimizes Along All modes
 Value Taken    Lamda =  -0.01947573
 Calculated Step too Large.  Step scaled by  0.349525
 Step Taken.  Stepsize is  0.300000

                             Maximum     Tolerance    Cnvgd?
         Gradient           0.009917      0.000300      NO
         Displacement       0.127491      0.001200      NO
         Energy change     *********      0.000001      NO


 New Cartesian Coordinates Obtained by Inverse Iteration

 Displacement from previous Coordinates is:  4.058157
 Adding empirical dispersion correction 
 ----------------------------------------------------------------
 Doing -D3(op) with
 s6 =   1.00000
 s8 =   0.78311
 a1 =   0.30000
 a2 =   4.25000
 n  =  10.00000
 -D3 energy without 3body term =     -0.0717612271 hartrees
 ----------------------------------------------------------------
             Standard Nuclear Orientation (Angstroms)
    I     Atom           X                Y                Z
 ----------------------------------------------------------------
    1      O       1.5621712217     0.6787470982     1.9750332145
    2      C       2.3938309123     0.9657074269     1.0852321358
    3      C       3.8810733886     0.4623128606     1.0380467608
    4      C       4.1064659412    -0.9433300137     0.3360673838
    5      C       3.0305224739    -1.4008924520    -0.7225088396
    6      O       1.7701268034    -0.7798156178    -0.4798715594
    7      C       0.6840720722    -1.4134679503    -1.2597894267
    8      C      -0.6031890290    -1.4008343243    -0.3583565243
    9      O      -1.0823614329    -0.0160905716    -0.1253447545
   10      C      -1.9261482607     0.3962329955    -1.2460172208
   11      C      -3.4448676413     0.6765150262    -0.9435924638
   12      C      -4.4817962715    -0.4549781676    -0.5285491111
   13      C      -3.9687878586    -1.8134004707     0.0618786092
   14      O      -4.1869038438    -2.9521463119    -0.4123782791
   15      O       2.1322538220     1.8340237722    -0.0176686620
   16      O      -3.3146567032    -1.5828358022     1.3121744098
   17      O      -1.4145850749     0.6929993141    -2.3489155668
   18      C      -3.0051311780    -2.8750685304     1.9684587586
   19      C      -3.6729841471     1.7492637242     0.2272069512
   20      C      -4.9354887221     2.6042712525    -0.1788865204
   21      C      -6.0750308444     1.5330002272     0.0006163609
   22      C      -5.2698121082     0.3199521118     0.6200785238
   23      O      -4.1688175670     0.9602682575     1.3725829614
   24      H      -3.8079128787     1.1123736179    -1.8925511356
   25      H      -5.1263811272    -0.7058606198    -1.3897069516
   26      H      -2.7708033704     2.3240824577     0.5130651900
   27      H      -5.0648630349     3.4480456766     0.5179695056
   28      H      -4.8702779326     2.9973886560    -1.2059192200
   29      H      -6.8515874610     1.8779108777     0.7011917850
   30      H      -6.5565106156     1.2617763062    -0.9526935836
   31      H      -5.8599874918    -0.3405683823     1.2843282438
   32      O       3.2341555503    -2.2107201315    -1.6541712522
   33      C       0.6875525319     2.1691920571    -0.0402833609
   34      C       4.9259676088     1.3652888729     0.2457469560
   35      C       6.3325262034     1.1491124689     0.9263040257
   36      C       6.6335917529    -0.3370818603     0.5010246991
   37      C       5.4305829224    -0.6324533066    -0.4799996438
   38      O       5.0971927349     0.6908451667    -1.0625308022
   39      H       4.1966626083     0.3717933892     2.0935183943
   40      H       4.2241862786    -1.7547691256     1.0784011960
   41      H       0.4294431330     2.8806880692     0.7710448323
   42      H       4.6129203149     2.4171776307     0.1024148650
   43      H       7.0737524771     1.8448639493     0.5012222565
   44      H       6.3018331762     1.2859330502     2.0189815680
   45      H       7.5960518838    -0.4242987026    -0.0272830572
   46      H       6.6398741512    -1.0275152921     1.3599409950
   47      H       5.6346831221    -1.3699793445    -1.2806729793
   48      H       0.0615988404     1.2504442233     0.0657229305
   49      H       0.5029407562     2.6498186046    -1.0184759586
   50      H      -2.4393480843    -2.6207591871     2.8833530130
   51      H      -2.3920170518    -3.5342015805     1.3212350732
   52      H      -3.9314922919    -3.4194019373     2.2439473844
   53      H      -1.3734633053    -2.0415233980    -0.8342269259
   54      H      -0.3558604443    -1.8078385744     0.6428204078
   55      H       0.9710792791    -2.4481036002    -1.5482481111
   56      H       0.4913597035    -0.8280335112    -2.1867932834
 ----------------------------------------------------------------
 Molecular Point Group                 C1    NOp =  1
 Largest Abelian Subgroup              C1    NOp =  1
 Nuclear Repulsion Energy =  3193.6355097982 hartrees
 There are      113 alpha and      113 beta electrons
 Applying Cartesian multipole field
    Component          Value
    ---------          -----
     (2,0,0)        1.00000E-12
     (0,2,0)        2.00000E-11
     (0,0,2)       -3.00000E-11
 Nucleus-field energy     =     0.0000000221 hartrees
 Requested basis set is STO-3G
 There are 86 shells and 176 basis functions
 A cutoff of  1.0D-12 yielded   2223 shell pairs
 There are     10485 function pairs
 Smallest overlap matrix eigenvalue = 2.13E-01
 Guess MOs from SCF MO coefficient file
 Reading MOs from coefficient file
 Reading MOs from coefficient file
 A restricted hybrid HF-DFT SCF calculation will be
 performed using Pulay DIIS extrapolation
 Exchange:     0.2000 Hartree-Fock + 0.0800 Slater + 0.7200 B88
 Correlation:  0.1900 VWN1RPA + 0.8100 LYP
 Using SG-1 standard quadrature grid
 Dispersion:   Grimme D3
 SCF converges when DIIS error is below 1.0E-08
 Geometry optimization detected.  Setting ReadMinima to 0
 Setting SaveMinima to 0
 using 48 threads for integral computing
 -------------------------------------------------------
 OpenMP Integral computing Module                
 Release: version 1.0, May 2013, Q-Chem Inc. Pittsburgh 
 -------------------------------------------------------
 -------------------------------------------------------
 OpenMP BLAS3 based DFT computing Module                
 Release: version 1.0, May 2013, Q-Chem Inc. Pittsburgh 
 -------------------------------------------------------
 ---------------------------------------
  Cycle       Energy         DIIS Error
 ---------------------------------------
    1   -1510.1186307111      5.50E-03
    2   -1510.2528648472      5.80E-04
    3   -1510.2516407450      8.76E-04
    4   -1510.2546244641      3.06E-04
    5   -1510.2550206758      7.27E-05
    6   -1510.2550420720      2.90E-05
    7   -1510.2550458563      9.36E-06
    8   -1510.2550461876      4.35E-06
    9   -1510.2550462788      8.70E-07
   10   -1510.2550462822      5.38E-07
   11   -1510.2550462833      2.64E-07
   12   -1510.2550462837      5.63E-08
   13   -1510.2550462838      2.67E-08
   14   -1510.2550462838      1.45E-08
   15   -1510.2550462840      2.50E-09 Convergence criterion met
 ---------------------------------------
 SCF time:  CPU 106.76 s  wall 2.23 s
 SCF   energy in the final basis set = -1510.25504628
 Total energy in the final basis set = -1510.25504628
 
 --------------------------------------------------------------
 
                    Orbital Energies (a.u.)
 --------------------------------------------------------------
 
 Alpha MOs
 -- Occupied --
-18.943 -18.938 -18.933 -18.916 -18.907 -18.899 -18.881 -18.878
-18.873 -18.844 -10.122 -10.106 -10.100 -10.087 -10.080 -10.074
-10.069 -10.069 -10.068 -10.052 -10.050 -10.050 -10.048 -10.035
-10.028 -10.026 -10.025 -10.020 -10.015 -10.013  -1.025  -1.018
 -1.014  -0.985  -0.979  -0.962  -0.954  -0.942  -0.936  -0.910
 -0.771  -0.755  -0.730  -0.725  -0.714  -0.706  -0.696  -0.667
 -0.635  -0.616  -0.606  -0.582  -0.553  -0.545  -0.539  -0.531
 -0.527  -0.506  -0.491  -0.484  -0.468  -0.454  -0.449  -0.440
 -0.435  -0.431  -0.425  -0.420  -0.417  -0.409  -0.405  -0.395
 -0.391  -0.382  -0.374  -0.369  -0.361  -0.358  -0.355  -0.353
 -0.350  -0.340  -0.333  -0.328  -0.325  -0.323  -0.321  -0.315
 -0.314  -0.313  -0.307  -0.302  -0.295  -0.290  -0.285  -0.281
 -0.270  -0.264  -0.255  -0.242  -0.231  -0.228  -0.224  -0.185
 -0.182  -0.179  -0.168  -0.159  -0.154  -0.151  -0.145  -0.139
 -0.127
 -- Virtual --
  0.055   0.088   0.102   0.124   0.211   0.235   0.237   0.250
  0.256   0.272   0.285   0.291   0.292   0.313   0.319   0.321
  0.328   0.331   0.336   0.344   0.350   0.357   0.360   0.362
  0.371   0.379   0.387   0.394   0.395   0.403   0.407   0.410
  0.417   0.418   0.419   0.422   0.424   0.429   0.434   0.438
  0.445   0.447   0.448   0.455   0.458   0.459   0.461   0.465
  0.465   0.477   0.481   0.495   0.499   0.517   0.523   0.530
  0.542   0.548   0.562   0.593   0.634   0.634   0.662
 --------------------------------------------------------------
 
          Ground-State Mulliken Net Atomic Charges

     Atom                 Charge (a.u.)
  ----------------------------------------
      1 O                    -0.227138
      2 C                     0.214704
      3 C                    -0.082612
      4 C                    -0.075773
      5 C                     0.214301
      6 O                    -0.169038
      7 C                    -0.051924
      8 C                    -0.043608
      9 O                    -0.175824
     10 C                     0.217239
     11 C                    -0.082673
     12 C                    -0.078985
     13 C                     0.200463
     14 O                    -0.215323
     15 O                    -0.173910
     16 O                    -0.158508
     17 O                    -0.178036
     18 C                    -0.128608
     19 C                     0.027439
     20 C                    -0.141921
     21 C                    -0.145465
     22 C                     0.027877
     23 O                    -0.178900
     24 H                     0.087111
     25 H                     0.087349
     26 H                     0.088717
     27 H                     0.080398
     28 H                     0.075593
     29 H                     0.080074
     30 H                     0.074844
     31 H                     0.084349
     32 O                    -0.216348
     33 C                    -0.153138
     34 C                     0.024182
     35 C                    -0.142402
     36 C                    -0.145617
     37 C                     0.023408
     38 O                    -0.190895
     39 H                     0.079844
     40 H                     0.084103
     41 H                     0.069582
     42 H                     0.088813
     43 H                     0.076612
     44 H                     0.072514
     45 H                     0.077396
     46 H                     0.072329
     47 H                     0.087949
     48 H                     0.114610
     49 H                     0.074656
     50 H                     0.095692
     51 H                     0.087269
     52 H                     0.088112
     53 H                     0.085598
     54 H                     0.100938
     55 H                     0.095737
     56 H                     0.096840
  ----------------------------------------
  Sum of atomic charges =     0.000000

 -----------------------------------------------------------------
                    Cartesian Multipole Moments
 -----------------------------------------------------------------
    Charge (ESU x 10^10)
                -0.0000
    Dipole Moment (Debye)
         X      -2.4326      Y      -0.5571      Z       1.0526
       Tot       2.7084
    Quadrupole Moments (Debye-Ang)
        XX    -141.8168     XY      -6.0913     YY    -157.1463
        XZ      11.1071     YZ      -5.6531     ZZ    -167.8617
    Octopole Moments (Debye-Ang^2)
       XXX     -26.8518    XXY      29.6973    XYY      -1.3413
       YYY      21.4049    XXZ      40.2794    XYZ      16.8720
       YYZ      22.1797    XZZ     -11.5083    YZZ     -10.7894
       ZZZ      -1.1582
    Hexadecapole Moments (Debye-Ang^3)
      XXXX  -14110.3140   XXXY    -169.2446   XXYY   -2949.9304
      XYYY     -44.3973   YYYY   -2403.7263   XXXZ     153.4364
      XXYZ     -83.8734   XYYZ     -35.0582   YYYZ     -70.1313
      XXZZ   -2720.3951   XYZZ      37.6047   YYZZ    -580.0491
      XZZZ      -6.7857   YZZZ     -36.2308   ZZZZ   -1204.6494
 -----------------------------------------------------------------
 Calculating analytic gradient of the SCF energy
 Gradient of SCF Energy
            1           2           3           4           5           6
    1  -0.0002803   0.0002108   0.0017085  -0.0019755   0.0001452   0.0000374
    2  -0.0005067  -0.0007021   0.0018108  -0.0036939   0.0006781   0.0042715
    3  -0.0011555   0.0030757  -0.0037063   0.0048098   0.0006086  -0.0048365
            7           8           9          10          11          12
    1  -0.0010205  -0.0088106   0.0199945  -0.0008353  -0.0016633  -0.0006008
    2  -0.0013325  -0.0031752   0.0110896  -0.0001560  -0.0053405  -0.0011593
    3   0.0032931   0.0033793  -0.0071726   0.0034083   0.0005002  -0.0030412
           13          14          15          16          17          18
    1  -0.0012108  -0.0020084  -0.0011997  -0.0009797   0.0003870  -0.0007687
    2   0.0012387  -0.0009766  -0.0007317  -0.0001232   0.0040008  -0.0002663
    3   0.0003234   0.0009529  -0.0008600   0.0013288   0.0017615   0.0003324
           19          20          21          22          23          24
    1  -0.0003007  -0.0001366   0.0000416   0.0004841  -0.0002765  -0.0004937
    2   0.0000567   0.0003858   0.0001389  -0.0002089  -0.0000991   0.0001505
    3   0.0002164   0.0004906  -0.0000963  -0.0005197   0.0001778   0.0001519
           25          26          27          28          29          30
    1   0.0002523  -0.0000377  -0.0002583   0.0001030   0.0000991  -0.0000531
    2   0.0000351  -0.0000595  -0.0000218  -0.0000252  -0.0000179   0.0000155
    3  -0.0001095   0.0000403   0.0000060   0.0000077  -0.0000695   0.0000092
           31          32          33          34          35          36
    1  -0.0000521   0.0009657  -0.0029603   0.0004338  -0.0001718   0.0002240
    2   0.0000804   0.0015901  -0.0043727  -0.0005567   0.0004735  -0.0001042
    3  -0.0000357  -0.0014077  -0.0020808  -0.0001082  -0.0000569  -0.0003661
           37          38          39          40          41          42
    1   0.0001487  -0.0001765   0.0000359  -0.0007198  -0.0006202   0.0000366
    2   0.0000216  -0.0003399   0.0002109  -0.0001072  -0.0006176   0.0000426
    3   0.0001191   0.0001302   0.0001450   0.0001377   0.0003981   0.0000744
           43          44          45          46          47          48
    1  -0.0000794  -0.0000544   0.0000716   0.0001321  -0.0000118  -0.0008301
    2  -0.0000205   0.0000644  -0.0000258   0.0001410   0.0000302  -0.0018126
    3   0.0000017  -0.0000220   0.0000137   0.0001430   0.0000056   0.0016757
           49          50          51          52          53          54
    1  -0.0003722  -0.0000306  -0.0001908   0.0000322   0.0027070   0.0005511
    2  -0.0001676   0.0000025  -0.0001376   0.0001030   0.0000727   0.0001095
    3  -0.0002552  -0.0000067   0.0002872  -0.0000356  -0.0009793  -0.0006853
           55          56
    1   0.0002086   0.0001697
    2   0.0002174  -0.0001726
    3  -0.0003359  -0.0000630
 Max gradient component =       1.999E-02
 RMS gradient           =       2.378E-03
 Gradient time:  CPU 29.78 s  wall 0.63 s
 Geometry Optimization Parameters
   NAtoms,    NIC,     NZ,  NCons,   NDum,   NFix, NCnnct, MaxDiis
       56     458       0       0       0       0       0       0

 Cartesian Hessian Update
 Hessian Updated using BFGS Update


** GEOMETRY OPTIMIZATION IN DELOCALIZED INTERNAL COORDINATES **
   Searching for a Minimum

   Optimization Cycle:   2

                       Coordinates (Angstroms)
     ATOM                X               Y               Z
      1  O         1.5621712217    0.6787470982    1.9750332145
      2  C         2.3938309123    0.9657074269    1.0852321358
      3  C         3.8810733886    0.4623128606    1.0380467608
      4  C         4.1064659412   -0.9433300137    0.3360673838
      5  C         3.0305224739   -1.4008924520   -0.7225088396
      6  O         1.7701268034   -0.7798156178   -0.4798715594
      7  C         0.6840720722   -1.4134679503   -1.2597894267
      8  C        -0.6031890290   -1.4008343243   -0.3583565243
      9  O        -1.0823614329   -0.0160905716   -0.1253447545
     10  C        -1.9261482607    0.3962329955   -1.2460172208
     11  C        -3.4448676413    0.6765150262   -0.9435924638
     12  C        -4.4817962715   -0.4549781676   -0.5285491111
     13  C        -3.9687878586   -1.8134004707    0.0618786092
     14  O        -4.1869038438   -2.9521463119   -0.4123782791
     15  O         2.1322538220    1.8340237722   -0.0176686620
     16  O        -3.3146567032   -1.5828358022    1.3121744098
     17  O        -1.4145850749    0.6929993141   -2.3489155668
     18  C        -3.0051311780   -2.8750685304    1.9684587586
     19  C        -3.6729841471    1.7492637242    0.2272069512
     20  C        -4.9354887221    2.6042712525   -0.1788865204
     21  C        -6.0750308444    1.5330002272    0.0006163609
     22  C        -5.2698121082    0.3199521118    0.6200785238
     23  O        -4.1688175670    0.9602682575    1.3725829614
     24  H        -3.8079128787    1.1123736179   -1.8925511356
     25  H        -5.1263811272   -0.7058606198   -1.3897069516
     26  H        -2.7708033704    2.3240824577    0.5130651900
     27  H        -5.0648630349    3.4480456766    0.5179695056
     28  H        -4.8702779326    2.9973886560   -1.2059192200
     29  H        -6.8515874610    1.8779108777    0.7011917850
     30  H        -6.5565106156    1.2617763062   -0.9526935836
     31  H        -5.8599874918   -0.3405683823    1.2843282438
     32  O         3.2341555503   -2.2107201315   -1.6541712522
     33  C         0.6875525319    2.1691920571   -0.0402833609
     34  C         4.9259676088    1.3652888729    0.2457469560
     35  C         6.3325262034    1.1491124689    0.9263040257
     36  C         6.6335917529   -0.3370818603    0.5010246991
     37  C         5.4305829224   -0.6324533066   -0.4799996438
     38  O         5.0971927349    0.6908451667   -1.0625308022
     39  H         4.1966626083    0.3717933892    2.0935183943
     40  H         4.2241862786   -1.7547691256    1.0784011960
     41  H         0.4294431330    2.8806880692    0.7710448323
     42  H         4.6129203149    2.4171776307    0.1024148650
     43  H         7.0737524771    1.8448639493    0.5012222565
     44  H         6.3018331762    1.2859330502    2.0189815680
     45  H         7.5960518838   -0.4242987026   -0.0272830572
     46  H         6.6398741512   -1.0275152921    1.3599409950
     47  H         5.6346831221   -1.3699793445   -1.2806729793
     48  H         0.0615988404    1.2504442233    0.0657229305
     49  H         0.5029407562    2.6498186046   -1.0184759586
     50  H        -2.4393480843   -2.6207591871    2.8833530130
     51  H        -2.3920170518   -3.5342015805    1.3212350732
     52  H        -3.9314922919   -3.4194019373    2.2439473844
     53  H        -1.3734633053   -2.0415233980   -0.8342269259
     54  H        -0.3558604443   -1.8078385744    0.6428204078
     55  H         0.9710792791   -2.4481036002   -1.5482481111
     56  H         0.4913597035   -0.8280335112   -2.1867932834
   Point Group: c1    Number of degrees of freedom:   162


   Energy is  -1510.255046284

 Hessian Updated using BFGS Update

149 Hessian modes will be used to form the next step
  Hessian Eigenvalues:
     0.001065    0.002048    0.002690    0.002790    0.003325    0.003860
     0.004578    0.004649    0.004713    0.004801    0.004975    0.005052
     0.006706    0.006815    0.011012    0.011090    0.011721    0.020176
     0.021375    0.022951    0.024876    0.029013    0.030217    0.032312
     0.034528    0.035672    0.036770    0.038487    0.041702    0.042043
     0.042790    0.043879    0.046327    0.047630    0.048988    0.050958
     0.051283    0.052813    0.054017    0.054975    0.055562    0.056405
     0.056728    0.056847    0.057817    0.058224    0.059140    0.060522
     0.060804    0.062945    0.063124    0.064463    0.064472    0.069575
     0.069834    0.072024    0.073268    0.073529    0.091661    0.092195
     0.093075    0.094320    0.096441    0.097264    0.097472    0.100099
     0.102689    0.103084    0.108136    0.111520    0.111895    0.113529
     0.123568    0.132601    0.136680    0.139479    0.159785    0.159997
     0.160018    0.164529    0.164837    0.175751    0.217952    0.219727
     0.220417    0.224375    0.226405    0.228988    0.238320    0.238541
     0.238682    0.239599    0.239721    0.245130    0.248798    0.249199
     0.249416    0.249841    0.249982    0.252801    0.253422    0.254460
     0.257374    0.258971    0.259474    0.262123    0.290984    0.295218
     0.305577    0.309831    0.318877    0.322620    0.324124    0.326462
     0.326832    0.326905    0.327385    0.327408    0.328582    0.328859
     0.329044    0.329398    0.330293    0.330755    0.330883    0.330937
     0.330941    0.331777    0.334596    0.334698    0.334725    0.334781
     0.335002    0.335051    0.335292    0.335443    0.341146    0.342027
     0.343436    0.345447    0.366941    0.410211    0.412797    0.415903
     0.822416    0.826938    0.827499    0.828255    1.466111

 Minimum Search - Taking Simple RFO Step
 Searching for Lamda that Minimizes Along All modes
 Value Taken    Lamda =  -0.02282260
 Calculated Step too Large.  Step scaled by  0.370595
 Step Taken.  Stepsize is  0.300000

                             Maximum     Tolerance    Cnvgd?
         Gradient           0.067008      0.000300      NO
         Displacement       0.106952      0.001200      NO
         Energy change     -0.002653      0.000001      NO


 New Cartesian Coordinates Obtained by Inverse Iteration

 Displacement from previous Coordinates is:  2.286499
 Adding empirical dispersion correction 
 ----------------------------------------------------------------
 Doing -D3(op) with
 s6 =   1.00000
 s8 =   0.78311
 a1 =   0.30000
 a2 =   4.25000
 n  =  10.00000
 -D3 energy without 3body term =     -0.0699924710 hartrees
 ----------------------------------------------------------------
             Standard Nuclear Orientation (Angstroms)
    I     Atom           X                Y                Z
 ----------------------------------------------------------------
    1      O       1.6069186556     0.6794783613     2.0626137113
    2      C       2.4050535402     0.9653883227     1.1422875358
    3      C       3.8983764068     0.4878967692     1.0545588612
    4      C       4.1516500714    -0.9073167409     0.3373054717
    5      C       3.0670338274    -1.4216290913    -0.6870330496
    6      O       1.7812028459    -0.8633806383    -0.4245350017
    7      C       0.7448053733    -1.4860443875    -1.2793690019
    8      C      -0.5735177486    -1.6002606372    -0.4300168218
    9      O      -1.1512898182    -0.2668509645    -0.1328350419
   10      C      -1.9634735054     0.1690739031    -1.2678722794
   11      C      -3.4491710565     0.5857680037    -0.9627322446
   12      C      -4.5669235635    -0.4496094318    -0.5130235749
   13      C      -4.1481491856    -1.8352020963     0.0885559549
   14      O      -4.4379620849    -2.9603956874    -0.3794970324
   15      O       2.1171553303     1.8614545888     0.0681372332
   16      O      -3.4539929264    -1.6401006824     1.3231548397
   17      O      -1.4264685554     0.4346875643    -2.3666233839
   18      C      -3.2119547913    -2.9464965280     1.9798168660
   19      C      -3.5758238440     1.6925334520     0.1917326988
   20      C      -4.7713948172     2.6390529090    -0.2144489167
   21      C      -5.9909908721     1.6659658592    -0.0014742364
   22      C      -5.2771877522     0.4029351116     0.6305874655
   23      O      -4.1184684515     0.9663258031     1.3574075235
   24      H      -3.7839339129     1.0343479624    -1.9161837625
   25      H      -5.2385180005    -0.6639355217    -1.3632282523
   26      H      -2.6267111730     2.1972577736     0.4570084245
   27      H      -4.8233404135     3.5025081334     0.4682966826
   28      H      -4.6888607645     3.0080456848    -1.2492048393
   29      H      -6.7280797263     2.0843040921     0.7018319815
   30      H      -6.5054472466     1.4180736417    -0.9439470112
   31      H      -5.9088718966    -0.1973040125     1.3136838064
   32      O       3.2908875661    -2.2108142076    -1.6316581602
   33      C       0.6817463595     2.2322068605     0.1082871381
   34      C       4.8935994565     1.4249434773     0.2374359302
   35      C       6.3249176995     1.2499898041     0.8768092463
   36      C       6.6605287828    -0.2229111066     0.4338682802
   37      C       5.4405329111    -0.5512594139    -0.5145545972
   38      O       5.0479745653     0.7630584287    -1.0796572125
   39      H       4.2456428766     0.4033454464     2.1004731301
   40      H       4.3214459189    -1.7133891663     1.0755635048
   41      H       0.4732859386     2.9329383673     0.9428833986
   42      H       4.5441703216     2.4672310410     0.1089634730
   43      H       7.0316422170     1.9708788241     0.4351733952
   44      H       6.3209526469     1.3800930152     1.9707086187
   45      H       7.6098354566    -0.2768962092    -0.1219351177
   46      H       6.7130524608    -0.9176013580     1.2877748160
   47      H       5.6458991179    -1.2792932148    -1.3235107197
   48      H       0.0365975432     1.3278425926     0.2193466209
   49      H       0.4726000368     2.7379061336    -0.8520978648
   50      H      -2.6119108122    -2.7244603686     2.8811321099
   51      H      -2.6553451278    -3.6452324473     1.3230247886
   52      H      -4.1645368099    -3.4305757424     2.2774428302
   53      H      -1.2865589561    -2.2485671414    -0.9797157073
   54      H      -0.3444938067    -2.0608689086     0.5522129017
   55      H       1.0918231331    -2.4831070489    -1.6279602124
   56      H       0.5514524511    -0.8479687989    -2.1707910000
 ----------------------------------------------------------------
 Molecular Point Group                 C1    NOp =  1
 Largest Abelian Subgroup              C1    NOp =  1
 Nuclear Repulsion Energy =  3174.4233701250 hartrees
 There are      113 alpha and      113 beta electrons
 Applying Cartesian multipole field
    Component          Value
    ---------          -----
     (2,0,0)        1.00000E-12
     (0,2,0)        2.00000E-11
     (0,0,2)       -3.00000E-11
 Nucleus-field energy     =     0.0000000232 hartrees
 Requested basis set is STO-3G
 There are 86 shells and 176 basis functions
 A cutoff of  1.0D-12 yielded   2209 shell pairs
 There are     10432 function pairs
 Smallest overlap matrix eigenvalue = 2.13E-01
 Guess MOs from SCF MO coefficient file
 Reading MOs from coefficient file
 Reading MOs from coefficient file
 A restricted hybrid HF-DFT SCF calculation will be
 performed using Pulay DIIS extrapolation
 Exchange:     0.2000 Hartree-Fock + 0.0800 Slater + 0.7200 B88
 Correlation:  0.1900 VWN1RPA + 0.8100 LYP
 Using SG-1 standard quadrature grid
 Dispersion:   Grimme D3
 SCF converges when DIIS error is below 1.0E-08
 Geometry optimization detected.  Setting ReadMinima to 0
 Setting SaveMinima to 0
 using 48 threads for integral computing
 -------------------------------------------------------
 OpenMP Integral computing Module                
 Release: version 1.0, May 2013, Q-Chem Inc. Pittsburgh 
 -------------------------------------------------------
 -------------------------------------------------------
 OpenMP BLAS3 based DFT computing Module                
 Release: version 1.0, May 2013, Q-Chem Inc. Pittsburgh 
 -------------------------------------------------------
 ---------------------------------------
  Cycle       Energy         DIIS Error
 ---------------------------------------
    1   -1510.1968897994      3.48E-03
    2   -1510.2580403267      3.28E-04
    3   -1510.2580654564      4.17E-04
    4   -1510.2586879877      1.92E-04
    5   -1510.2588422451      4.64E-05
    6   -1510.2588513326      1.61E-05
    7   -1510.2588524591      6.41E-06
    8   -1510.2588526285      2.77E-06
    9   -1510.2588526636      4.73E-07
   10   -1510.2588526646      3.87E-07
   11   -1510.2588526652      1.23E-07
   12   -1510.2588526653      3.47E-08
   13   -1510.2588526654      1.25E-08
   14   -1510.2588526653      7.18E-09 Convergence criterion met
 ---------------------------------------
 SCF time:  CPU 101.41 s  wall 2.12 s
 SCF   energy in the final basis set = -1510.25885267
 Total energy in the final basis set = -1510.25885267
 
 --------------------------------------------------------------
 
                    Orbital Energies (a.u.)
 --------------------------------------------------------------
 
 Alpha MOs
 -- Occupied --
-18.940 -18.937 -18.924 -18.917 -18.905 -18.896 -18.880 -18.877
-18.872 -18.852 -10.115 -10.102 -10.100 -10.086 -10.082 -10.069
-10.067 -10.066 -10.066 -10.054 -10.052 -10.046 -10.045 -10.040
-10.036 -10.028 -10.026 -10.025 -10.017 -10.015  -1.019  -1.015
 -1.012  -0.992  -0.977  -0.964  -0.946  -0.938  -0.934  -0.918
 -0.768  -0.757  -0.728  -0.723  -0.713  -0.703  -0.698  -0.664
 -0.645  -0.614  -0.603  -0.583  -0.550  -0.543  -0.540  -0.532
 -0.524  -0.507  -0.489  -0.482  -0.466  -0.457  -0.444  -0.439
 -0.434  -0.430  -0.425  -0.418  -0.414  -0.409  -0.403  -0.397
 -0.394  -0.379  -0.373  -0.367  -0.363  -0.359  -0.355  -0.351
 -0.348  -0.338  -0.331  -0.330  -0.328  -0.325  -0.320  -0.316
 -0.313  -0.310  -0.307  -0.303  -0.293  -0.290  -0.283  -0.282
 -0.272  -0.260  -0.251  -0.240  -0.237  -0.233  -0.227  -0.183
 -0.179  -0.174  -0.163  -0.156  -0.155  -0.154  -0.149  -0.141
 -0.132
 -- Virtual --
  0.062   0.092   0.102   0.119   0.216   0.236   0.240   0.251
  0.254   0.275   0.280   0.288   0.297   0.310   0.323   0.323
  0.331   0.334   0.335   0.346   0.347   0.354   0.361   0.364
  0.374   0.378   0.390   0.393   0.397   0.404   0.408   0.410
  0.417   0.420   0.421   0.422   0.426   0.431   0.435   0.440
  0.442   0.443   0.447   0.451   0.452   0.456   0.460   0.462
  0.467   0.475   0.480   0.483   0.494   0.502   0.516   0.532
  0.541   0.550   0.560   0.600   0.633   0.638   0.656
 --------------------------------------------------------------
 
          Ground-State Mulliken Net Atomic Charges

     Atom                 Charge (a.u.)
  ----------------------------------------
      1 O                    -0.221888
      2 C                     0.215529
      3 C                    -0.082254
      4 C                    -0.075436
      5 C                     0.213129
      6 O                    -0.169890
      7 C                    -0.054064
      8 C                    -0.044765
      9 O                    -0.178175
     10 C                     0.211591
     11 C                    -0.082117
     12 C                    -0.078987
     13 C                     0.201588
     14 O                    -0.216204
     15 O                    -0.170919
     16 O                    -0.158000
     17 O                    -0.187254
     18 C                    -0.128316
     19 C                     0.027447
     20 C                    -0.142031
     21 C                    -0.145379
     22 C                     0.027692
     23 O                    -0.179473
     24 H                     0.086400
     25 H                     0.086467
     26 H                     0.087254
     27 H                     0.079711
     28 H                     0.075194
     29 H                     0.079523
     30 H                     0.074627
     31 H                     0.083995
     32 O                    -0.217547
     33 C                    -0.138740
     34 C                     0.024000
     35 C                    -0.142515
     36 C                    -0.145600
     37 C                     0.023418
     38 O                    -0.190676
     39 H                     0.081155
     40 H                     0.084119
     41 H                     0.077559
     42 H                     0.088764
     43 H                     0.076900
     44 H                     0.072601
     45 H                     0.077676
     46 H                     0.072610
     47 H                     0.088842
     48 H                     0.103911
     49 H                     0.082227
     50 H                     0.094870
     51 H                     0.087413
     52 H                     0.087407
     53 H                     0.084405
     54 H                     0.097505
     55 H                     0.096184
     56 H                     0.098513
  ----------------------------------------
  Sum of atomic charges =     0.000000

 -----------------------------------------------------------------
                    Cartesian Multipole Moments
 -----------------------------------------------------------------
    Charge (ESU x 10^10)
                -0.0000
    Dipole Moment (Debye)
         X      -1.7899      Y      -0.0772      Z       1.0698
       Tot       2.0867
    Quadrupole Moments (Debye-Ang)
        XX    -142.6109     XY      -5.9614     YY    -155.8189
        XZ      10.4489     YZ      -5.3595     ZZ    -168.1026
    Octopole Moments (Debye-Ang^2)
       XXX      -7.1163    XXY      36.8700    XYY       1.7653
       YYY      27.4557    XXZ      41.7481    XYZ      18.0690
       YYZ      20.6134    XZZ     -10.4154    YZZ      -8.0830
       ZZZ      -3.5217
    Hexadecapole Moments (Debye-Ang^3)
      XXXX  -14247.1442   XXXY    -278.9630   XXYY   -3004.9886
      XYYY    -132.3918   YYYY   -2484.1079   XXXZ     145.2503
      XXYZ     -97.8571   XYYZ     -31.6871   YYYZ     -89.8951
      XXZZ   -2735.3172   XYZZ       7.8022   YYZZ    -593.4311
      XZZZ       1.1212   YZZZ     -59.4225   ZZZZ   -1227.2963
 -----------------------------------------------------------------
 Calculating analytic gradient of the SCF energy
 Gradient of SCF Energy
            1           2           3           4           5           6
    1   0.0005721  -0.0017983   0.0010849   0.0000377  -0.0001264  -0.0003736
    2   0.0003337  -0.0007596   0.0028220  -0.0006986  -0.0029187   0.0011738
    3   0.0013477  -0.0007112  -0.0006551   0.0021244   0.0020469  -0.0056781
            7           8           9          10          11          12
    1   0.0001959  -0.0084165   0.0188144  -0.0067447  -0.0024728   0.0009212
    2  -0.0002753  -0.0051668   0.0051285  -0.0062139  -0.0040827  -0.0002125
    3   0.0019271   0.0042014  -0.0062610  -0.0031999  -0.0009241  -0.0026196
           13          14          15          16          17          18
    1  -0.0038389  -0.0011603   0.0018095  -0.0003390   0.0010172  -0.0008295
    2   0.0015853  -0.0010017   0.0009501  -0.0001374   0.0064913  -0.0002944
    3   0.0016398   0.0003194   0.0013564   0.0011809   0.0060153   0.0005842
           19          20          21          22          23          24
    1  -0.0001004  -0.0000096  -0.0000500  -0.0004026  -0.0004785  -0.0002494
    2  -0.0001185   0.0001541   0.0001793  -0.0004478  -0.0002547   0.0003562
    3   0.0003638   0.0002872  -0.0000514   0.0004130  -0.0001581   0.0000406
           25          26          27          28          29          30
    1   0.0007003   0.0000640  -0.0002205   0.0001330   0.0000611  -0.0001624
    2  -0.0000290  -0.0002680   0.0001264   0.0000054   0.0000195   0.0001036
    3  -0.0002877  -0.0000080  -0.0000802   0.0000165  -0.0000097  -0.0000437
           31          32          33          34          35          36
    1  -0.0000497  -0.0004269   0.0004742   0.0000936  -0.0001840  -0.0000298
    2   0.0000318   0.0026894   0.0016489  -0.0011381   0.0003858   0.0001486
    3  -0.0000147  -0.0012504  -0.0010890   0.0000445  -0.0000176  -0.0005647
           37          38          39          40          41          42
    1   0.0004888  -0.0003498   0.0003939  -0.0012027   0.0002763  -0.0000339
    2  -0.0001208  -0.0007680   0.0004387  -0.0003917   0.0001600   0.0000656
    3   0.0001134  -0.0001015  -0.0000286  -0.0001116  -0.0002582   0.0000282
           43          44          45          46          47          48
    1  -0.0000133  -0.0000665   0.0000766   0.0001077   0.0002226  -0.0004731
    2  -0.0000969   0.0000204  -0.0000769   0.0001822  -0.0000098  -0.0006504
    3  -0.0000356  -0.0000371   0.0000194   0.0002837   0.0001043   0.0020250
           49          50          51          52          53          54
    1   0.0003670  -0.0000170  -0.0003106   0.0000038   0.0023330   0.0003989
    2   0.0002517   0.0000329  -0.0002569   0.0001479   0.0010929  -0.0000485
    3   0.0002303  -0.0000680   0.0003864  -0.0001420  -0.0009217  -0.0007987
           55          56
    1  -0.0000449   0.0003282
    2   0.0002307  -0.0005193
    3  -0.0004454  -0.0005272
 Max gradient component =       1.881E-02
 RMS gradient           =       2.285E-03
 Gradient time:  CPU 30.29 s  wall 0.64 s
 Geometry Optimization Parameters
   NAtoms,    NIC,     NZ,  NCons,   NDum,   NFix, NCnnct, MaxDiis
       56     458       0       0       0       0       0       0

 Cartesian Hessian Update
 Hessian Updated using BFGS Update


** GEOMETRY OPTIMIZATION IN DELOCALIZED INTERNAL COORDINATES **
   Searching for a Minimum

   Optimization Cycle:   3

                       Coordinates (Angstroms)
     ATOM                X               Y               Z
      1  O         1.6069186556    0.6794783613    2.0626137113
      2  C         2.4050535402    0.9653883227    1.1422875358
      3  C         3.8983764068    0.4878967692    1.0545588612
      4  C         4.1516500714   -0.9073167409    0.3373054717
      5  C         3.0670338274   -1.4216290913   -0.6870330496
      6  O         1.7812028459   -0.8633806383   -0.4245350017
      7  C         0.7448053733   -1.4860443875   -1.2793690019
      8  C        -0.5735177486   -1.6002606372   -0.4300168218
      9  O        -1.1512898182   -0.2668509645   -0.1328350419
     10  C        -1.9634735054    0.1690739031   -1.2678722794
     11  C        -3.4491710565    0.5857680037   -0.9627322446
     12  C        -4.5669235635   -0.4496094318   -0.5130235749
     13  C        -4.1481491856   -1.8352020963    0.0885559549
     14  O        -4.4379620849   -2.9603956874   -0.3794970324
     15  O         2.1171553303    1.8614545888    0.0681372332
     16  O        -3.4539929264   -1.6401006824    1.3231548397
     17  O        -1.4264685554    0.4346875643   -2.3666233839
     18  C        -3.2119547913   -2.9464965280    1.9798168660
     19  C        -3.5758238440    1.6925334520    0.1917326988
     20  C        -4.7713948172    2.6390529090   -0.2144489167
     21  C        -5.9909908721    1.6659658592   -0.0014742364
     22  C        -5.2771877522    0.4029351116    0.6305874655
     23  O        -4.1184684515    0.9663258031    1.3574075235
     24  H        -3.7839339129    1.0343479624   -1.9161837625
     25  H        -5.2385180005   -0.6639355217   -1.3632282523
     26  H        -2.6267111730    2.1972577736    0.4570084245
     27  H        -4.8233404135    3.5025081334    0.4682966826
     28  H        -4.6888607645    3.0080456848   -1.2492048393
     29  H        -6.7280797263    2.0843040921    0.7018319815
     30  H        -6.5054472466    1.4180736417   -0.9439470112
     31  H        -5.9088718966   -0.1973040125    1.3136838064
     32  O         3.2908875661   -2.2108142076   -1.6316581602
     33  C         0.6817463595    2.2322068605    0.1082871381
     34  C         4.8935994565    1.4249434773    0.2374359302
     35  C         6.3249176995    1.2499898041    0.8768092463
     36  C         6.6605287828   -0.2229111066    0.4338682802
     37  C         5.4405329111   -0.5512594139   -0.5145545972
     38  O         5.0479745653    0.7630584287   -1.0796572125
     39  H         4.2456428766    0.4033454464    2.1004731301
     40  H         4.3214459189   -1.7133891663    1.0755635048
     41  H         0.4732859386    2.9329383673    0.9428833986
     42  H         4.5441703216    2.4672310410    0.1089634730
     43  H         7.0316422170    1.9708788241    0.4351733952
     44  H         6.3209526469    1.3800930152    1.9707086187
     45  H         7.6098354566   -0.2768962092   -0.1219351177
     46  H         6.7130524608   -0.9176013580    1.2877748160
     47  H         5.6458991179   -1.2792932148   -1.3235107197
     48  H         0.0365975432    1.3278425926    0.2193466209
     49  H         0.4726000368    2.7379061336   -0.8520978648
     50  H        -2.6119108122   -2.7244603686    2.8811321099
     51  H        -2.6553451278   -3.6452324473    1.3230247886
     52  H        -4.1645368099   -3.4305757424    2.2774428302
     53  H        -1.2865589561   -2.2485671414   -0.9797157073
     54  H        -0.3444938067   -2.0608689086    0.5522129017
     55  H         1.0918231331   -2.4831070489   -1.6279602124
     56  H         0.5514524511   -0.8479687989   -2.1707910000
   Point Group: c1    Number of degrees of freedom:   162


   Energy is  -1510.258852665

 Hessian Updated using BFGS Update

152 Hessian modes will be used to form the next step
  Hessian Eigenvalues:
     0.001953    0.002028    0.002415    0.002547    0.002816    0.003242
     0.004410    0.004597    0.004658    0.004801    0.004868    0.004985
     0.006485    0.006660    0.007127    0.011054    0.011408    0.013407
     0.019202    0.021660    0.022786    0.026201    0.029188    0.030263
     0.032587    0.034671    0.035504    0.037602    0.038681    0.041794
     0.042095    0.042716    0.043651    0.046935    0.047769    0.049033
     0.050958    0.051352    0.052795    0.054561    0.055006    0.055573
     0.056467    0.056731    0.056894    0.057801    0.058233    0.059540
     0.060569    0.060887    0.062954    0.063128    0.064464    0.064472
     0.069601    0.069834    0.072080    0.073269    0.073573    0.091808
     0.092199    0.093086    0.094311    0.096440    0.097431    0.097780
     0.100421    0.102689    0.103122    0.108151    0.111466    0.111970
     0.114545    0.123795    0.132784    0.136753    0.139416    0.159886
     0.159993    0.160002    0.160280    0.164565    0.167971    0.175177
     0.218559    0.219463    0.220556    0.223531    0.226349    0.229042
     0.238308    0.238544    0.238576    0.239634    0.239705    0.245070
     0.248295    0.248829    0.249418    0.249792    0.249983    0.252788
     0.253407    0.254386    0.256055    0.258959    0.259469    0.261589
     0.262181    0.291041    0.295230    0.305549    0.309885    0.318909
     0.322619    0.324124    0.326462    0.326832    0.326905    0.327383
     0.327409    0.328583    0.328862    0.329044    0.329398    0.330299
     0.330757    0.330883    0.330938    0.330941    0.331784    0.334596
     0.334699    0.334725    0.334785    0.335002    0.335052    0.335292
     0.335443    0.341177    0.342095    0.343448    0.345456    0.366789
     0.410234    0.412909    0.415898    0.822512    0.826487    0.827503
     0.828224    2.309992

 Minimum Search - Taking Simple RFO Step
 Searching for Lamda that Minimizes Along All modes
 Value Taken    Lamda =  -0.01875428
 Calculated Step too Large.  Step scaled by  0.409273
 Step Taken.  Stepsize is  0.300000

                             Maximum     Tolerance    Cnvgd?
         Gradient           0.029542      0.000300      NO
         Displacement       0.091795      0.001200      NO
         Energy change     -0.003806      0.000001      NO


 New Cartesian Coordinates Obtained by Inverse Iteration

 Displacement from previous Coordinates is:  1.975522
 Adding empirical dispersion correction 
 ----------------------------------------------------------------
 Doing -D3(op) with
 s6 =   1.00000
 s8 =   0.78311
 a1 =   0.30000
 a2 =   4.25000
 n  =  10.00000
 -D3 energy without 3body term =     -0.0714651438 hartrees
 ----------------------------------------------------------------
             Standard Nuclear Orientation (Angstroms)
    I     Atom           X                Y                Z
 ----------------------------------------------------------------
    1      O       1.5124881086     0.6040310172     2.0733019175
    2      C       2.3228888681     0.9107605228     1.1706781733
    3      C       3.8223298841     0.4530242565     1.0951471384
    4      C       4.1090319049    -0.9270555315     0.3622129706
    5      C       3.0238488730    -1.4660045877    -0.6466512654
    6      O       1.7304408865    -0.9304106570    -0.3711316730
    7      C       0.7173542886    -1.5224987698    -1.2759764987
    8      C      -0.6285986590    -1.6760401416    -0.4765351962
    9      O      -1.2443069338    -0.3668505079    -0.1504693744
   10      C      -2.0026854445     0.1080485585    -1.3047579990
   11      C      -3.4570673676     0.6006754759    -0.9935519163
   12      C      -4.5626258270    -0.4058330752    -0.4732719712
   13      C      -4.0879609324    -1.7805568940     0.1121278272
   14      O      -4.3721502200    -2.9133800914    -0.3399078806
   15      O       2.0390844705     1.8011422495     0.0896703183
   16      O      -3.2823033075    -1.5634440460     1.2725680637
   17      O      -1.4638916954     0.2770761133    -2.4223987048
   18      C      -2.9132916374    -2.8627259550     1.8820432696
   19      C      -3.5194932411     1.7358187689     0.1377732867
   20      C      -4.7222369031     2.6858498751    -0.2376301618
   21      C      -5.9416783079     1.7308496354     0.0549161923
   22      C      -5.2126041911     0.4745712693     0.6842256766
   23      O      -4.0179089291     1.0444498638     1.3436264199
   24      H      -3.8096405255     1.0311253151    -1.9488557579
   25      H      -5.2743298398    -0.6354550055    -1.2860515216
   26      H      -2.5530649462     2.2319658899     0.3516764165
   27      H      -4.7339047478     3.5658012885     0.4256713079
   28      H      -4.6832019964     3.0292272587    -1.2837443276
   29      H      -6.6421769455     2.1737263915     0.7803881687
   30      H      -6.5006159376     1.4664314530    -0.8572893011
   31      H      -5.8162865917    -0.1045683494     1.4096274514
   32      O       3.2520828950    -2.2549020857    -1.5906551574
   33      C       0.5958695342     2.1408749852     0.0840937865
   34      C       4.7972750992     1.4202841490     0.2873413204
   35      C       6.2338642344     1.2673314002     0.9208932088
   36      C       6.5993212532    -0.1914524662     0.4570729540
   37      C       5.3841675969    -0.5337196423    -0.4921342459
   38      O       4.9617969861     0.7789812303    -1.0391093626
   39      H       4.1682872336     0.3648153721     2.1410865142
   40      H       4.3028312436    -1.7343648434     1.0933054026
   41      H       0.3411934125     2.8235403770     0.9208859870
   42      H       4.4251115815     2.4561808608     0.1722009579
   43      H       6.9240501395     2.0087094420     0.4870030419
   44      H       6.2304664223     1.3828248438     2.0164299048
   45      H       7.5477855375    -0.2179520011    -0.1020541296
   46      H       6.6689007312    -0.8968536693     1.3008687234
   47      H       5.6028466720    -1.2484796644    -1.3093849678
   48      H      -0.0334297202     1.2225018227     0.1523685990
   49      H       0.4115889760     2.6573570397    -0.8756398962
   50      H      -2.2369102405    -2.6208084600     2.7220933869
   51      H      -2.3920930046    -3.5248387436     1.1610607500
   52      H      -3.8064276808    -3.3971572105     2.2656363321
   53      H      -1.3185725799    -2.3088445371    -1.0741895516
   54      H      -0.4338485353    -2.1734617616     0.4955826897
   55      H       1.0818886203    -2.5039097301    -1.6503296049
   56      H       0.5439173270    -0.8523479239    -2.1476834954
 ----------------------------------------------------------------
 Molecular Point Group                 C1    NOp =  1
 Largest Abelian Subgroup              C1    NOp =  1
 Nuclear Repulsion Energy =  3197.3700783961 hartrees
 There are      113 alpha and      113 beta electrons
 Applying Cartesian multipole field
    Component          Value
    ---------          -----
     (2,0,0)        1.00000E-12
     (0,2,0)        2.00000E-11
     (0,0,2)       -3.00000E-11
 Nucleus-field energy     =     0.0000000227 hartrees
 Requested basis set is STO-3G
 There are 86 shells and 176 basis functions
 A cutoff of  1.0D-12 yielded   2235 shell pairs
 There are     10563 function pairs
 Smallest overlap matrix eigenvalue = 2.13E-01
 Guess MOs from SCF MO coefficient file
 Reading MOs from coefficient file
 Reading MOs from coefficient file
 A restricted hybrid HF-DFT SCF calculation will be
[...]
      7  C         0.6234306446   -1.6309466875   -1.8751666938
      8  C        -0.5947923646   -2.1099392361   -0.9981553377
      9  O        -1.5691819654   -1.0255304892   -0.7305699517
     10  C        -2.5249125401   -0.9301296874   -1.8017671603
     11  C        -3.6664915571    0.0621127126   -1.4105958607
     12  C        -4.1992942872   -0.0718758492    0.0830853594
     13  C        -3.4449419080   -1.1730522298    0.9219710765
     14  O        -3.5912249373   -2.4107792421    0.7962773977
     15  O         1.4342035058    0.7730487287    0.6754079387
     16  O        -2.6014362319   -0.5476353001    1.8873149020
     17  O        -2.4234836475   -1.5779206101   -2.8653663166
     18  C        -1.8084519288   -1.5609027655    2.6278461207
     19  C        -3.1946098883    1.5853733055   -1.4206827146
     20  C        -4.4854550588    2.4921983239   -1.5038357850
     21  C        -5.0484103242    2.3506563627   -0.0413222478
     22  C        -3.9676518188    1.4027153897    0.6144747136
     23  O        -2.7050892523    1.8096258142   -0.0453813515
     24  H        -4.4807480150   -0.0973815742   -2.1393094434
     25  H        -5.2719142157   -0.3381192054    0.0761321971
     26  H        -2.4036351041    1.8189249026   -2.1598347067
     27  H        -4.2056266946    3.5334617351   -1.7303169798
     28  H        -5.1940423681    2.1414194755   -2.2711072859
     29  H        -5.0740414311    3.3222585381    0.4770302467
     30  H        -6.0574636027    1.9094017397   -0.0150468149
     31  H        -3.8692962068    1.4786580034    1.7136708812
     32  O         2.4324144534    0.3563479405   -2.2269191382
     33  C        -0.0214747349    1.0256395600    0.8174432292
     34  C         4.1664197248    0.7572321084    1.7583962626
     35  C         5.7075384017    0.4166222404    1.8474696237
     36  C         6.1253322451    0.4861494725    0.3309730848
     37  C         4.7376286046    0.8066862898   -0.3490846115
     38  O         4.0788905270    1.7063213660    0.6268085170
     39  H         3.7163599860   -1.4491411129    1.7310069962
     40  H         4.4553868695   -1.4065939248   -0.5374960201
     41  H        -0.3294946926    1.0236058997    1.8807605225
     42  H         3.7291717843    1.2030153253    2.6729884587
     43  H         6.2355463399    1.1735593324    2.4488268012
     44  H         5.8866183976   -0.5755183755    2.2917107385
     45  H         6.8414000596    1.3027871509    0.1471915147
     46  H         6.5619974128   -0.4570926112   -0.0344053103
     47  H         4.7827566124    1.2847211500   -1.3469451348
     48  H        -0.6352572428    0.2800537879    0.2606102905
     49  H        -0.1936227513    2.0285978242    0.3881702236
     50  H        -0.7248634057   -1.3879031803    2.4208929790
     51  H        -2.1162476956   -2.5737874347    2.3006262196
     52  H        -2.0107365666   -1.4382796282    3.7093070679
     53  H        -1.1076643828   -2.9622028886   -1.4893197159
     54  H        -0.2177465616   -2.4206947273   -0.0019041862
     55  H         0.8020352071   -2.3474150433   -2.7057706541
     56  H         0.4410745460   -0.6259493266   -2.3147684663
   Point Group: c1    Number of degrees of freedom:   162


   Energy is  -1510.299699838

 Hessian Updated using BFGS Update

162 Hessian modes will be used to form the next step
  Hessian Eigenvalues:
     0.000942    0.001589    0.001970    0.002104    0.003148    0.004824
     0.005014    0.006095    0.006768    0.008431    0.015101    0.016857
     0.020998    0.021971    0.022301    0.026014    0.027023    0.027486
     0.029292    0.031086    0.032314    0.033124    0.034528    0.035954
     0.036268    0.040717    0.041334    0.042434    0.043037    0.044339
     0.046528    0.047357    0.048150    0.049600    0.050385    0.051534
     0.051756    0.053757    0.054984    0.055602    0.055934    0.056701
     0.057579    0.057751    0.058404    0.058837    0.059917    0.062496
     0.063321    0.063791    0.064280    0.064627    0.065059    0.068481
     0.069894    0.070421    0.072641    0.073425    0.077843    0.085633
     0.092725    0.092873    0.096548    0.097312    0.100058    0.101719
     0.103102    0.104176    0.107421    0.109639    0.111706    0.114575
     0.116297    0.120729    0.131006    0.139764    0.143227    0.149959
     0.154784    0.157128    0.160277    0.160771    0.163794    0.169375
     0.172434    0.173168    0.175889    0.202383    0.217114    0.218200
     0.224829    0.229179    0.232337    0.236813    0.237468    0.238996
     0.239868    0.242608    0.243997    0.246906    0.249465    0.250702
     0.251021    0.253696    0.254822    0.256728    0.258946    0.259883
     0.265451    0.267705    0.278901    0.280894    0.291139    0.295050
     0.302596    0.304921    0.310285    0.310475    0.319238    0.322927
     0.324186    0.324617    0.326716    0.327389    0.327907    0.328511
     0.328710    0.328754    0.329176    0.329621    0.330457    0.330678
     0.331374    0.331574    0.331883    0.332643    0.332889    0.334732
     0.334782    0.335000    0.335232    0.335291    0.335360    0.335593
     0.336260    0.350244    0.355579    0.366998    0.378660    0.403952
     0.410669    0.421598    0.458337    0.567379    0.694487    0.822290
     0.827148    0.829316    0.832957    1.013727    1.368076    3.809981

 Minimum Search - Taking Simple RFO Step
 Searching for Lamda that Minimizes Along All modes
 Value Taken    Lamda =   0.00000000
 Step Taken.  Stepsize is  0.002699

                             Maximum     Tolerance    Cnvgd?
         Gradient           0.000093      0.000300     YES
         Displacement       0.001029      0.001200     YES
         Energy change     -0.000000      0.000001     YES

 Final energy is   -1510.29969983764     


 ******************************
 **  OPTIMIZATION CONVERGED  **
 ******************************

                       Coordinates (Angstroms)
     ATOM                X               Y               Z
      1  O         1.1015165992   -1.1213231313    2.0803313674
      2  C         1.8461603348   -0.3800850682    1.3953518597
      3  C         3.3976224994   -0.5260416810    1.2167384091
      4  C         3.8555178908   -0.5076727058   -0.3030744497
      5  C         2.6508194568   -0.4575175601   -1.3064075884
      6  O         1.8168671707   -1.5857028285   -1.0000868764
      7  C         0.6234306446   -1.6309466875   -1.8751666938
      8  C        -0.5947923646   -2.1099392361   -0.9981553377
      9  O        -1.5691819654   -1.0255304892   -0.7305699517
     10  C        -2.5249125401   -0.9301296874   -1.8017671603
     11  C        -3.6664915571    0.0621127126   -1.4105958607
     12  C        -4.1992942872   -0.0718758492    0.0830853594
     13  C        -3.4449419080   -1.1730522298    0.9219710765
     14  O        -3.5912249373   -2.4107792421    0.7962773977
     15  O         1.4342035058    0.7730487287    0.6754079387
     16  O        -2.6014362319   -0.5476353001    1.8873149020
     17  O        -2.4234836475   -1.5779206101   -2.8653663166
     18  C        -1.8084519288   -1.5609027655    2.6278461207
     19  C        -3.1946098883    1.5853733055   -1.4206827146
     20  C        -4.4854550588    2.4921983239   -1.5038357850
     21  C        -5.0484103242    2.3506563627   -0.0413222478
     22  C        -3.9676518188    1.4027153897    0.6144747136
     23  O        -2.7050892523    1.8096258142   -0.0453813515
     24  H        -4.4807480150   -0.0973815742   -2.1393094434
     25  H        -5.2719142157   -0.3381192054    0.0761321971
     26  H        -2.4036351041    1.8189249026   -2.1598347067
     27  H        -4.2056266946    3.5334617351   -1.7303169798
     28  H        -5.1940423681    2.1414194755   -2.2711072859
     29  H        -5.0740414311    3.3222585381    0.4770302467
     30  H        -6.0574636027    1.9094017397   -0.0150468149
     31  H        -3.8692962068    1.4786580034    1.7136708812
     32  O         2.4324144534    0.3563479405   -2.2269191382
     33  C        -0.0214747349    1.0256395600    0.8174432292
     34  C         4.1664197248    0.7572321084    1.7583962626
     35  C         5.7075384017    0.4166222404    1.8474696237
     36  C         6.1253322451    0.4861494725    0.3309730848
     37  C         4.7376286046    0.8066862898   -0.3490846115
     38  O         4.0788905270    1.7063213660    0.6268085170
     39  H         3.7163599860   -1.4491411129    1.7310069962
     40  H         4.4553868695   -1.4065939248   -0.5374960201
     41  H        -0.3294946926    1.0236058997    1.8807605225
     42  H         3.7291717843    1.2030153253    2.6729884587
     43  H         6.2355463399    1.1735593324    2.4488268012
     44  H         5.8866183976   -0.5755183755    2.2917107385
     45  H         6.8414000596    1.3027871509    0.1471915147
     46  H         6.5619974128   -0.4570926112   -0.0344053103
     47  H         4.7827566124    1.2847211500   -1.3469451348
     48  H        -0.6352572428    0.2800537879    0.2606102905
     49  H        -0.1936227513    2.0285978242    0.3881702236
     50  H        -0.7248634057   -1.3879031803    2.4208929790
     51  H        -2.1162476956   -2.5737874347    2.3006262196
     52  H        -2.0107365666   -1.4382796282    3.7093070679
     53  H        -1.1076643828   -2.9622028886   -1.4893197159
     54  H        -0.2177465616   -2.4206947273   -0.0019041862
     55  H         0.8020352071   -2.3474150433   -2.7057706541
     56  H         0.4410745460   -0.6259493266   -2.3147684663

Z-matrix Print:
$molecule
0 1
O 
C  1 1.438744
O  2 1.249466 1 123.057377
C  1 1.482221 2 110.535582 3 -7.751053 0
H  4 1.109339 1 109.759689 2 -36.939495 0
H  4 1.109617 1 105.437361 2 -155.194530 0
C  2 1.562294 1 109.943264 3 179.224512 0
H  7 1.104299 2 106.369632 1 -166.073135 0
C  4 1.575643 1 112.726886 2 86.249521 0
H  9 1.111364 4 110.136922 1 -131.979299 0
H  9 1.111991 4 111.592283 1 -11.695671 0
O  9 1.480575 4 107.669649 1 108.824146 0
C  12 1.436005 9 111.472033 4 -141.659605 0
O  13 1.247966 12 124.615492 9 -2.666751 0
C  13 1.568595 12 106.526194 9 178.997172 0
H  15 1.105828 13 107.879315 12 66.369266 0
C  15 1.583596 13 112.499958 12 -170.243629 0
H  17 1.107375 15 114.027242 13 -32.115600 0
O  17 1.481771 15 103.717981 13 88.063672 0
C  19 1.479501 17 95.045806 15 55.898758 0
H  20 1.107424 19 110.492142 17 179.492866 0
C  17 1.578272 15 107.980187 13 -162.754323 0
H  22 1.101556 17 110.432827 15 168.847881 0
H  22 1.101764 17 112.299902 15 47.256037 0
C  22 1.574531 17 100.991766 15 -73.108804 0
H  25 1.101534 22 111.609062 17 -119.319920 0
H  25 1.101709 22 112.643831 17 118.058797 0
C  15 1.587399 13 113.031464 12 -56.096221 0
H  28 1.103711 15 111.868777 13 117.991022 0
C  28 1.568516 15 113.158069 13 -4.385147 0
O  30 1.254243 28 126.472834 15 129.190996 0
O  30 1.420474 28 107.739280 15 -52.687906 0
C  32 1.484242 30 111.967673 28 -178.165576 0
H  33 1.104462 32 105.676983 30 169.626430 0
H  33 1.107034 32 111.376085 30 50.958463 0
H  33 1.114760 32 112.233149 30 -71.552013 0
C  7 1.591514 2 115.223171 1 -42.466556 0
H  37 1.105191 7 109.833498 2 -118.803093 0
C  37 1.576504 7 113.454669 2 1.430188 0
O  39 1.252663 37 125.513359 7 -74.217272 0
O  39 1.426372 37 109.683746 7 107.951559 0
C  41 1.484561 39 110.744655 37 -176.080917 0
H  42 1.107029 41 108.306074 39 -123.529071 0
H  42 1.108037 41 109.161664 39 -3.993418 0
H  42 1.116657 41 108.671683 39 117.053947 0
C  37 1.584441 7 100.805007 2 123.336458 0
H  46 1.106198 37 114.214150 7 -156.277308 0
O  46 1.481570 37 103.345565 7 -36.358625 0
C  48 1.476947 46 95.196779 37 57.336580 0
H  49 1.107490 48 110.655207 46 -179.577138 0
C  49 1.579724 48 103.455319 46 56.376739 0
H  51 1.101738 49 110.231212 48 82.650893 0
H  51 1.101747 49 112.298416 48 -155.948924 0
C  51 1.573499 49 101.057045 48 -35.415725 0
H  54 1.101525 51 111.491710 49 118.113208 0
H  54 1.101628 51 112.700088 49 -119.312731 0
$end

 
 --------------------------------------------------------------
 
                    Orbital Energies (a.u.)
 --------------------------------------------------------------
 
 Alpha MOs
 -- Occupied --
-18.950 -18.932 -18.931 -18.921 -18.892 -18.890 -18.887 -18.880
-18.874 -18.858 -10.111 -10.103 -10.101 -10.093 -10.078 -10.073
-10.066 -10.060 -10.060 -10.058 -10.044 -10.038 -10.037 -10.036
-10.036 -10.030 -10.023 -10.021 -10.020 -10.019  -1.025  -1.015
 -1.005  -0.999  -0.974  -0.969  -0.949  -0.939  -0.933  -0.924
 -0.767  -0.763  -0.730  -0.724  -0.712  -0.706  -0.699  -0.647
 -0.643  -0.618  -0.597  -0.585  -0.549  -0.546  -0.539  -0.537
 -0.515  -0.510  -0.489  -0.480  -0.467  -0.464  -0.443  -0.436
 -0.436  -0.431  -0.426  -0.414  -0.412  -0.406  -0.402  -0.397
 -0.389  -0.381  -0.370  -0.366  -0.364  -0.358  -0.356  -0.347
 -0.340  -0.338  -0.334  -0.332  -0.329  -0.324  -0.321  -0.310
 -0.309  -0.306  -0.305  -0.303  -0.300  -0.290  -0.288  -0.278
 -0.275  -0.255  -0.252  -0.244  -0.240  -0.233  -0.232  -0.194
 -0.176  -0.170  -0.165  -0.164  -0.158  -0.149  -0.147  -0.143
 -0.142
 -- Virtual --
  0.083   0.092   0.110   0.115   0.217   0.238   0.241   0.253
  0.262   0.269   0.282   0.287   0.307   0.311   0.323   0.326
  0.332   0.336   0.347   0.349   0.353   0.359   0.362   0.363
  0.366   0.380   0.384   0.391   0.397   0.399   0.408   0.411
  0.411   0.416   0.425   0.426   0.428   0.435   0.442   0.446
  0.447   0.450   0.451   0.453   0.460   0.466   0.468   0.468
  0.482   0.485   0.488   0.495   0.503   0.505   0.511   0.533
  0.538   0.552   0.553   0.629   0.645   0.647   0.655
 --------------------------------------------------------------
 
          Ground-State Mulliken Net Atomic Charges

     Atom                 Charge (a.u.)
  ----------------------------------------
      1 O                    -0.222078
      2 C                     0.217148
      3 C                    -0.077861
      4 C                    -0.077571
      5 C                     0.217673
      6 O                    -0.179831
      7 C                    -0.053679
      8 C                    -0.050218
      9 O                    -0.168656
     10 C                     0.212989
     11 C                    -0.080148
     12 C                    -0.078836
     13 C                     0.212178
     14 O                    -0.228534
     15 O                    -0.168565
     16 O                    -0.173111
     17 O                    -0.205983
     18 C                    -0.154058
     19 C                     0.025394
     20 C                    -0.143114
     21 C                    -0.144657
     22 C                     0.025565
     23 O                    -0.188518
     24 H                     0.087906
     25 H                     0.084218
     26 H                     0.083702
     27 H                     0.079072
     28 H                     0.074718
     29 H                     0.078413
     30 H                     0.073950
     31 H                     0.092276
     32 O                    -0.209404
     33 C                    -0.142514
     34 C                     0.026085
     35 C                    -0.144174
     36 C                    -0.143677
     37 C                     0.024771
     38 O                    -0.184445
     39 H                     0.084660
     40 H                     0.084553
     41 H                     0.085841
     42 H                     0.082819
     43 H                     0.078069
     44 H                     0.073576
     45 H                     0.078225
     46 H                     0.072845
     47 H                     0.090020
     48 H                     0.108798
     49 H                     0.092689
     50 H                     0.110829
     51 H                     0.091469
     52 H                     0.075767
     53 H                     0.099060
     54 H                     0.104831
     55 H                     0.087927
     56 H                     0.101596
  ----------------------------------------
  Sum of atomic charges =    -0.000000

 -----------------------------------------------------------------
                    Cartesian Multipole Moments
 -----------------------------------------------------------------
    Charge (ESU x 10^10)
                -0.0000
    Dipole Moment (Debye)
         X       0.2698      Y       0.1553      Z       0.2973
       Tot       0.4305
    Quadrupole Moments (Debye-Ang)
        XX    -139.5493     XY     -14.6433     YY    -165.3428
        XZ       3.9685     YZ       0.8495     ZZ    -161.5857
    Octopole Moments (Debye-Ang^2)
       XXX      48.1172    XXY      27.1646    XYY      14.1883
       YYY      18.4752    XXZ       4.3806    XYZ      12.9515
       YYZ     -10.0269    XZZ      14.7188    YZZ      14.9110
       ZZZ      19.9301
    Hexadecapole Moments (Debye-Ang^3)
      XXXX  -10699.6933   XXXY     -67.9569   XXYY   -2305.1631
      XYYY      37.0973   YYYY   -1946.8498   XXXZ    -423.6421
      XXYZ     -10.5376   XYYZ    -178.5810   YYYZ      13.6082
      XXZZ   -2234.2883   XYZZ      15.1366   YYZZ    -675.2615
      XZZZ    -543.0109   YZZZ     -10.2151   ZZZZ   -2190.7350
 -----------------------------------------------------------------
Archival summary:
1\1\vega02.cac.cornell.edu\OPT\ProcedureUnspecified\STO-3G\102026\jj585\TueJan1600:33:382018TueJan1600:33:382018\0\\#,OPT,ProcedureUnspecified,STO-3G,\\0,1\O\C,1,1.43874\O,2,1.24947,1,123.057\C,1,1.48222,2,110.536,3,-7.75105,0\H,4,1.10934,1,109.76,2,-36.9395,0\H,4,1.10962,1,105.437,2,-155.195,0\C,2,1.56229,1,109.943,3,179.225,0\H,7,1.1043,2,106.37,1,-166.073,0\C,4,1.57564,1,112.727,2,86.2495,0\H,9,1.11136,4,110.137,1,-131.979,0\H,9,1.11199,4,111.592,1,-11.6957,0\O,9,1.48058,4,107.67,1,108.824,0\C,12,1.43601,9,111.472,4,-141.66,0\O,13,1.24797,12,124.615,9,-2.66675,0\C,13,1.5686,12,106.526,9,178.997,0\H,15,1.10583,13,107.879,12,66.3693,0\C,15,1.5836,13,112.5,12,-170.244,0\H,17,1.10738,15,114.027,13,-32.1156,0\O,17,1.48177,15,103.718,13,88.0637,0\C,19,1.4795,17,95.0458,15,55.8988,0\H,20,1.10742,19,110.492,17,179.493,0\C,17,1.57827,15,107.98,13,-162.754,0\H,22,1.10156,17,110.433,15,168.848,0\H,22,1.10176,17,112.3,15,47.256,0\C,22,1.57453,17,100.992,15,-73.1088,0\H,25,1.10153,22,111.609,17,-119.32,0\H,25,1.10171,22,112.644,17,118.059,0\C,15,1.5874,13,113.031,12,-56.0962,0\H,28,1.10371,15,111.869,13,117.991,0\C,28,1.56852,15,113.158,13,-4.38515,0\O,30,1.25424,28,126.473,15,129.191,0\O,30,1.42047,28,107.739,15,-52.6879,0\C,32,1.48424,30,111.968,28,-178.166,0\H,33,1.10446,32,105.677,30,169.626,0\H,33,1.10703,32,111.376,30,50.9585,0\H,33,1.11476,32,112.233,30,-71.552,0\C,7,1.59151,2,115.223,1,-42.4666,0\H,37,1.10519,7,109.833,2,-118.803,0\C,37,1.5765,7,113.455,2,1.43019,0\O,39,1.25266,37,125.513,7,-74.2173,0\O,39,1.42637,37,109.684,7,107.952,0\C,41,1.48456,39,110.745,37,-176.081,0\H,42,1.10703,41,108.306,39,-123.529,0\H,42,1.10804,41,109.162,39,-3.99342,0\H,42,1.11666,41,108.672,39,117.054,0\C,37,1.58444,7,100.805,2,123.336,0\H,46,1.1062,37,114.214,7,-156.277,0\O,46,1.48157,37,103.346,7,-36.3586,0\C,48,1.47695,46,95.1968,37,57.3366,0\H,49,1.10749,48,110.655,46,-179.577,0\C,49,1.57972,48,103.455,46,56.3767,0\H,51,1.10174,49,110.231,48,82.6509,0\H,51,1.10175,49,112.298,48,-155.949,0\C,51,1.5735,49,101.057,48,-35.4157,0\H,54,1.10152,51,111.492,49,118.113,0\H,54,1.10163,51,112.7,49,-119.313,0\\\@

 Total job time:  159.76s(wall), 7622.32s(cpu) 
 Tue Jan 16 00:33:38 2018

        *************************************************************
        *                                                           *
        *  Thank you very much for using Q-Chem.  Have a nice day.  *
        *                                                           *
        *************************************************************


0 sent ACK to 0 
now end server 0 ... 
