mFile = /opt/software/qchem/qchem-5.0.1//bin/mpi/machines
Process 0 of 1 is on vega02.cac.cornell.edu - thread support 0
initial socket setup ...start
initial socket setup ...done 
now start server 0 ... 
vega02.cac.cornell.edu 10.84.3
Q-Chem Developer Version! Running on 10.84.3.*
                  Welcome to Q-Chem
     A Quantum Leap Into The Future Of Chemistry


 Q-Chem 5.0, Q-Chem, Inc., Pleasanton, CA (2017)

 Yihan Shao,  Zhengting Gan,  E. Epifanovsky,  A. T. B. Gilbert,  M. Wormit,  
 J. Kussmann,  A. W. Lange,  A. Behn,  Jia Deng,  Xintian Feng,  D. Ghosh,  
 M. Goldey,  P. R. Horn,  L. D. Jacobson,  I. Kaliman,  T. Kus,  A. Landau,  
 Jie Liu,  E. I. Proynov,  R. M. Richard,  R. P. Steele,  E. J. Sundstrom,  
 H. L. Woodcock III,  P. M. Zimmerman,  D. Zuev,  B. Albrecht,  E. Alguire,  
 S. A. Baeppler,  Z. Benda,  Y. A. Bernard,  E. J. Berquist,  K. B. Bravaya,  
 D. Casanova,  Chun-Min Chang,  Yunqing Chen,  A. Chien,  K. D. Closser,  
 M. P. Coons,  S. Dasgupta,  M. Diedenhofen,  Hainam Do,  R. G. Edgar,  
 Po-Tung Fang,  S. Fatehi,  Qingguo Feng,  Qinghui Ge,  A. Ghysels,  
 J. Gomes,  J. Gonthier,  A. Gunina,  M. W. D. Hanson-Heine,  
 P. H. P. Harbach,  A. W. Hauser,  J. E. Herr,  E. G. Hohenstein,  
 Z. C. Holden,  Kerwin Hui,  T.-C. Jagau,  Hyunjun Ji,  B. Kaduk,  
 K. Khistyaev,  Jaehoon Kim,  P. Klunzinger,  K. Koh,  D. Kosenkov,  
 T. Kowalczyk,  C. M. Krauter,  A. Kunitsa,  Ka Un Lao,  A. Laurent,  
 K. V. Lawler,  Joonho Lee,  D. Lefrancois,  S. Lehtola,  D. S. Levine,  
 Yi-Pei Li,  You-Sheng Lin,  Fenglai Liu,  E. Livshits,  A. Luenser,  
 P. Manohar,  E. Mansoor,  S. F. Manzer,  Shan-Ping Mao,  Yuezhi Mao,  
 N. Mardirossian,  A. V. Marenich,  L. A. Martinez-Martinez,  S. A. Maurer,  
 N. J. Mayhall,  S. C. McKenzie,  J.-M. Mewes,  A. F. Morrison,  K. Nanda,  
 T. S. Nguyen-Beck,  R. Olivares-Amaya,  J. A. Parkhill,  T. M. Perrine,  
 F. Plasser,  S. Prager,  A. Prociuk,  D. R. Rehn,  F. Rob,  M. Schneider,  
 N. Sergueev,  S. M. Sharada,  S. Sharma,  D. W. Small,  T. Stauch,  
 T. Stein,  Yu-Chuan Su,  A. J. W. Thom,  T. Tsuchimochi,  L. Vogt,  
 O. Vydrov,  M. A. Watson,  J. Wenzel,  M. de Wergifosse,  T. A. Wesolowski,  
 A. White,  J. Witte,  A. Yamada,  Jun Yang,  K. Yao,  S. Yeganeh,  
 S. R. Yost,  Zhi-Qiang You,  A. Zech,  Igor Ying Zhang,  Xing Zhang,  
 Yan Zhao,  Ying Zhu,  B. R. Brooks,  G. K. L. Chan,  C. J. Cramer,  
 M. S. Gordon,  W. J. Hehre,  A. Klamt,  M. W. Schmidt,  C. D. Sherrill,  
 D. G. Truhlar,  A. Aspuru-Guzik,  R. Baer,  A. T. Bell,  N. A. Besley,  
 Jeng-Da Chai,  A. Dreuw,  B. D. Dunietz,  T. R. Furlani,  Chao-Ping Hsu,  
 Yousung Jung,  Jing Kong,  D. S. Lambrecht,  WanZhen Liang,  C. Ochsenfeld,  
 V. A. Rassolov,  L. V. Slipchenko,  J. E. Subotnik,  T. Van Voorhis,  
 J. M. Herbert,  A. I. Krylov,  P. M. W. Gill,  M. Head-Gordon

 Contributors to earlier versions of Q-Chem not listed above: 
 R. D. Adamson,  B. Austin,  J. Baker,  G. J. O. Beran,  K. Brandhorst,  
 S. T. Brown,  E. F. C. Byrd,  A. K. Chakraborty,  C.-L. Cheng,  
 Siu Hung Chien,  D. M. Chipman,  D. L. Crittenden,  H. Dachsel,  
 R. A. DiStasio Jr.,  R. J. Doerksen,  A. D. Dutoi,  L. Fusti-Molnar,  
 W. A. Goddard III,  A. Golubeva-Zadorozhnaya,  S. R. Gwaltney,  G. Hawkins,  
 A. Heyden,  S. Hirata,  G. Kedziora,  F. J. Keil,  C. Kelley,  Jihan Kim,  
 R. A. King,  R. Z. Khaliullin,  P. P. Korambath,  W. Kurlancheek,  
 A. M. Lee,  M. S. Lee,  S. V. Levchenko,  Ching Yeh Lin,  D. Liotard,  
 R. C. Lochan,  I. Lotan,  P. E. Maslen,  N. Nair,  D. P. O'Neill,  
 D. Neuhauser,  E. Neuscamman,  C. M. Oana,  R. Olson,  B. Peters,  
 R. Peverati,  P. A. Pieniazek,  Y. M. Rhee,  J. Ritchie,  M. A. Rohrdanz,  
 E. Rosta,  N. J. Russ,  H. F. Schaefer III,  N. E. Schultz,  N. Shenvi,  
 A. C. Simmonett,  A. Sodt,  D. Stuck,  K. S. Thanthiriwatte,  V. Vanovschi,  
 Tao Wang,  A. Warshel,  C. F. Williams,  Q. Wu,  X. Xu,  W. Zhang

 Please cite Q-Chem as follows:
 Y. Shao et al., Mol. Phys. 113, 184-215 (2015)
 DOI: 10.1080/00268976.2014.952696

 Q-Chem 5.0.1 for Intel X86 EM64T Linux

 Parts of Q-Chem use Armadillo 5.200.1 (Boston Tea Smuggler).
 http://arma.sourceforge.net/

 Q-Chem begins on Tue Jan 16 00:45:24 2018  

Host: vega02.cac.cornell.edu
0

     Scratch files written to /scratch/jj585/SOT1001/0979c.save//
 Parallel job on  1  processors

Checking the input file for inconsistencies... 	...done.

--------------------------------------------------------------
User input:
--------------------------------------------------------------
$molecule
0  1
O -3.94934 -3.66094 2.70899
C -3.26408 -4.56952 2.26188
C -3.36658 -6.02376 2.66595
C -2.76261 -7.06348 1.7078
C -1.9673 -6.5228 0.54022
O -0.8359 -5.90736 0.99475
C 0.3644 -6.45123 0.43553
C 1.46522 -6.48992 1.49043
O 2.49343 -7.4099 1.09129
C 2.20059 -8.1803 0.01433
C 2.50922 -7.49918 -1.29772
C 2.87034 -6.01082 -1.1852
C 3.21644 -5.51816 0.20556
O 3.70232 -6.19807 1.09787
O -2.49787 -4.17296 1.21411
O 3.14464 -4.16831 0.37156
O 1.97433 -9.3764 0.11329
C 3.6296 -3.48059 1.46596
C 3.7604 -8.07273 -1.98122
C 3.72154 -7.75501 -3.47531
C 3.99585 -6.26629 -3.45171
C 4.21437 -6.05042 -1.94972
O 4.80232 -7.25433 -1.51962
H 1.61919 -7.65194 -1.94845
H 2.20278 -5.29095 -1.70864
H 3.88654 -9.16582 -1.8211
H 4.58801 -8.26858 -3.95016
H 2.78527 -8.05716 -3.99221
H 4.94272 -6.07664 -4.00488
H 3.18449 -5.62434 -3.85768
H 4.82181 -5.13224 -1.78356
O -2.18016 -6.8024 -0.63243
C -2.36663 -2.88125 0.7407
C -2.61027 -6.34846 3.96358
C -3.2046 -7.59939 4.61078
C -2.70998 -8.67361 3.66129
C -1.86489 -7.83112 2.70008
O -1.35536 -6.8064 3.5232
H -4.45603 -6.21535 2.795
H -3.54881 -7.72267 1.27567
H -1.95604 -2.22325 1.53607
H -2.60105 -5.50243 4.68513
H -2.70121 -7.73827 5.59428
H -4.3051 -7.56865 4.76213
H -2.05523 -9.37039 4.23068
H -3.50378 -9.24577 3.13424
H -1.11482 -8.46781 2.18176
H -3.35084 -2.49462 0.40042
H -1.66623 -2.8804 -0.11957
H 3.43604 -2.39724 1.32739
H 4.72526 -3.63798 1.55816
H 3.12822 -3.81137 2.39843
H 1.69266 -5.51697 1.98346
H 1.00579 -6.99875 2.36279
H 0.59744 -5.78332 -0.39849
H 0.0827 -7.44684 0.02231
$end

$opt
CONSTRAINT
tors           1           2           3           4    +161.053
tors           3           4           5           6     +66.316
tors           4           5           6           7    +123.158
tors           5           6           7           8    -142.105
tors           6           7           8           9    +161.053
tors           7           8           9          10      -9.474
tors           8           9          10          11     +85.263
tors           9          10          11          12      -9.474
tors          11          12          13          14     +28.421
ENDCONSTRAINT
$end

$rem
JOBTYPE                   OPT
METHOD                    B3LYP
DFT_D                     d3_op
BASIS                     STO-3G
GEOM_OPT_MAX_CYCLES       100
GEOM_OPT_TOL_GRADIENT     300
GEOM_OPT_TOL_DISPLACEMENT 1200
GEOM_OPT_TOL_ENERGY       100
SYMMETRY                  False
THRESH                    12
SCF_CONVERGENCE           8
MAX_SUB_FILE_NUM          128
MEM_STATIC                400
MEM_TOTAL                 4000
$end
--------------------------------------------------------------
 Adding empirical dispersion correction 
 ----------------------------------------------------------------
 Doing -D3(op) with
 s6 =   1.00000
 s8 =   0.78311
 a1 =   0.30000
 a2 =   4.25000
 n  =  10.00000
 -D3 energy without 3body term =     -0.0746462164 hartrees
 ----------------------------------------------------------------
             Standard Nuclear Orientation (Angstroms)
    I     Atom           X                Y                Z
 ----------------------------------------------------------------
    1      O       4.9892918892    -2.2762340775    -0.4864201318
    2      C       4.0933208322    -1.4481853436    -0.5675212751
    3      C       4.2637466047     0.0454499725    -0.3984018173
    4      C       3.1542281047     0.9476303241    -0.9631036617
    5      C       1.9135862411     0.2503655345    -1.4756712129
    6      O       1.2544009906    -0.3457338903    -0.4385742281
    7      C      -0.1029128513     0.0903411385    -0.3090389855
    8      C      -0.4770203524     0.2137039028     1.1643722960
    9      O      -1.6380071035     1.0472700233     1.3063900082
   10      C      -2.0296121204     1.6979948227     0.1828611864
   11      C      -2.9234983756     0.8607475301    -0.7006751556
   12      C      -3.0357365387    -0.6159086737    -0.2942604105
   13      C      -2.5478251253    -0.9565699076     1.0995131865
   14      O      -2.5463537414    -0.1949916048     2.0558449503
   15      O       2.9277613998    -1.9876311264    -1.0064165102
   16      O      -2.2788356564    -2.2752783509     1.3079813367
   17      O      -1.8931568089     2.9043509902     0.0497198167
   18      C      -2.0474976831    -2.8482506000     2.5425022575
   19      C      -4.3921610348     1.3103235306    -0.6507286047
   20      C      -5.1216219819     0.8244056476    -1.9023401913
   21      C      -5.2076314015    -0.6599659772    -1.6171500204
   22      C      -4.5779296995    -0.7088275791    -0.2202201303
   23      O      -4.9539742448     0.5164860518     0.3605272387
   24      H      -2.5304804165     0.9669690550    -1.7366251654
   25      H      -2.6851418677    -1.3687604219    -1.0346226367
   26      H      -4.5114970264     2.4098128434    -0.5354999876
   27      H      -6.1498971215     1.2511118555    -1.8782782312
   28      H      -4.6321105511     1.0958556144    -2.8624314474
   29      H      -6.2823845565    -0.9430884867    -1.5599287942
   30      H      -4.6804958281    -1.3172080893    -2.3419792322
   31      H      -4.9205541784    -1.6213572391     0.3178738183
   32      O       1.4476935667     0.4001738719    -2.5977652553
   33      C       2.6818756746    -3.3288226662    -1.2313635123
   34      C       4.2832377366     0.4920408992     1.0717870015
   35      C       5.0154864262     1.8280034207     1.1980322063
   36      C       3.9997388868     2.7690396194     0.5792942797
   37      C       2.8532537236     1.7942130580     0.2908915787
   38      O       2.9504053619     0.8546627596     1.3373165543
   39      H       5.2342039555     0.2864460450    -0.8887031088
   40      H       3.5300788692     1.5783511624    -1.7999463350
   41      H       2.8150748845    -3.9042109519    -0.2904342502
   42      H       4.7328442360    -0.2652711125     1.7506232737
   43      H       5.0987601330     2.0623406998     2.2834413116
   44      H       6.0269257498     1.8511935699     0.7382445033
   45      H       3.6863309893     3.5046721784     1.3532614179
   46      H       4.3395467894     3.3026939085    -0.3344950271
   47      H       1.8891975715     2.3419987444     0.2062667556
   48      H       3.3668196165    -3.7193226600    -2.0138621453
   49      H       1.6357233591    -3.4516724827    -1.5793557690
   50      H      -1.8607388846    -3.9333679576     2.4085029581
   51      H      -2.9372853127    -2.7175416322     3.1943737385
   52      H      -1.1605404656    -2.3961054385     3.0315516016
   53      H      -0.3211384158    -0.7030877759     1.7780766847
   54      H       0.3268283622     0.8343266639     1.6111949631
   55      H      -0.6812366211    -0.6763425879    -0.8322391872
   56      H      -0.1728008928     1.0405953984    -0.8865140358
 ----------------------------------------------------------------
 Molecular Point Group                 C1    NOp =  1
 Largest Abelian Subgroup              C1    NOp =  1
 Nuclear Repulsion Energy =  3346.6378965372 hartrees
 There are      113 alpha and      113 beta electrons
 Requested basis set is STO-3G
 There are 86 shells and 176 basis functions

 Total QAlloc Memory Limit   4000 MB
 Mega-Array Size       392 MB
 MEM_STATIC part       400 MB
 A cutoff of  1.0D-12 yielded   2385 shell pairs
 There are     11421 function pairs
 
 -------------------------------------------------------
 OpenMP Integral Computing Module                       
 Release: version 1.0, May 2013, Q-Chem Inc. Pittsburgh 
 -------------------------------------------------------
 Integral Job Info:
 Integral job number is                      11
 Integral operator is                         1
 short-range coefficients                     0
 long-range coefficients              100000000
 Omega coefficients                           0
 if combine SR and LR in K                    0
 Integral screening is                        0
 Integral computing path is                   2
 max size of driver memory is            800000
 size of driver memory is                 45569
 size of scratch memory is              1046100
 max col of scratch BK array                289
 max len of scratch array in speh3           22
 max len of scratch index in speh4            8
 max int batch size is                      520
 min int batch size is                       52
 fixed nKL is                                52
 max L of basis functions is                  1
 order of int derivative is                   0
 number of shells is                         86
 number of basis is                         176
 number of cartesian basis is               176
 number of contracted shell pairs          2385
 number of primitive shell pairs          12150
 maxK2 (contraction) of shell pair            9
 max number of K2 of shell pair               1
 max number of CS2 of shell pair            345
 max number of PS2 of shell pair           1374
 mem total for path MDJ                   55178
 -------------------------------------------------------
 Smallest overlap matrix eigenvalue = 1.93E-01

 Scale SEOQF with 1.000000e-02/1.000000e-01/1.000000e-01

 Standard Electronic Orientation quadrupole field applied
 Nucleus-field energy     =     0.0000000127 hartrees
 Guess from superposition of atomic densities
 Warning:  Energy on first SCF cycle will be non-variational
 A restricted hybrid HF-DFT SCF calculation will be
 performed using Pulay DIIS extrapolation
 Exchange:     0.2000 Hartree-Fock + 0.0800 Slater + 0.7200 B88
 Correlation:  0.1900 VWN1RPA + 0.8100 LYP
 Using SG-1 standard quadrature grid
 Dispersion:   Grimme D3
 SCF converges when DIIS error is below 1.0E-08
 using 48 threads for integral computing
 -------------------------------------------------------
 OpenMP Integral computing Module                
 Release: version 1.0, May 2013, Q-Chem Inc. Pittsburgh 
 -------------------------------------------------------
 -------------------------------------------------------
 OpenMP BLAS3 based DFT computing Module                
 Release: version 1.0, May 2013, Q-Chem Inc. Pittsburgh 
 -------------------------------------------------------
 ---------------------------------------
  Cycle       Energy         DIIS Error
 ---------------------------------------
    1   -1509.5966880595      8.33E-02
    2   -1509.3909172035      1.08E-02
    3   -1507.3003191134      2.56E-02
    4   -1509.8995563928      3.74E-03
    5   -1509.9540216421      1.52E-03
    6   -1509.9612836325      8.51E-04
    7   -1509.9643073602      1.59E-04
    8   -1509.9644058685      6.10E-05
    9   -1509.9644160769      3.56E-05
   10   -1509.9644217760      4.00E-06
   11   -1509.9644218601      1.53E-06
   12   -1509.9644218717      3.76E-07
   13   -1509.9644218725      1.48E-07
   14   -1509.9644218726      6.67E-08
   15   -1509.9644218726      2.97E-08
   16   -1509.9644218727      6.67E-09 Convergence criterion met
 ---------------------------------------
 SCF time:  CPU 127.09 s  wall 2.71 s
 SCF   energy in the final basis set = -1509.96442187
 Total energy in the final basis set = -1509.96442187
 
 --------------------------------------------------------------
 
                    Orbital Energies (a.u.)
 --------------------------------------------------------------
 
 Alpha MOs
 -- Occupied --
-18.937 -18.928 -18.920 -18.913 -18.907 -18.898 -18.877 -18.874
-18.866 -18.849 -10.114 -10.113 -10.105 -10.087 -10.086 -10.083
-10.082 -10.082 -10.076 -10.075 -10.068 -10.065 -10.050 -10.038
-10.037 -10.032 -10.022 -10.021 -10.015 -10.014  -1.070  -1.049
 -1.037  -1.029  -1.027  -1.025  -0.974  -0.954  -0.939  -0.930
 -0.789  -0.783  -0.750  -0.742  -0.735  -0.727  -0.721  -0.681
 -0.680  -0.637  -0.613  -0.601  -0.563  -0.551  -0.543  -0.537
 -0.533  -0.530  -0.511  -0.499  -0.492  -0.486  -0.473  -0.461
 -0.459  -0.447  -0.442  -0.432  -0.428  -0.424  -0.422  -0.420
 -0.415  -0.410  -0.399  -0.390  -0.384  -0.374  -0.363  -0.362
 -0.356  -0.353  -0.348  -0.342  -0.341  -0.327  -0.324  -0.318
 -0.316  -0.313  -0.308  -0.306  -0.304  -0.301  -0.282  -0.279
 -0.269  -0.244  -0.238  -0.236  -0.233  -0.229  -0.219  -0.199
 -0.171  -0.167  -0.166  -0.157  -0.154  -0.152  -0.149  -0.132
 -0.058
 -- Virtual --
  0.084   0.093   0.115   0.130   0.224   0.245   0.263   0.269
  0.277   0.300   0.321   0.324   0.333   0.341   0.346   0.347
  0.361   0.373   0.378   0.381   0.387   0.391   0.393   0.399
  0.400   0.403   0.406   0.407   0.413   0.415   0.419   0.426
  0.431   0.432   0.433   0.439   0.443   0.450   0.453   0.457
  0.463   0.470   0.471   0.476   0.478   0.481   0.491   0.493
  0.499   0.506   0.509   0.518   0.533   0.547   0.553   0.561
  0.566   0.580   0.587   0.670   0.676   0.697   0.711
 --------------------------------------------------------------
 
          Ground-State Mulliken Net Atomic Charges

     Atom                 Charge (a.u.)
  ----------------------------------------
      1 O                    -0.242525
      2 C                     0.234485
      3 C                    -0.079605
      4 C                    -0.084612
      5 C                     0.247944
      6 O                    -0.205330
      7 C                    -0.044557
      8 C                    -0.041068
      9 O                    -0.157424
     10 C                     0.226637
     11 C                    -0.093734
     12 C                    -0.087757
     13 C                     0.207685
     14 O                    -0.194108
     15 O                    -0.210277
     16 O                    -0.222093
     17 O                    -0.212114
     18 C                    -0.099426
     19 C                     0.040024
     20 C                    -0.141841
     21 C                    -0.144489
     22 C                     0.041886
     23 O                    -0.210621
     24 H                     0.083712
     25 H                     0.084384
     26 H                     0.089744
     27 H                     0.075381
     28 H                     0.072925
     29 H                     0.075321
     30 H                     0.071014
     31 H                     0.080640
     32 O                    -0.220125
     33 C                    -0.092776
     34 C                     0.040865
     35 C                    -0.141454
     36 C                    -0.143175
     37 C                     0.038501
     38 O                    -0.209291
     39 H                     0.094324
     40 H                     0.084113
     41 H                     0.087689
     42 H                     0.088769
     43 H                     0.077112
     44 H                     0.074815
     45 H                     0.078510
     46 H                     0.074476
     47 H                     0.081981
     48 H                     0.088021
     49 H                     0.095445
     50 H                     0.092725
     51 H                     0.085122
     52 H                     0.079707
     53 H                     0.110022
     54 H                     0.096121
     55 H                     0.088812
     56 H                     0.089491
  ----------------------------------------
  Sum of atomic charges =     0.000000

 -----------------------------------------------------------------
                    Cartesian Multipole Moments
 -----------------------------------------------------------------
    Charge (ESU x 10^10)
                 0.0000
    Dipole Moment (Debye)
         X       0.8296      Y      -1.6445      Z      -0.8256
       Tot       2.0185
    Quadrupole Moments (Debye-Ang)
        XX    -161.0720     XY      15.7895     YY    -159.0119
        XZ       8.5983     YZ      -4.3365     ZZ    -163.4536
    Octopole Moments (Debye-Ang^2)
       XXX      -8.0282    XXY      40.3642    XYY       2.0477
       YYY     -48.4695    XXZ     -26.6019    XYZ      14.1112
       YYZ       7.2855    XZZ       3.4971    YZZ     -23.8072
       ZZZ      27.0668
    Hexadecapole Moments (Debye-Ang^3)
      XXXX  -11466.1355   XXXY     289.0472   XXYY   -2372.5221
      XYYY     -27.2063   YYYY   -2622.4496   XXXZ      68.9588
      XXYZ     -55.1893   XYYZ     -60.3301   YYYZ      -3.7788
      XXZZ   -2134.8918   XYZZ     -14.1649   YYZZ    -652.2442
      XZZZ     -63.0324   YZZZ      -7.7864   ZZZZ   -1683.1426
 -----------------------------------------------------------------
 Calculating analytic gradient of the SCF energy
 Gradient of SCF Energy
            1           2           3           4           5           6
    1  -0.0837282  -0.0124971  -0.0182063  -0.0338378  -0.0099702  -0.0136601
    2   0.0333582   0.0388929  -0.0055317  -0.0185281  -0.0133950   0.0313132
    3  -0.0237445   0.0109743   0.0299130   0.0349735  -0.0003043  -0.0628887
            7           8           9          10          11          12
    1  -0.0037255  -0.0808200  -0.0972621   0.0141736  -0.0311864   0.0055746
    2   0.0190863  -0.0390104  -0.0956696  -0.0033679   0.0094520   0.0382863
    3   0.0454240  -0.0108394  -0.0209025   0.0210996   0.0485429   0.0261719
           13          14          15          16          17          18
    1   0.0396201   0.1063310   0.0957829  -0.0088941  -0.0038020  -0.0037438
    2   0.0308516   0.0518084  -0.1017846   0.0614159  -0.0693706  -0.0012331
    3  -0.0228428  -0.1114692   0.0169300   0.1075445   0.0053437  -0.0525755
           19          20          21          22          23          24
    1  -0.0082798   0.0204597   0.0184558   0.0142976   0.0422828   0.0046786
    2  -0.0654938  -0.0268296   0.0354017   0.0738460  -0.0163003   0.0036691
    3   0.0263062   0.0411876   0.0274133  -0.0042138  -0.0746878  -0.0039305
           25          26          27          28          29          30
    1  -0.0046421  -0.0003420  -0.0098723   0.0030841  -0.0110905   0.0055842
    2  -0.0096447   0.0046471  -0.0008734   0.0013579   0.0063479  -0.0053682
    3  -0.0037604  -0.0118170   0.0060096  -0.0076568   0.0015649  -0.0035537
           31          32          33          34          35          36
    1   0.0001311   0.0209677  -0.0164538  -0.0537723  -0.0456954  -0.0036319
    2  -0.0098795  -0.0042872   0.0493653   0.0355189  -0.0118355  -0.0475751
    3  -0.0077263   0.0528482  -0.0001389  -0.0222836  -0.0215464   0.0086146
           37          38          39          40          41          42
    1   0.0420842   0.0600659   0.0049770   0.0003811  -0.0011993   0.0129791
    2  -0.0455355   0.0263479   0.0031682   0.0045232   0.0085464   0.0014015
    3   0.0296393  -0.0590900  -0.0040505  -0.0055991   0.0019580  -0.0011645
           43          44          45          46          47          48
    1  -0.0065712   0.0075151   0.0008828   0.0008762   0.0023003  -0.0009597
    2   0.0030669   0.0011031   0.0007957   0.0025578   0.0098342   0.0088342
    3   0.0090544  -0.0030628   0.0125338  -0.0081180  -0.0089763  -0.0002691
           49          50          51          52          53          54
    1   0.0001026   0.0004072  -0.0016586  -0.0018814   0.0239120  -0.0108440
    2  -0.0044996  -0.0008997   0.0010563   0.0011850   0.0023534  -0.0055276
    3  -0.0005549   0.0032425  -0.0093657  -0.0092339   0.0114213   0.0022872
           55          56
    1   0.0188260   0.0114951
    2   0.0027034   0.0003447
    3   0.0042693  -0.0089011
 Max gradient component =       1.115E-01
 RMS gradient           =       3.305E-02
 Gradient time:  CPU 35.52 s  wall 0.77 s
 Geometry Optimization Parameters
   NAtoms,    NIC,     NZ,  NCons,   NDum,   NFix, NCnnct, MaxDiis
       56     471       0       9       0       0       0       0


** CONSTRAINED OPTIMIZATION IN DELOCALIZED INTERNAL COORDINATES **
   Searching for a Minimum

   Optimization Cycle:   1

                       Coordinates (Angstroms)
     ATOM                X               Y               Z
      1  O         4.9892918892   -2.2762340775   -0.4864201318
      2  C         4.0933208322   -1.4481853436   -0.5675212751
      3  C         4.2637466047    0.0454499725   -0.3984018173
      4  C         3.1542281047    0.9476303241   -0.9631036617
      5  C         1.9135862411    0.2503655345   -1.4756712129
      6  O         1.2544009906   -0.3457338903   -0.4385742281
      7  C        -0.1029128513    0.0903411385   -0.3090389855
      8  C        -0.4770203524    0.2137039028    1.1643722960
      9  O        -1.6380071035    1.0472700233    1.3063900082
     10  C        -2.0296121204    1.6979948227    0.1828611864
     11  C        -2.9234983756    0.8607475301   -0.7006751556
     12  C        -3.0357365387   -0.6159086737   -0.2942604105
     13  C        -2.5478251253   -0.9565699076    1.0995131865
     14  O        -2.5463537414   -0.1949916048    2.0558449503
     15  O         2.9277613998   -1.9876311264   -1.0064165102
     16  O        -2.2788356564   -2.2752783509    1.3079813367
     17  O        -1.8931568089    2.9043509902    0.0497198167
     18  C        -2.0474976831   -2.8482506000    2.5425022575
     19  C        -4.3921610348    1.3103235306   -0.6507286047
     20  C        -5.1216219819    0.8244056476   -1.9023401913
     21  C        -5.2076314015   -0.6599659772   -1.6171500204
     22  C        -4.5779296995   -0.7088275791   -0.2202201303
     23  O        -4.9539742448    0.5164860518    0.3605272387
     24  H        -2.5304804165    0.9669690550   -1.7366251654
     25  H        -2.6851418677   -1.3687604219   -1.0346226367
     26  H        -4.5114970264    2.4098128434   -0.5354999876
     27  H        -6.1498971215    1.2511118555   -1.8782782312
     28  H        -4.6321105511    1.0958556144   -2.8624314474
     29  H        -6.2823845565   -0.9430884867   -1.5599287942
     30  H        -4.6804958281   -1.3172080893   -2.3419792322
     31  H        -4.9205541784   -1.6213572391    0.3178738183
     32  O         1.4476935667    0.4001738719   -2.5977652553
     33  C         2.6818756746   -3.3288226662   -1.2313635123
     34  C         4.2832377366    0.4920408992    1.0717870015
     35  C         5.0154864262    1.8280034207    1.1980322063
     36  C         3.9997388868    2.7690396194    0.5792942797
     37  C         2.8532537236    1.7942130580    0.2908915787
     38  O         2.9504053619    0.8546627596    1.3373165543
     39  H         5.2342039555    0.2864460450   -0.8887031088
     40  H         3.5300788692    1.5783511624   -1.7999463350
     41  H         2.8150748845   -3.9042109519   -0.2904342502
     42  H         4.7328442360   -0.2652711125    1.7506232737
     43  H         5.0987601330    2.0623406998    2.2834413116
     44  H         6.0269257498    1.8511935699    0.7382445033
     45  H         3.6863309893    3.5046721784    1.3532614179
     46  H         4.3395467894    3.3026939085   -0.3344950271
     47  H         1.8891975715    2.3419987444    0.2062667556
     48  H         3.3668196165   -3.7193226600   -2.0138621453
     49  H         1.6357233591   -3.4516724827   -1.5793557690
     50  H        -1.8607388846   -3.9333679576    2.4085029581
     51  H        -2.9372853127   -2.7175416322    3.1943737385
     52  H        -1.1605404656   -2.3961054385    3.0315516016
     53  H        -0.3211384158   -0.7030877759    1.7780766847
     54  H         0.3268283622    0.8343266639    1.6111949631
     55  H        -0.6812366211   -0.6763425879   -0.8322391872
     56  H        -0.1728008928    1.0405953984   -0.8865140358
   Point Group: c1    Number of degrees of freedom:   162


   Energy is  -1509.964421873

              Constraints and their Current Values
                                        Value     Constraint
   Dihedral:        1   2   3   4      161.052      161.053
   Dihedral:        3   4   5   6       66.316       66.316
   Dihedral:        4   5   6   7      123.158      123.158
   Dihedral:        5   6   7   8     -142.106     -142.105
   Dihedral:        6   7   8   9      161.053      161.053
   Dihedral:        7   8   9  10       -9.473       -9.474
   Dihedral:        8   9  10  11       85.263       85.263
   Dihedral:        9  10  11  12       -9.474       -9.474
   Dihedral:       11  12  13  14       28.421       28.421

 Attempting to Generate Delocalized Internal Coordinates

   Using Lagrange Multiplier Algorithm


169 Hessian modes will be used to form the next step
  Hessian Eigenvalues:
    -0.977753   -0.977753   -0.977753   -0.977753   -0.977753   -0.977753
    -0.977753   -0.977753    0.045000    0.045000    0.045000    0.045000
     0.045277    0.045351    0.045555    0.045675    0.045794    0.046731
     0.048848    0.051997    0.052149    0.059937    0.060295    0.062244
     0.063380    0.064850    0.066280    0.066950    0.067915    0.067972
     0.070634    0.072795    0.074060    0.075071    0.075874    0.076344
     0.077294    0.078863    0.080149    0.081968    0.082413    0.083626
     0.083878    0.083967    0.084040    0.085122    0.085191    0.086470
     0.086687    0.088255    0.088353    0.089077    0.089317    0.089587
     0.089833    0.093586    0.093608    0.095739    0.096596    0.096670
     0.101971    0.111405    0.111642    0.112534    0.114064    0.114585
     0.115855    0.116002    0.117873    0.118783    0.119122    0.121909
     0.124910    0.127803    0.129940    0.132359    0.141577    0.147002
     0.154943    0.160000    0.160000    0.160000    0.160000    0.160000
     0.160000    0.168675    0.172166    0.173527    0.173556    0.180067
     0.215753    0.217135    0.219959    0.235384    0.241164    0.241590
     0.245065    0.247810    0.248935    0.250000    0.250000    0.250000
     0.250000    0.250000    0.250101    0.258319    0.266948    0.267436
     0.277114    0.277643    0.283589    0.285615    0.295099    0.295295
     0.297385    0.298749    0.306663    0.310698    0.310861    0.321595
     0.321639    0.322145    0.322264    0.322285    0.322433    0.322559
     0.322765    0.322958    0.323015    0.323282    0.323849    0.323919
     0.323962    0.324495    0.324519    0.324583    0.324645    0.325019
     0.325123    0.325218    0.326527    0.326705    0.326854    0.326862
     0.343978    0.367409    0.369933    0.382130    0.382159    0.401005
     0.407721    0.487430    0.490060    0.507286    0.517908    0.525628
     0.535049    0.871087    0.935590    0.941950    0.947973    1.022753
     1.022753    1.022753    1.022753    1.022753    1.022753    1.022753
     1.022753

 Minimum Search - Taking P-RFO Step
 Searching for Lamda that Maximizes Along the Constraint modes Only
 Value Taken    Lamda =   0.02316378
 Searching for Lamda that Minimizes Along All other modes
 Value Taken    Lamda =  -0.28973924
 Calculated Step too Large.  Step scaled by  0.433002
 Step Taken.  Stepsize is  0.300000

                             Maximum     Tolerance    Cnvgd?
         Gradient            0.143463       0.000300      NO
         Displacement        0.126287       0.001200      NO
         Energy change     *********       0.000001      NO


 New Cartesian Coordinates Obtained by Inverse Iteration

 Displacement from previous Coordinates is:  1.737482
 Adding empirical dispersion correction 
 ----------------------------------------------------------------
 Doing -D3(op) with
 s6 =   1.00000
 s8 =   0.78311
 a1 =   0.30000
 a2 =   4.25000
 n  =  10.00000
 -D3 energy without 3body term =     -0.0739949190 hartrees
 ----------------------------------------------------------------
             Standard Nuclear Orientation (Angstroms)
    I     Atom           X                Y                Z
 ----------------------------------------------------------------
    1      O       5.1234464321    -2.2993863668    -0.3406033429
    2      C       4.2006347509    -1.4849561390    -0.4794816350
    3      C       4.3529752713     0.0268812802    -0.3554880171
    4      C       3.2443568626     0.9116434335    -0.9861958205
    5      C       1.9996399907     0.1907558920    -1.5069584122
    6      O       1.3006094665    -0.3750508539    -0.4542217469
    7      C      -0.0741209224     0.0704004955    -0.3685766240
    8      C      -0.4583896956     0.2334729424     1.1120227784
    9      O      -1.6327262217     1.0776737067     1.3062225791
   10      C      -2.0778868269     1.7494416354     0.1927755242
   11      C      -3.0152985314     0.9067520398    -0.6854164488
   12      C      -3.1172103491    -0.6023397893    -0.3211955722
   13      C      -2.5976867801    -0.9967575685     1.0644058768
   14      O      -2.5828512584    -0.2536466686     2.0608089978
   15      O       3.0176476645    -2.0062369192    -0.9418586679
   16      O      -2.3204593234    -2.3407488859     1.1878718988
   17      O      -1.9573166746     2.9720239522     0.0744371227
   18      C      -2.0646541687    -2.9421480881     2.4245236134
   19      C      -4.4993247506     1.3497057364    -0.5775325799
   20      C      -5.2669491868     0.8918188082    -1.8354862027
   21      C      -5.3403838260    -0.6161979849    -1.5933583806
   22      C      -4.6705177106    -0.7089523283    -0.2027726247
   23      O      -5.0384762888     0.5113069589     0.4393267049
   24      H      -2.6535213570     1.0428460849    -1.7269656922
   25      H      -2.7826446021    -1.3230498947    -1.0959188274
   26      H      -4.6187399794     2.4431084561    -0.4233146902
   27      H      -6.2924673746     1.3127665109    -1.7746205450
   28      H      -4.8037769343     1.1948786092    -2.7956086875
   29      H      -6.4075658613    -0.9102114275    -1.5186778288
   30      H      -4.8303399313    -1.2442510137    -2.3509058033
   31      H      -4.9932291073    -1.6374814775     0.3165856305
   32      O       1.5583520693     0.3014953752    -2.6549043334
   33      C       2.7969324880    -3.3745696605    -1.1309908008
   34      C       4.3286097713     0.5286092820     1.1129556057
   35      C       5.0593597352     1.8843962637     1.2046537800
   36      C       4.0458398372     2.8053167977     0.5177628171
   37      C       2.8980831534     1.8080089579     0.2376110209
   38      O       2.9685948532     0.8965904038     1.3348492839
   39      H       5.3332226902     0.2548618408    -0.8263706873
   40      H       3.6411802126     1.5122048535    -1.8320624952
   41      H       2.9090369717    -3.9269278192    -0.1723971062
   42      H       4.7588276962    -0.2020159806     1.8303243597
   43      H       5.1185225667     2.1603928819     2.2783462771
   44      H       6.0786743556     1.8925051248     0.7697372472
   45      H       3.7105908493     3.5696898205     1.2487033070
   46      H       4.4064340103     3.3021368895    -0.4050781546
   47      H       1.9336861396     2.3438685679     0.1091901271
   48      H       3.5051798432    -3.7894898974    -1.8813760264
   49      H       1.7616244050    -3.5152894102    -1.5031327135
   50      H      -1.8756120555    -4.0223043711     2.2590405071
   51      H      -2.9409523646    -2.8344832676     3.1009853508
   52      H      -1.1715005621    -2.5014062135     2.9169825086
   53      H      -0.3126177609    -0.6863285689     1.7184336342
   54      H       0.3567572038     0.8527945826     1.5493532723
   55      H      -0.6641993469    -0.7035380646    -0.8783209408
   56      H      -0.1371144414     1.0092546787    -0.9622399496
 ----------------------------------------------------------------
 Molecular Point Group                 C1    NOp =  1
 Largest Abelian Subgroup              C1    NOp =  1
 Nuclear Repulsion Energy =  3301.5947301964 hartrees
 There are      113 alpha and      113 beta electrons
 Applying Cartesian multipole field
    Component          Value
    ---------          -----
     (2,0,0)        1.00000E-12
     (0,2,0)        2.00000E-11
     (0,0,2)       -3.00000E-11
 Nucleus-field energy     =     0.0000000161 hartrees
 Requested basis set is STO-3G
 There are 86 shells and 176 basis functions
 A cutoff of  1.0D-12 yielded   2345 shell pairs
 There are     11177 function pairs
 Smallest overlap matrix eigenvalue = 1.99E-01
 Guess MOs from SCF MO coefficient file
 Reading MOs from coefficient file
 Reading MOs from coefficient file
 A restricted hybrid HF-DFT SCF calculation will be
 performed using Pulay DIIS extrapolation
 Exchange:     0.2000 Hartree-Fock + 0.0800 Slater + 0.7200 B88
 Correlation:  0.1900 VWN1RPA + 0.8100 LYP
 Using SG-1 standard quadrature grid
 Dispersion:   Grimme D3
 SCF converges when DIIS error is below 1.0E-08
 Geometry optimization detected.  Setting ReadMinima to 0
 Setting SaveMinima to 0
 using 48 threads for integral computing
 -------------------------------------------------------
 OpenMP Integral computing Module                
 Release: version 1.0, May 2013, Q-Chem Inc. Pittsburgh 
 -------------------------------------------------------
 -------------------------------------------------------
 OpenMP BLAS3 based DFT computing Module                
 Release: version 1.0, May 2013, Q-Chem Inc. Pittsburgh 
 -------------------------------------------------------
 ---------------------------------------
  Cycle       Energy         DIIS Error
 ---------------------------------------
    1   -1509.9016856481      3.63E-03
    2   -1510.0599732356      6.63E-04
    3   -1510.0558879951      1.20E-03
    4   -1510.0618627783      2.21E-04
    5   -1510.0620817597      5.05E-05
    6   -1510.0620903443      2.78E-05
    7   -1510.0620932522      1.22E-05
    8   -1510.0620939214      2.27E-06
    9   -1510.0620939341      2.01E-06
   10   -1510.0620939517      2.52E-07
   11   -1510.0620939522      1.33E-07
   12   -1510.0620939523      3.38E-08
   13   -1510.0620939525      1.60E-08
   14   -1510.0620939524      6.01E-09 Convergence criterion met
 ---------------------------------------
 SCF time:  CPU 108.02 s  wall 2.26 s
 SCF   energy in the final basis set = -1510.06209395
 Total energy in the final basis set = -1510.06209395
 
 --------------------------------------------------------------
 
                    Orbital Energies (a.u.)
 --------------------------------------------------------------
 
 Alpha MOs
 -- Occupied --
-18.935 -18.927 -18.925 -18.911 -18.905 -18.898 -18.880 -18.877
-18.860 -18.853 -10.111 -10.109 -10.106 -10.086 -10.082 -10.081
-10.080 -10.079 -10.074 -10.072 -10.066 -10.064 -10.048 -10.038
-10.038 -10.033 -10.022 -10.021 -10.016 -10.015  -1.047  -1.039
 -1.025  -1.018  -1.014  -1.010  -0.964  -0.947  -0.937  -0.922
 -0.782  -0.775  -0.743  -0.736  -0.728  -0.721  -0.715  -0.678
 -0.676  -0.629  -0.609  -0.598  -0.559  -0.548  -0.541  -0.536
 -0.529  -0.524  -0.504  -0.493  -0.482  -0.482  -0.467  -0.456
 -0.452  -0.443  -0.437  -0.425  -0.424  -0.421  -0.417  -0.414
 -0.411  -0.404  -0.394  -0.384  -0.379  -0.368  -0.360  -0.358
 -0.353  -0.348  -0.345  -0.341  -0.339  -0.328  -0.323  -0.317
 -0.315  -0.312  -0.307  -0.303  -0.303  -0.299  -0.280  -0.279
 -0.267  -0.243  -0.238  -0.233  -0.233  -0.229  -0.224  -0.197
 -0.172  -0.167  -0.164  -0.156  -0.153  -0.151  -0.150  -0.137
 -0.072
 -- Virtual --
  0.080   0.090   0.109   0.121   0.217   0.243   0.259   0.264
  0.269   0.297   0.312   0.312   0.330   0.337   0.339   0.345
  0.354   0.366   0.372   0.375   0.377   0.383   0.384   0.390
  0.393   0.395   0.401   0.403   0.405   0.408   0.411   0.419
  0.422   0.425   0.427   0.431   0.431   0.438   0.442   0.452
  0.456   0.461   0.465   0.468   0.470   0.475   0.483   0.487
  0.488   0.493   0.499   0.509   0.516   0.529   0.537   0.554
  0.554   0.567   0.569   0.648   0.651   0.676   0.684
 --------------------------------------------------------------
 
          Ground-State Mulliken Net Atomic Charges

     Atom                 Charge (a.u.)
  ----------------------------------------
      1 O                    -0.234754
      2 C                     0.225221
      3 C                    -0.079204
      4 C                    -0.083119
      5 C                     0.240217
      6 O                    -0.200295
      7 C                    -0.045762
      8 C                    -0.044810
      9 O                    -0.161402
     10 C                     0.223941
     11 C                    -0.090476
     12 C                    -0.086129
     13 C                     0.202455
     14 O                    -0.193425
     15 O                    -0.199518
     16 O                    -0.211744
     17 O                    -0.203101
     18 C                    -0.104557
     19 C                     0.036386
     20 C                    -0.142375
     21 C                    -0.144982
     22 C                     0.037726
     23 O                    -0.202812
     24 H                     0.082664
     25 H                     0.084118
     26 H                     0.089482
     27 H                     0.075983
     28 H                     0.073377
     29 H                     0.075782
     30 H                     0.071787
     31 H                     0.081056
     32 O                    -0.215870
     33 C                    -0.098705
     34 C                     0.037334
     35 C                    -0.142106
     36 C                    -0.143745
     37 C                     0.035314
     38 O                    -0.202286
     39 H                     0.093032
     40 H                     0.084254
     41 H                     0.088163
     42 H                     0.088275
     43 H                     0.077371
     44 H                     0.075192
     45 H                     0.078682
     46 H                     0.074651
     47 H                     0.081747
     48 H                     0.088416
     49 H                     0.096195
     50 H                     0.092513
     51 H                     0.085856
     52 H                     0.081484
     53 H                     0.105824
     54 H                     0.094416
     55 H                     0.086248
     56 H                     0.086019
  ----------------------------------------
  Sum of atomic charges =     0.000000

 -----------------------------------------------------------------
                    Cartesian Multipole Moments
 -----------------------------------------------------------------
    Charge (ESU x 10^10)
                 0.0000
    Dipole Moment (Debye)
         X       0.7649      Y      -1.6916      Z      -1.1398
       Tot       2.1784
    Quadrupole Moments (Debye-Ang)
        XX    -160.0203     XY      15.4818     YY    -157.8007
        XZ       8.8764     YZ      -4.7292     ZZ    -164.2183
    Octopole Moments (Debye-Ang^2)
       XXX     -14.7472    XXY      41.2898    XYY       2.3521
       YYY     -50.9759    XXZ     -32.1248    XYZ      16.2191
       YYZ       6.3962    XZZ       3.2568    YZZ     -22.5544
       ZZZ      25.0672
    Hexadecapole Moments (Debye-Ang^3)
      XXXX  -11938.3405   XXXY     326.1091   XXYY   -2457.9408
      XYYY      -3.3691   YYYY   -2706.8081   XXXZ      59.7627
      XXYZ     -42.8323   XYYZ     -70.7885   YYYZ       1.4801
      XXZZ   -2206.8795   XYZZ      -5.7119   YYZZ    -657.6183
      XZZZ     -58.2876   YZZZ      -4.2849   ZZZZ   -1631.4630
 -----------------------------------------------------------------
 Calculating analytic gradient of the SCF energy
 Gradient of SCF Energy
            1           2           3           4           5           6
    1  -0.0451599  -0.0227535  -0.0103849  -0.0264986  -0.0014084  -0.0082399
    2   0.0144318   0.0427706  -0.0049987  -0.0097009  -0.0135216   0.0207949
    3  -0.0185739   0.0083470   0.0221854   0.0241344   0.0045457  -0.0514618
            7           8           9          10          11          12
    1  -0.0022527  -0.0640942  -0.0786089   0.0133230  -0.0261613   0.0073202
    2   0.0155496  -0.0420128  -0.0628541  -0.0048311   0.0085570   0.0245233
    3   0.0379312  -0.0078642  -0.0166355   0.0166116   0.0351086   0.0172115
           13          14          15          16          17          18
    1   0.0293208   0.0761558   0.0685573  -0.0047953  -0.0016595  -0.0041170
    2   0.0043029   0.0595582  -0.0819251   0.0419803  -0.0395849  -0.0012418
    3  -0.0395741  -0.0607269   0.0152406   0.0885915   0.0027299  -0.0452562
           19          20          21          22          23          24
    1  -0.0064098   0.0158206   0.0134606   0.0102730   0.0282006   0.0043208
    2  -0.0473638  -0.0194726   0.0224677   0.0536966  -0.0098100   0.0038566
    3   0.0206376   0.0269953   0.0189800   0.0017823  -0.0537738  -0.0018754
           25          26          27          28          29          30
    1  -0.0057033   0.0000734  -0.0072098   0.0013754  -0.0082220   0.0036377
    2  -0.0079064   0.0040794  -0.0013825   0.0014716   0.0056264  -0.0041930
    3  -0.0023903  -0.0114559   0.0052469  -0.0056323   0.0016892  -0.0025779
           31          32          33          34          35          36
    1   0.0002265   0.0116593  -0.0150111  -0.0411212  -0.0300631  -0.0028246
    2  -0.0085669  -0.0004206   0.0425819   0.0233825  -0.0098818  -0.0317185
    3  -0.0082198   0.0328345  -0.0018251  -0.0167212  -0.0165010   0.0061384
           37          38          39          40          41          42
    1   0.0276823   0.0441229   0.0034379   0.0002643  -0.0011340   0.0120342
    2  -0.0333889   0.0178768   0.0012182   0.0033104   0.0055253   0.0017328
    3   0.0257983  -0.0418511  -0.0035325  -0.0040740   0.0019311  -0.0014389
           43          44          45          46          47          48
    1  -0.0058857   0.0057252   0.0008200   0.0002206   0.0028952  -0.0004135
    2   0.0023704   0.0010926   0.0002197   0.0017626   0.0085896   0.0057772
    3   0.0063145  -0.0012274   0.0098183  -0.0058866  -0.0087880  -0.0012007
           49          50          51          52          53          54
    1  -0.0003216   0.0005838  -0.0022183  -0.0005504   0.0234503  -0.0080559
    2  -0.0043747  -0.0013909   0.0005934   0.0008319   0.0031429  -0.0033581
    3  -0.0005335   0.0032977  -0.0058269  -0.0057628   0.0080348   0.0034250
           55          56
    1   0.0148967   0.0114199
    2   0.0016757  -0.0014509
    3   0.0028009  -0.0071747
 Max gradient component =       8.859E-02
 RMS gradient           =       2.456E-02
 Gradient time:  CPU 31.77 s  wall 0.67 s
 Geometry Optimization Parameters
   NAtoms,    NIC,     NZ,  NCons,   NDum,   NFix, NCnnct, MaxDiis
       56     471       0       9       0       0       0       0

 Cartesian Hessian Update
 Hessian Updated using BFGS Update


** CONSTRAINED OPTIMIZATION IN DELOCALIZED INTERNAL COORDINATES **
   Searching for a Minimum

   Optimization Cycle:   2

                       Coordinates (Angstroms)
     ATOM                X               Y               Z
      1  O         5.1234464321   -2.2993863668   -0.3406033429
      2  C         4.2006347509   -1.4849561390   -0.4794816350
      3  C         4.3529752713    0.0268812802   -0.3554880171
      4  C         3.2443568626    0.9116434335   -0.9861958205
      5  C         1.9996399907    0.1907558920   -1.5069584122
      6  O         1.3006094665   -0.3750508539   -0.4542217469
      7  C        -0.0741209224    0.0704004955   -0.3685766240
      8  C        -0.4583896956    0.2334729424    1.1120227784
      9  O        -1.6327262217    1.0776737067    1.3062225791
     10  C        -2.0778868269    1.7494416354    0.1927755242
     11  C        -3.0152985314    0.9067520398   -0.6854164488
     12  C        -3.1172103491   -0.6023397893   -0.3211955722
     13  C        -2.5976867801   -0.9967575685    1.0644058768
     14  O        -2.5828512584   -0.2536466686    2.0608089978
     15  O         3.0176476645   -2.0062369192   -0.9418586679
     16  O        -2.3204593234   -2.3407488859    1.1878718988
     17  O        -1.9573166746    2.9720239522    0.0744371227
     18  C        -2.0646541687   -2.9421480881    2.4245236134
     19  C        -4.4993247506    1.3497057364   -0.5775325799
     20  C        -5.2669491868    0.8918188082   -1.8354862027
     21  C        -5.3403838260   -0.6161979849   -1.5933583806
     22  C        -4.6705177106   -0.7089523283   -0.2027726247
     23  O        -5.0384762888    0.5113069589    0.4393267049
     24  H        -2.6535213570    1.0428460849   -1.7269656922
     25  H        -2.7826446021   -1.3230498947   -1.0959188274
     26  H        -4.6187399794    2.4431084561   -0.4233146902
     27  H        -6.2924673746    1.3127665109   -1.7746205450
     28  H        -4.8037769343    1.1948786092   -2.7956086875
     29  H        -6.4075658613   -0.9102114275   -1.5186778288
     30  H        -4.8303399313   -1.2442510137   -2.3509058033
     31  H        -4.9932291073   -1.6374814775    0.3165856305
     32  O         1.5583520693    0.3014953752   -2.6549043334
     33  C         2.7969324880   -3.3745696605   -1.1309908008
     34  C         4.3286097713    0.5286092820    1.1129556057
     35  C         5.0593597352    1.8843962637    1.2046537800
     36  C         4.0458398372    2.8053167977    0.5177628171
     37  C         2.8980831534    1.8080089579    0.2376110209
     38  O         2.9685948532    0.8965904038    1.3348492839
     39  H         5.3332226902    0.2548618408   -0.8263706873
     40  H         3.6411802126    1.5122048535   -1.8320624952
     41  H         2.9090369717   -3.9269278192   -0.1723971062
     42  H         4.7588276962   -0.2020159806    1.8303243597
     43  H         5.1185225667    2.1603928819    2.2783462771
     44  H         6.0786743556    1.8925051248    0.7697372472
     45  H         3.7105908493    3.5696898205    1.2487033070
     46  H         4.4064340103    3.3021368895   -0.4050781546
     47  H         1.9336861396    2.3438685679    0.1091901271
     48  H         3.5051798432   -3.7894898974   -1.8813760264
     49  H         1.7616244050   -3.5152894102   -1.5031327135
     50  H        -1.8756120555   -4.0223043711    2.2590405071
     51  H        -2.9409523646   -2.8344832676    3.1009853508
     52  H        -1.1715005621   -2.5014062135    2.9169825086
     53  H        -0.3126177609   -0.6863285689    1.7184336342
     54  H         0.3567572038    0.8527945826    1.5493532723
     55  H        -0.6641993469   -0.7035380646   -0.8783209408
     56  H        -0.1371144414    1.0092546787   -0.9622399496
   Point Group: c1    Number of degrees of freedom:   162


   Energy is  -1510.062093952

              Constraints and their Current Values
                                        Value     Constraint
   Dihedral:        1   2   3   4      161.023      161.053
   Dihedral:        3   4   5   6       66.316       66.316
   Dihedral:        4   5   6   7      123.102      123.158
   Dihedral:        5   6   7   8     -142.142     -142.105
   Dihedral:        6   7   8   9      160.966      161.053
   Dihedral:        7   8   9  10       -9.627       -9.474
   Dihedral:        8   9  10  11       84.915       85.263
   Dihedral:        9  10  11  12       -9.825       -9.474
   Dihedral:       11  12  13  14       28.486       28.421
 Hessian Updated using BFGS Update

   Using Lagrange Multiplier Algorithm


160 Hessian modes will be used to form the next step
  Hessian Eigenvalues:
    -0.977753   -0.977753   -0.977753   -0.977753   -0.977753   -0.977753
    -0.977753   -0.954241    0.044992    0.045000    0.045277    0.045363
     0.045552    0.045673    0.045809    0.046731    0.048844    0.051974
     0.052115    0.059911    0.060273    0.062247    0.063368    0.064806
     0.066280    0.066946    0.067916    0.067972    0.070638    0.072774
     0.074034    0.074900    0.075871    0.076334    0.077291    0.078861
     0.080124    0.081959    0.082415    0.083626    0.083766    0.083980
     0.084039    0.085162    0.085192    0.086494    0.086688    0.088251
     0.088352    0.089076    0.089324    0.089596    0.089834    0.093580
     0.093611    0.095890    0.096596    0.096712    0.102042    0.111407
     0.111647    0.112796    0.114071    0.114588    0.115854    0.116002
     0.117869    0.118662    0.119117    0.121910    0.125010    0.127495
     0.129949    0.132355    0.141613    0.147501    0.157020    0.159800
     0.160468    0.169174    0.172146    0.173553    0.179704    0.185036
     0.210490    0.219197    0.225867    0.235559    0.238694    0.241406
     0.241680    0.245074    0.248210    0.249359    0.250052    0.257881
     0.266323    0.267159    0.267798    0.277369    0.279876    0.284024
     0.287464    0.295162    0.296610    0.297276    0.300439    0.309742
     0.310640    0.320453    0.321609    0.321889    0.322177    0.322274
     0.322418    0.322497    0.322649    0.322848    0.322990    0.323204
     0.323805    0.323878    0.323941    0.324075    0.324507    0.324549
     0.324619    0.324748    0.325063    0.325170    0.326155    0.326668
     0.326768    0.326850    0.331585    0.343977    0.367422    0.369973
     0.380851    0.382761    0.406548    0.443450    0.475089    0.488955
     0.507450    0.516985    0.525770    0.537459    0.890652    0.930533
     0.943285    0.946137    1.022753    1.022753    1.022753    1.022753
     1.022753    1.022753    1.022753    1.145699

 Minimum Search - Taking P-RFO Step
 Searching for Lamda that Maximizes Along the Constraint modes Only
 Value Taken    Lamda =   0.00241246
 Searching for Lamda that Minimizes Along All other modes
 Value Taken    Lamda =  -0.15379305
 Calculated Step too Large.  Step scaled by  0.503571
 Step Taken.  Stepsize is  0.300000

                             Maximum     Tolerance    Cnvgd?
         Gradient            0.086785       0.000300      NO
         Displacement        0.081821       0.001200      NO
         Energy change     -0.097672       0.000001      NO


 New Cartesian Coordinates Obtained by Inverse Iteration

 Displacement from previous Coordinates is:  1.180659
 Adding empirical dispersion correction 
 ----------------------------------------------------------------
 Doing -D3(op) with
 s6 =   1.00000
 s8 =   0.78311
 a1 =   0.30000
 a2 =   4.25000
 n  =  10.00000
 -D3 energy without 3body term =     -0.0734290541 hartrees
 ----------------------------------------------------------------
             Standard Nuclear Orientation (Angstroms)
    I     Atom           X                Y                Z
 ----------------------------------------------------------------
    1      O       5.2359217261    -2.2879313883    -0.3455363834
    2      C       4.2914463306    -1.4883363903    -0.4901097717
    3      C       4.4090976007     0.0399712607    -0.3660253198
    4      C       3.2770573326     0.9095203498    -1.0059533007
    5      C       2.0227567095     0.1681946055    -1.5211254544
    6      O       1.3193608201    -0.4035274502    -0.4497670860
    7      C      -0.0680622325     0.0470273747    -0.3800707121
    8      C      -0.4287277325     0.2146680039     1.1144650706
    9      O      -1.6034897095     1.0613452487     1.3454712726
   10      C      -2.0600976086     1.7285311808     0.2110980936
   11      C      -3.0305496541     0.8902169356    -0.6695690852
   12      C      -3.1806527921    -0.6278062503    -0.3074273928
   13      C      -2.6819459743    -1.0480502408     1.0928905747
   14      O      -2.6481991199    -0.3163562931     2.1012448716
   15      O       3.0908441850    -1.9918714461    -0.9646137730
   16      O      -2.4375933433    -2.4168095265     1.1719499182
   17      O      -1.9243658503     2.9555090064     0.0754047989
   18      C      -2.2000837597    -2.9804828811     2.4549291942
   19      C      -4.5138091089     1.3799934988    -0.5623293663
   20      C      -5.2887483068     0.9418140227    -1.8384306336
   21      C      -5.4069137221    -0.5777525305    -1.6001859731
   22      C      -4.7501129903    -0.6962252505    -0.1924845508
   23      O      -5.0912885884     0.5457221876     0.4639967248
   24      H      -2.6647553513     1.0157972620    -1.7094470558
   25      H      -2.8561187853    -1.3475507596    -1.0840130269
   26      H      -4.6017150898     2.4737484703    -0.3984359295
   27      H      -6.2988817392     1.3918786707    -1.7906599665
   28      H      -4.8065521927     1.2338729064    -2.7891792434
   29      H      -6.4776287615    -0.8485447720    -1.5385042211
   30      H      -4.9064405441    -1.2130251240    -2.3537407248
   31      H      -5.0992783328    -1.6123528739     0.3279134452
   32      O       1.5743438847     0.2650641233    -2.6759360267
   33      C       2.9469600034    -3.3943348619    -1.1433232429
   34      C       4.3706316466     0.5493895591     1.1146330638
   35      C       5.0848126021     1.9292055120     1.1930018657
   36      C       4.0472911837     2.8353686912     0.4923731979
   37      C       2.9044140257     1.8116149414     0.2206665589
   38      O       2.9853017335     0.8968541753     1.3383334368
   39      H       5.3846347296     0.2837387909    -0.8331940021
   40      H       3.6662736560     1.5103857106    -1.8517307964
   41      H       3.0807235473    -3.9381810966    -0.1828927654
   42      H       4.8040652001    -0.1723342908     1.8369669066
   43      H       5.1458203839     2.2159123738     2.2604173901
   44      H       6.0998395952     1.9467407629     0.7556589180
   45      H       3.7001581045     3.6026252199     1.2097471325
   46      H       4.4000565507     3.3263337562    -0.4331866795
   47      H       1.9287892314     2.3235424067     0.0921033522
   48      H       3.6782930956    -3.7845975338    -1.8847344082
   49      H       1.9216060168    -3.5808215794    -1.5196458728
   50      H      -2.0316583754    -4.0674093256     2.3213149877
   51      H      -3.0749403591    -2.8338915551     3.1256315775
   52      H      -1.3025705251    -2.5412742356     2.9418543338
   53      H      -0.3043209245    -0.7121805224     1.7113750290
   54      H       0.4053962662     0.8236702654     1.5368404692
   55      H      -0.6839124326    -0.7201448936    -0.8818218001
   56      H      -0.1421971582     0.9933700025    -0.9603291510
 ----------------------------------------------------------------
 Molecular Point Group                 C1    NOp =  1
 Largest Abelian Subgroup              C1    NOp =  1
 Nuclear Repulsion Energy =  3269.8310704221 hartrees
 There are      113 alpha and      113 beta electrons
 Applying Cartesian multipole field
    Component          Value
    ---------          -----
     (2,0,0)        1.00000E-12
     (0,2,0)        2.00000E-11
     (0,0,2)       -3.00000E-11
 Nucleus-field energy     =     0.0000000164 hartrees
 Requested basis set is STO-3G
 There are 86 shells and 176 basis functions
 A cutoff of  1.0D-12 yielded   2309 shell pairs
 There are     10976 function pairs
 Smallest overlap matrix eigenvalue = 2.04E-01
 Guess MOs from SCF MO coefficient file
 Reading MOs from coefficient file
 Reading MOs from coefficient file
 A restricted hybrid HF-DFT SCF calculation will be
 performed using Pulay DIIS extrapolation
 Exchange:     0.2000 Hartree-Fock + 0.0800 Slater + 0.7200 B88
 Correlation:  0.1900 VWN1RPA + 0.8100 LYP
 Using SG-1 standard quadrature grid
 Dispersion:   Grimme D3
 SCF converges when DIIS error is below 1.0E-08
 Geometry optimization detected.  Setting ReadMinima to 0
 Setting SaveMinima to 0
 using 48 threads for integral computing
 -------------------------------------------------------
 OpenMP Integral computing Module                
 Release: version 1.0, May 2013, Q-Chem Inc. Pittsburgh 
 -------------------------------------------------------
 -------------------------------------------------------
 OpenMP BLAS3 based DFT computing Module                
 Release: version 1.0, May 2013, Q-Chem Inc. Pittsburgh 
 -------------------------------------------------------
 ---------------------------------------
  Cycle       Energy         DIIS Error
 ---------------------------------------
    1   -1510.0026454652      2.64E-03
    2   -1510.1268647725      6.29E-04
    3   -1510.1229916388      1.16E-03
    4   -1510.1285645937      2.07E-04
    5   -1510.1287543161      4.62E-05
    6   -1510.1287611216      2.71E-05
    7   -1510.1287640730      1.12E-05
    8   -1510.1287646339      2.17E-06
    9   -1510.1287646458      1.99E-06
   10   -1510.1287646631      2.93E-07
   11   -1510.1287646636      9.79E-08
   12   -1510.1287646637      3.02E-08
   13   -1510.1287646638      1.91E-08
   14   -1510.1287646638      5.39E-09 Convergence criterion met
 ---------------------------------------
 SCF time:  CPU 107.16 s  wall 2.24 s
 SCF   energy in the final basis set = -1510.12876466
 Total energy in the final basis set = -1510.12876466
 
 --------------------------------------------------------------
 
                    Orbital Energies (a.u.)
 --------------------------------------------------------------
 
 Alpha MOs
 -- Occupied --
-18.940 -18.928 -18.920 -18.910 -18.903 -18.897 -18.885 -18.877
-18.862 -18.858 -10.107 -10.106 -10.106 -10.087 -10.079 -10.078
-10.076 -10.074 -10.071 -10.070 -10.065 -10.063 -10.047 -10.039
-10.038 -10.034 -10.022 -10.021 -10.018 -10.016  -1.035  -1.033
 -1.017  -1.012  -1.001  -0.997  -0.958  -0.941  -0.936  -0.922
 -0.777  -0.771  -0.738  -0.731  -0.723  -0.716  -0.711  -0.674
 -0.671  -0.623  -0.606  -0.595  -0.556  -0.546  -0.540  -0.535
 -0.526  -0.520  -0.499  -0.487  -0.477  -0.474  -0.461  -0.452
 -0.447  -0.440  -0.433  -0.421  -0.419  -0.417  -0.414  -0.408
 -0.407  -0.399  -0.389  -0.379  -0.374  -0.363  -0.357  -0.354
 -0.351  -0.344  -0.343  -0.340  -0.338  -0.329  -0.323  -0.317
 -0.314  -0.310  -0.307  -0.303  -0.301  -0.298  -0.281  -0.278
 -0.268  -0.244  -0.240  -0.236  -0.234  -0.231  -0.230  -0.194
 -0.175  -0.167  -0.164  -0.155  -0.153  -0.151  -0.150  -0.141
 -0.085
 -- Virtual --
  0.078   0.088   0.105   0.116   0.216   0.242   0.255   0.261
  0.265   0.293   0.302   0.303   0.325   0.332   0.333   0.342
  0.349   0.359   0.364   0.367   0.371   0.372   0.373   0.382
  0.384   0.389   0.393   0.397   0.401   0.406   0.410   0.413
  0.414   0.420   0.420   0.425   0.429   0.432   0.438   0.445
  0.449   0.455   0.457   0.462   0.465   0.466   0.468   0.481
  0.484   0.487   0.493   0.497   0.505   0.518   0.528   0.546
  0.549   0.557   0.559   0.635   0.636   0.662   0.675
 --------------------------------------------------------------
 
          Ground-State Mulliken Net Atomic Charges

     Atom                 Charge (a.u.)
  ----------------------------------------
      1 O                    -0.229315
      2 C                     0.218669
      3 C                    -0.079133
      4 C                    -0.082075
      5 C                     0.233585
      6 O                    -0.194743
      7 C                    -0.047361
      8 C                    -0.047255
      9 O                    -0.165625
     10 C                     0.222457
     11 C                    -0.088136
     12 C                    -0.085509
     13 C                     0.201334
     14 O                    -0.193837
     15 O                    -0.187628
     16 O                    -0.200348
     17 O                    -0.197226
     18 C                    -0.112009
     19 C                     0.032958
     20 C                    -0.143011
     21 C                    -0.145530
     22 C                     0.033744
     23 O                    -0.195957
     24 H                     0.082357
     25 H                     0.084082
     26 H                     0.089199
     27 H                     0.076646
     28 H                     0.073997
     29 H                     0.076342
     30 H                     0.072658
     31 H                     0.081388
     32 O                    -0.212419
     33 C                    -0.106421
     34 C                     0.033740
     35 C                    -0.142780
     36 C                    -0.144349
     37 C                     0.031980
     38 O                    -0.195503
     39 H                     0.091486
     40 H                     0.084484
     41 H                     0.089219
     42 H                     0.087613
     43 H                     0.077701
     44 H                     0.075565
     45 H                     0.078905
     46 H                     0.074938
     47 H                     0.081626
     48 H                     0.089335
     49 H                     0.096017
     50 H                     0.091561
     51 H                     0.086673
     52 H                     0.083091
     53 H                     0.101361
     54 H                     0.092856
     55 H                     0.084063
     56 H                     0.084541
  ----------------------------------------
  Sum of atomic charges =    -0.000000

 -----------------------------------------------------------------
                    Cartesian Multipole Moments
 -----------------------------------------------------------------
    Charge (ESU x 10^10)
                 0.0000
    Dipole Moment (Debye)
         X       0.7310      Y      -1.6550      Z      -1.3142
       Tot       2.2362
    Quadrupole Moments (Debye-Ang)
        XX    -158.9825     XY      14.9577     YY    -156.9543
        XZ       8.8567     YZ      -4.9393     ZZ    -164.4125
    Octopole Moments (Debye-Ang^2)
       XXX     -18.3793    XXY      40.0558    XYY       3.5775
       YYY     -48.3569    XXZ     -33.7664    XYZ      17.4755
       YYZ       6.2161    XZZ       2.6651    YZZ     -22.2954
       ZZZ      24.2112
    Hexadecapole Moments (Debye-Ang^3)
      XXXX  -12247.5431   XXXY     330.7002   XXYY   -2497.6046
      XYYY     -22.1808   YYYY   -2732.4048   XXXZ      95.8901
      XXYZ     -42.0047   XYYZ     -64.9737   YYYZ       8.1723
      XXZZ   -2255.6584   XYZZ      -5.1247   YYZZ    -664.9983
      XZZZ     -25.9395   YZZZ      -0.8527   ZZZZ   -1654.2037
 -----------------------------------------------------------------
 Calculating analytic gradient of the SCF energy
 Gradient of SCF Energy
            1           2           3           4           5           6
    1  -0.0259971  -0.0234034  -0.0043909  -0.0184743   0.0024783  -0.0058839
    2   0.0059649   0.0326861  -0.0033733  -0.0036085  -0.0116224   0.0126307
    3  -0.0141538   0.0080597   0.0148385   0.0149773   0.0066809  -0.0365997
            7           8           9          10          11          12
    1  -0.0037977  -0.0522763  -0.0588475   0.0159097  -0.0217160   0.0108339
    2   0.0170286  -0.0392405  -0.0434063  -0.0074577   0.0086280   0.0148888
    3   0.0298786  -0.0055645  -0.0118985   0.0101516   0.0230069   0.0090008
           13          14          15          16          17          18
    1   0.0205681   0.0558962   0.0507170  -0.0035599  -0.0016254  -0.0034963
    2  -0.0031893   0.0475463  -0.0561240   0.0316181  -0.0219549  -0.0013583
    3  -0.0303498  -0.0389902   0.0106695   0.0626092   0.0018588  -0.0332523
           19          20          21          22          23          24
    1  -0.0059283   0.0109173   0.0092759   0.0075377   0.0174859   0.0041440
    2  -0.0317014  -0.0124144   0.0121803   0.0367266  -0.0064763   0.0034396
    3   0.0167597   0.0160072   0.0111471   0.0044337  -0.0336084  -0.0007900
           25          26          27          28          29          30
    1  -0.0059000   0.0006864  -0.0046899   0.0000640  -0.0052223   0.0018228
    2  -0.0059055   0.0031305  -0.0015864   0.0013246   0.0051084  -0.0031193
    3  -0.0015840  -0.0105213   0.0043465  -0.0036153   0.0014319  -0.0012409
           31          32          33          34          35          36
    1   0.0005120   0.0059633  -0.0118792  -0.0298375  -0.0172969  -0.0012736
    2  -0.0070044   0.0009412   0.0310765   0.0138025  -0.0072001  -0.0190025
    3  -0.0077877   0.0176950  -0.0011360  -0.0096964  -0.0118890   0.0024927
           37          38          39          40          41          42
    1   0.0164529   0.0276395   0.0019548   0.0001209  -0.0010766   0.0105074
    2  -0.0233239   0.0118765  -0.0004334   0.0021785   0.0028422   0.0020263
    3   0.0192885  -0.0262780  -0.0029141  -0.0023279   0.0015331  -0.0018758
           43          44          45          46          47          48
    1  -0.0050664   0.0038756   0.0009929  -0.0005211   0.0029493  -0.0003440
    2   0.0014101   0.0011332  -0.0007626   0.0013657   0.0072896   0.0030566
    3   0.0038857   0.0002360   0.0071846  -0.0036597  -0.0079098  -0.0013167
           49          50          51          52          53          54
    1  -0.0001900   0.0004636  -0.0017489   0.0002284   0.0223588  -0.0057516
    2  -0.0034344  -0.0011081  -0.0000313   0.0002809   0.0042553  -0.0011977
    3  -0.0004076   0.0026200  -0.0031617  -0.0031297   0.0063177   0.0031705
           55          56
    1   0.0094448   0.0083934
    2   0.0000250  -0.0004246
    3   0.0011916  -0.0058145
 Max gradient component =       6.261E-02
 RMS gradient           =       1.756E-02
 Gradient time:  CPU 31.20 s  wall 0.66 s
 Geometry Optimization Parameters
   NAtoms,    NIC,     NZ,  NCons,   NDum,   NFix, NCnnct, MaxDiis
       56     471       0       9       0       0       0       0

 Cartesian Hessian Update
 Hessian Updated using BFGS Update


** CONSTRAINED OPTIMIZATION IN DELOCALIZED INTERNAL COORDINATES **
   Searching for a Minimum

   Optimization Cycle:   3

                       Coordinates (Angstroms)
     ATOM                X               Y               Z
      1  O         5.2359217261   -2.2879313883   -0.3455363834
      2  C         4.2914463306   -1.4883363903   -0.4901097717
      3  C         4.4090976007    0.0399712607   -0.3660253198
      4  C         3.2770573326    0.9095203498   -1.0059533007
      5  C         2.0227567095    0.1681946055   -1.5211254544
      6  O         1.3193608201   -0.4035274502   -0.4497670860
      7  C        -0.0680622325    0.0470273747   -0.3800707121
      8  C        -0.4287277325    0.2146680039    1.1144650706
      9  O        -1.6034897095    1.0613452487    1.3454712726
     10  C        -2.0600976086    1.7285311808    0.2110980936
     11  C        -3.0305496541    0.8902169356   -0.6695690852
     12  C        -3.1806527921   -0.6278062503   -0.3074273928
     13  C        -2.6819459743   -1.0480502408    1.0928905747
     14  O        -2.6481991199   -0.3163562931    2.1012448716
     15  O         3.0908441850   -1.9918714461   -0.9646137730
     16  O        -2.4375933433   -2.4168095265    1.1719499182
     17  O        -1.9243658503    2.9555090064    0.0754047989
     18  C        -2.2000837597   -2.9804828811    2.4549291942
     19  C        -4.5138091089    1.3799934988   -0.5623293663
     20  C        -5.2887483068    0.9418140227   -1.8384306336
     21  C        -5.4069137221   -0.5777525305   -1.6001859731
     22  C        -4.7501129903   -0.6962252505   -0.1924845508
     23  O        -5.0912885884    0.5457221876    0.4639967248
     24  H        -2.6647553513    1.0157972620   -1.7094470558
     25  H        -2.8561187853   -1.3475507596   -1.0840130269
     26  H        -4.6017150898    2.4737484703   -0.3984359295
     27  H        -6.2988817392    1.3918786707   -1.7906599665
     28  H        -4.8065521927    1.2338729064   -2.7891792434
     29  H        -6.4776287615   -0.8485447720   -1.5385042211
     30  H        -4.9064405441   -1.2130251240   -2.3537407248
     31  H        -5.0992783328   -1.6123528739    0.3279134452
     32  O         1.5743438847    0.2650641233   -2.6759360267
     33  C         2.9469600034   -3.3943348619   -1.1433232429
     34  C         4.3706316466    0.5493895591    1.1146330638
     35  C         5.0848126021    1.9292055120    1.1930018657
     36  C         4.0472911837    2.8353686912    0.4923731979
     37  C         2.9044140257    1.8116149414    0.2206665589
     38  O         2.9853017335    0.8968541753    1.3383334368
     39  H         5.3846347296    0.2837387909   -0.8331940021
     40  H         3.6662736560    1.5103857106   -1.8517307964
     41  H         3.0807235473   -3.9381810966   -0.1828927654
     42  H         4.8040652001   -0.1723342908    1.8369669066
     43  H         5.1458203839    2.2159123738    2.2604173901
     44  H         6.0998395952    1.9467407629    0.7556589180
     45  H         3.7001581045    3.6026252199    1.2097471325
     46  H         4.4000565507    3.3263337562   -0.4331866795
     47  H         1.9287892314    2.3235424067    0.0921033522
     48  H         3.6782930956   -3.7845975338   -1.8847344082
     49  H         1.9216060168   -3.5808215794   -1.5196458728
     50  H        -2.0316583754   -4.0674093256    2.3213149877
     51  H        -3.0749403591   -2.8338915551    3.1256315775
     52  H        -1.3025705251   -2.5412742356    2.9418543338
     53  H        -0.3043209245   -0.7121805224    1.7113750290
     54  H         0.4053962662    0.8236702654    1.5368404692
     55  H        -0.6839124326   -0.7201448936   -0.8818218001
     56  H        -0.1421971582    0.9933700025   -0.9603291510
   Point Group: c1    Number of degrees of freedom:   162


   Energy is  -1510.128764664

              Constraints and their Current Values
                                        Value     Constraint
   Dihedral:        1   2   3   4      161.039      161.053
   Dihedral:        3   4   5   6       66.316       66.316
   Dihedral:        4   5   6   7      123.138      123.158
   Dihedral:        5   6   7   8     -142.112     -142.105
   Dihedral:        6   7   8   9      161.017      161.053
   Dihedral:        7   8   9  10       -9.442       -9.474
   Dihedral:        8   9  10  11       85.319       85.263
   Dihedral:        9  10  11  12       -9.490       -9.474
   Dihedral:       11  12  13  14       28.384       28.421
 Hessian Updated using BFGS Update

   Using Lagrange Multiplier Algorithm


163 Hessian modes will be used to form the next step
  Hessian Eigenvalues:
    -0.977755   -0.977753   -0.977753   -0.977753   -0.977753   -0.977753
    -0.977711   -0.940319    0.044987    0.045000    0.045001    0.045272
     0.045383    0.045554    0.045675    0.045807    0.046730    0.048844
     0.051821    0.052089    0.059808    0.060207    0.062252    0.063276
     0.064756    0.066280    0.066959    0.067916    0.067968    0.070654
     0.072799    0.074019    0.075153    0.075873    0.076367    0.077280
     0.078864    0.080247    0.081976    0.082418    0.083626    0.083967
     0.084018    0.084133    0.085163    0.085192    0.086483    0.086687
     0.088227    0.088345    0.089079    0.089328    0.089596    0.089834
     0.093583    0.093614    0.095874    0.096596    0.096698    0.102140
     0.111374    0.111637    0.112793    0.114072    0.114592    0.115854
     0.116002    0.117823    0.118600    0.119179    0.121871    0.125012
     0.127905    0.129610    0.132434    0.141716    0.147576    0.157984
     0.159527    0.160003    0.161186    0.170526    0.172102    0.173550
     0.177454    0.187802    0.212325    0.219097    0.224816    0.235652
     0.241230    0.241614    0.244291    0.245494    0.248496    0.249374
     0.250038    0.250287    0.258479    0.265564    0.267115    0.267564
     0.277415    0.279713    0.284061    0.287280    0.295185    0.297029
     0.297416    0.299834    0.309959    0.310548    0.317214    0.321693
     0.321820    0.322171    0.322275    0.322409    0.322473    0.322643
     0.322798    0.322987    0.323193    0.323485    0.323848    0.323928
     0.323975    0.324503    0.324541    0.324612    0.324680    0.325060
     0.325174    0.326020    0.326644    0.326743    0.326852    0.329743
     0.344377    0.367406    0.369944    0.382193    0.383407    0.406929
     0.416146    0.468224    0.488784    0.504415    0.514880    0.524077
     0.534104    0.886369    0.930057    0.941907    0.946137    1.022753
     1.022753    1.022753    1.022753    1.022753    1.022753    1.022906
     1.163371

 Minimum Search - Taking P-RFO Step
 Searching for Lamda that Maximizes Along the Constraint modes Only
 Value Taken    Lamda =   0.00004688
 Searching for Lamda that Minimizes Along All other modes
 Value Taken    Lamda =  -0.09806641
 Calculated Step too Large.  Step scaled by  0.538924
 Step Taken.  Stepsize is  0.300000

                             Maximum     Tolerance    Cnvgd?
         Gradient            0.057365       0.000300      NO
         Displacement        0.076480       0.001200      NO
         Energy change     -0.066671       0.000001      NO


 New Cartesian Coordinates Obtained by Inverse Iteration

 Displacement from previous Coordinates is:  1.581429
 Adding empirical dispersion correction 
 ----------------------------------------------------------------
 Doing -D3(op) with
 s6 =   1.00000
 s8 =   0.78311
 a1 =   0.30000
 a2 =   4.25000
 n  =  10.00000
 -D3 energy without 3body term =     -0.0727189784 hartrees
 ----------------------------------------------------------------
             Standard Nuclear Orientation (Angstroms)
    I     Atom           X                Y                Z
 ----------------------------------------------------------------
    1      O       5.3555869440    -2.2903311580    -0.2477233956
    2      C       4.3986742474    -1.5076970579    -0.4305424734
    3      C       4.4832608232     0.0359742181    -0.3359301673
    4      C       3.3436582403     0.8721152813    -1.0229119940
    5      C       2.0938377379     0.0967195476    -1.5357108173
    6      O       1.3696479730    -0.4555757748    -0.4456905733
    7      C      -0.0295309962    -0.0021797949    -0.4287861267
    8      C      -0.4048473672     0.2091520094     1.0682867728
    9      O      -1.5826184765     1.0580208711     1.3440309051
   10      C      -2.0934569395     1.7385219566     0.2186033671
   11      C      -3.1087511733     0.9133205750    -0.6515941709
   12      C      -3.2712487320    -0.6187512863    -0.3231703847
   13      C      -2.7496643006    -1.0880761173     1.0659228222
   14      O      -2.6839646841    -0.3931193881     2.1003712165
   15      O       3.1851831075    -2.0008996721    -0.9268551204
   16      O      -2.5101295546    -2.4773749875     1.0604874780
   17      O      -1.9598219211     2.9709482159     0.0893587845
   18      C      -2.2390103231    -3.0317717126     2.3651611394
   19      C      -4.5907874643     1.4237871703    -0.4957387528
   20      C      -5.3974077218     1.0233190107    -1.7760598188
   21      C      -5.5294474912    -0.5109679521    -1.5742335488
   22      C      -4.8487964994    -0.6776375754    -0.1733449101
   23      O      -5.1639284483     0.5621380776     0.5322608659
   24      H      -2.7700645657     1.0564304368    -1.6968208917
   25      H      -2.9623336676    -1.3132103011    -1.1262236053
   26      H      -4.6604045916     2.5113169305    -0.2919676644
   27      H      -6.3985021048     1.4855088312    -1.7065050846
   28      H      -4.9235052628     1.3328287671    -2.7233427452
   29      H      -6.5983726083    -0.7787379100    -1.5052680367
   30      H      -5.0460997229    -1.1271923259    -2.3516741959
   31      H      -5.1959478024    -1.5975099432     0.3391696158
[...]
     15  O         3.3626047466   -1.9776309065   -0.9908828751
     16  O        -2.8110646842   -2.6002281198    1.1623761576
     17  O        -1.9023898728    2.9015211670    0.0936256771
     18  C        -2.5729175112   -3.1811112837    2.5030313237
     19  C        -4.6410071046    1.4513361574   -0.3897772325
     20  C        -5.2876683027    1.2171144997   -1.8093562454
     21  C        -5.4389707618   -0.3501304962   -1.7990573499
     22  C        -5.0168356977   -0.6952966204   -0.3150236216
     23  O        -5.3928846399    0.5072922460    0.4649142479
     24  H        -2.8153676395    0.9307304381   -1.5036985596
     25  H        -2.9295791078   -1.3403440438   -0.8979132461
     26  H        -4.7071672113    2.4835692430    0.0055989581
     27  H        -6.2690804520    1.7149464006   -1.8692916581
     28  H        -4.6520937135    1.5837664392   -2.6309312593
     29  H        -6.4781250300   -0.6622110832   -1.9878959689
     30  H        -4.7837722432   -0.8432258782   -2.5351807079
     31  H        -5.4977267956   -1.5988783858    0.1081860020
     32  O         1.6124032486   -0.1325671659   -2.6440747635
     33  C         3.4264094684   -3.4447763120   -1.1670202375
     34  C         4.4239216999    0.6546690521    1.0873925777
     35  C         5.1236188058    2.0689790049    1.1066767057
     36  C         4.0945172780    2.9129525562    0.2651716864
     37  C         2.9358769836    1.8603045447    0.0406295768
     38  O         2.9943674416    0.9999977404    1.2452784179
     39  H         5.5039909300    0.4583921412   -0.8343694887
     40  H         3.6830587462    1.3647494830   -2.0340053589
     41  H         3.6389946959   -3.9584841286   -0.2073191058
     42  H         4.7471321291   -0.0529229673    1.8754481744
     43  H         5.1993266525    2.4430659725    2.1404474184
     44  H         6.1304803984    2.0478078044    0.6601793587
     45  H         3.7224672911    3.7825351114    0.8292964383
     46  H         4.5169346820    3.2661417618   -0.6893121957
     47  H         1.9261536601    2.3002668648   -0.0712368394
     48  H         4.2042424531   -3.7321751206   -1.9038603263
     49  H         2.4299750377   -3.7473580711   -1.5382732041
     50  H        -2.3488678846   -4.2510457954    2.3377413631
     51  H        -3.4640406977   -3.0846021766    3.1562394155
     52  H        -1.7133781947   -2.6976278713    3.0114783056
     53  H        -0.4184810748   -0.6912989591    1.7957391099
     54  H         0.6137384457    0.7655338186    1.6213822451
     55  H        -0.6627443770   -0.8995391197   -0.6480345140
     56  H        -0.1627684997    0.8057750978   -0.9251340344
   Point Group: c1    Number of degrees of freedom:   162


   Energy is  -1510.230051241

              Constraints and their Current Values
                                        Value     Constraint
   Dihedral:        1   2   3   4      161.053      161.053
   Dihedral:        3   4   5   6       66.316       66.316
   Dihedral:        4   5   6   7      123.158      123.158
   Dihedral:        5   6   7   8     -142.105     -142.105
   Dihedral:        6   7   8   9      161.053      161.053
   Dihedral:        7   8   9  10       -9.474       -9.474
   Dihedral:        8   9  10  11       85.263       85.263
   Dihedral:        9  10  11  12       -9.474       -9.474
   Dihedral:       11  12  13  14       28.421       28.421
 Hessian Updated using BFGS Update

153 Hessian modes will be used to form the next step
  Hessian Eigenvalues:
     0.002291    0.004674    0.016632    0.026183    0.043719    0.045005
     0.045033    0.045114    0.045466    0.045634    0.046062    0.047678
     0.048753    0.054799    0.058400    0.059902    0.061373    0.063359
     0.065379    0.065958    0.067166    0.067779    0.067871    0.071750
     0.072727    0.073593    0.075715    0.076158    0.077369    0.079394
     0.080215    0.081007    0.082064    0.082562    0.083094    0.083855
     0.084578    0.084746    0.085401    0.086055    0.087306    0.087728
     0.089030    0.089093    0.089331    0.089558    0.090171    0.092334
     0.093251    0.093764    0.094118    0.096560    0.096610    0.101510
     0.107259    0.111532    0.111712    0.114103    0.114611    0.115857
     0.116003    0.117250    0.118298    0.121199    0.122218    0.124710
     0.128956    0.129020    0.133690    0.138408    0.156844    0.157866
     0.159997    0.160016    0.160070    0.160111    0.160665    0.161464
     0.171446    0.173379    0.185081    0.199542    0.207847    0.221306
     0.234620    0.240830    0.241669    0.245047    0.247098    0.248009
     0.249917    0.250421    0.252182    0.257069    0.263684    0.266879
     0.267350    0.275588    0.278408    0.281971    0.285025    0.286990
     0.293763    0.295300    0.296308    0.298673    0.305035    0.308187
     0.314490    0.319148    0.321788    0.322160    0.322279    0.322435
     0.322563    0.322657    0.322843    0.322991    0.323221    0.323507
     0.323930    0.323949    0.324187    0.324335    0.324519    0.324578
     0.324654    0.325042    0.325164    0.325244    0.326014    0.326746
     0.326866    0.326966    0.329705    0.345392    0.367402    0.369985
     0.378222    0.396332    0.425768    0.438961    0.473469    0.476571
     0.489938    0.507577    0.522577    0.525952    0.546857    0.881700
     0.936763    0.946633    0.977481

 Minimum Search - Taking Simple RFO Step
 Searching for Lamda that Minimizes Along All modes
 Value Taken    Lamda =  -0.00000201
 Step Taken.  Stepsize is  0.014333

                             Maximum     Tolerance    Cnvgd?
         Gradient           0.000082      0.000300     YES
         Displacement       0.004780      0.001200      NO
         Energy change     -0.000001      0.000001     YES

 Final energy is   -1510.23005124072     


 ******************************
 **  OPTIMIZATION CONVERGED  **
 ******************************

                       Coordinates (Angstroms)
     ATOM                X               Y               Z
      1  O         5.6251167289   -2.1683356209   -0.3442309137
      2  C         4.6120241987   -1.4599266208   -0.5364604974
      3  C         4.5487143264    0.1001126531   -0.4086757754
      4  C         3.3476877727    0.8509861267   -1.1157513023
      5  C         2.0879672973   -0.0249849421   -1.4936333120
      6  O         1.4210803808   -0.5078732034   -0.2987230967
      7  C         0.0020984382   -0.0860182655   -0.2837127021
      8  C        -0.2965612158    0.2556540365    1.2271467588
      9  O        -1.4767062174    1.1047857356    1.5292726208
     10  C        -2.0866840313    1.6923121905    0.3591996166
     11  C        -3.1593397531    0.8510008343   -0.4548302771
     12  C        -3.4264826182   -0.6797541634   -0.1668065148
     13  C        -3.1354202715   -1.2045324098    1.2836278641
     14  O        -3.1764932372   -0.5935851870    2.3702716316
     15  O         3.3626047466   -1.9776309065   -0.9908828751
     16  O        -2.8110646842   -2.6002281198    1.1623761576
     17  O        -1.9023898728    2.9015211670    0.0936256771
     18  C        -2.5729175112   -3.1811112837    2.5030313237
     19  C        -4.6410071046    1.4513361574   -0.3897772325
     20  C        -5.2876683027    1.2171144997   -1.8093562454
     21  C        -5.4389707618   -0.3501304962   -1.7990573499
     22  C        -5.0168356977   -0.6952966204   -0.3150236216
     23  O        -5.3928846399    0.5072922460    0.4649142479
     24  H        -2.8153676395    0.9307304381   -1.5036985596
     25  H        -2.9295791078   -1.3403440438   -0.8979132461
     26  H        -4.7071672113    2.4835692430    0.0055989581
     27  H        -6.2690804520    1.7149464006   -1.8692916581
     28  H        -4.6520937135    1.5837664392   -2.6309312593
     29  H        -6.4781250300   -0.6622110832   -1.9878959689
     30  H        -4.7837722432   -0.8432258782   -2.5351807079
     31  H        -5.4977267956   -1.5988783858    0.1081860020
     32  O         1.6124032486   -0.1325671659   -2.6440747635
     33  C         3.4264094684   -3.4447763120   -1.1670202375
     34  C         4.4239216999    0.6546690521    1.0873925777
     35  C         5.1236188058    2.0689790049    1.1066767057
     36  C         4.0945172780    2.9129525562    0.2651716864
     37  C         2.9358769836    1.8603045447    0.0406295768
     38  O         2.9943674416    0.9999977404    1.2452784179
     39  H         5.5039909300    0.4583921412   -0.8343694887
     40  H         3.6830587462    1.3647494830   -2.0340053589
     41  H         3.6389946959   -3.9584841286   -0.2073191058
     42  H         4.7471321291   -0.0529229673    1.8754481744
     43  H         5.1993266525    2.4430659725    2.1404474184
     44  H         6.1304803984    2.0478078044    0.6601793587
     45  H         3.7224672911    3.7825351114    0.8292964383
     46  H         4.5169346820    3.2661417618   -0.6893121957
     47  H         1.9261536601    2.3002668648   -0.0712368394
     48  H         4.2042424531   -3.7321751206   -1.9038603263
     49  H         2.4299750377   -3.7473580711   -1.5382732041
     50  H        -2.3488678846   -4.2510457954    2.3377413631
     51  H        -3.4640406977   -3.0846021766    3.1562394155
     52  H        -1.7133781947   -2.6976278713    3.0114783056
     53  H        -0.4184810748   -0.6912989591    1.7957391099
     54  H         0.6137384457    0.7655338186    1.6213822451
     55  H        -0.6627443770   -0.8995391197   -0.6480345140
     56  H        -0.1627684997    0.8057750978   -0.9251340344

Z-matrix Print:
$molecule
0 1
O 
C  1 1.451113
O  2 1.249500 1 123.682964
C  1 1.480438 2 110.733182 3 -47.349463 0
H  4 1.110810 1 111.418277 2 -22.613811 0
H  4 1.112008 1 111.178190 2 97.944775 0
C  4 1.577540 1 104.648473 2 -142.105025 0
H  7 1.111252 4 109.041219 1 -76.404634 0
H  7 1.115367 4 106.440266 1 39.113400 0
O  7 1.484940 4 117.980450 1 161.053016 0
C  10 1.444414 7 113.790920 4 -9.474042 0
O  11 1.251671 10 120.175896 7 -103.858664 0
C  2 1.580195 1 110.727238 3 170.507438 0
H  13 1.104363 2 107.526153 1 -168.029674 0
C  13 1.583108 2 116.658483 1 66.315945 0
H  15 1.105501 13 109.260112 2 138.148825 0
C  15 1.566544 13 117.811302 2 18.716438 0
O  17 1.251060 15 125.738626 13 161.053009 0
O  17 1.426733 15 110.606209 13 -15.257322 0
C  19 1.479057 17 111.105733 15 177.743603 0
H  20 1.105561 19 105.818795 17 -178.796759 0
H  20 1.109105 19 111.387013 17 62.083664 0
H  20 1.109304 19 111.490346 17 -59.514029 0
C  11 1.587778 10 119.017463 7 85.262961 0
H  24 1.106706 11 103.753575 10 -130.395127 0
C  24 1.580359 11 122.275835 10 -9.474009 0
H  26 1.103544 24 112.517170 11 -100.934076 0
C  26 1.569672 24 117.444735 11 27.096298 0
O  28 1.247292 26 129.431758 24 28.420973 0
O  28 1.438011 26 106.762003 24 -152.493855 0
C  30 1.480370 28 109.923697 26 -177.848031 0
H  31 1.105567 30 106.078148 28 178.993458 0
H  31 1.109097 30 111.713913 28 59.643282 0
H  31 1.109542 30 111.631712 28 -61.839153 0
C  13 1.589191 2 108.632792 1 -45.607062 0
H  35 1.107078 13 114.533023 2 -39.662330 0
O  35 1.481461 13 102.277074 2 79.802453 0
C  37 1.479123 35 94.987551 13 59.443116 0
H  38 1.107332 37 110.813224 35 -177.629612 0
C  38 1.578043 37 102.590843 35 58.225351 0
H  40 1.101625 38 112.524387 37 -160.085286 0
H  40 1.101978 38 110.253380 37 78.122349 0
C  40 1.574634 38 100.606179 37 -39.532172 0
H  43 1.101286 40 111.731358 38 122.903471 0
H  43 1.101916 40 112.592085 38 -114.473432 0
C  26 1.597321 24 99.254239 11 140.024162 0
H  46 1.107620 26 113.875815 24 -164.128724 0
O  46 1.481869 26 101.298787 24 -45.469086 0
C  48 1.478863 46 94.867412 26 60.885456 0
H  49 1.107341 48 110.997708 46 -177.268177 0
C  49 1.577414 48 102.526936 46 58.478640 0
H  51 1.101533 49 112.659667 48 -161.307676 0
H  51 1.102088 49 110.299686 48 76.855454 0
C  51 1.574565 49 100.445532 48 -40.743246 0
H  54 1.101316 51 111.814311 49 124.400524 0
H  54 1.101955 51 112.574815 49 -112.962758 0
$end

 
 --------------------------------------------------------------
 
                    Orbital Energies (a.u.)
 --------------------------------------------------------------
 
 Alpha MOs
 -- Occupied --
-18.948 -18.929 -18.906 -18.902 -18.895 -18.894 -18.891 -18.881
-18.879 -18.876 -10.107 -10.106 -10.103 -10.095 -10.072 -10.072
-10.066 -10.065 -10.064 -10.063 -10.063 -10.061 -10.043 -10.040
-10.040 -10.036 -10.025 -10.023 -10.023 -10.021  -1.020  -1.009
 -1.003  -1.000  -0.976  -0.973  -0.942  -0.937  -0.932  -0.926
 -0.767  -0.763  -0.727  -0.724  -0.711  -0.706  -0.698  -0.668
 -0.662  -0.611  -0.602  -0.588  -0.550  -0.544  -0.541  -0.539
 -0.520  -0.513  -0.491  -0.475  -0.468  -0.459  -0.449  -0.446
 -0.436  -0.434  -0.426  -0.416  -0.412  -0.411  -0.409  -0.404
 -0.392  -0.382  -0.379  -0.366  -0.363  -0.356  -0.353  -0.349
 -0.345  -0.343  -0.337  -0.335  -0.331  -0.329  -0.325  -0.317
 -0.314  -0.311  -0.308  -0.305  -0.302  -0.296  -0.286  -0.280
 -0.272  -0.253  -0.251  -0.241  -0.237  -0.235  -0.230  -0.185
 -0.177  -0.167  -0.163  -0.157  -0.153  -0.149  -0.147  -0.144
 -0.139
 -- Virtual --
  0.074   0.085   0.096   0.102   0.211   0.236   0.243   0.249
  0.252   0.269   0.275   0.279   0.302   0.314   0.322   0.328
  0.329   0.334   0.339   0.343   0.348   0.351   0.360   0.362
  0.371   0.376   0.381   0.390   0.391   0.395   0.399   0.405
  0.411   0.416   0.418   0.420   0.422   0.426   0.428   0.432
  0.433   0.436   0.437   0.439   0.448   0.451   0.457   0.462
  0.467   0.481   0.483   0.485   0.491   0.504   0.513   0.534
  0.539   0.550   0.550   0.609   0.623   0.643   0.661
 --------------------------------------------------------------
 
          Ground-State Mulliken Net Atomic Charges

     Atom                 Charge (a.u.)
  ----------------------------------------
      1 O                    -0.213588
      2 C                     0.209949
      3 C                    -0.080528
      4 C                    -0.079548
      5 C                     0.224906
      6 O                    -0.183200
      7 C                    -0.051845
      8 C                    -0.049947
      9 O                    -0.185683
     10 C                     0.217547
     11 C                    -0.084799
     12 C                    -0.081440
     13 C                     0.206958
     14 O                    -0.197622
     15 O                    -0.162473
     16 O                    -0.175966
     17 O                    -0.187116
     18 C                    -0.129608
     19 C                     0.026860
     20 C                    -0.141533
     21 C                    -0.145635
     22 C                     0.025775
     23 O                    -0.186752
     24 H                     0.081401
     25 H                     0.084255
     26 H                     0.088889
     27 H                     0.078897
     28 H                     0.074856
     29 H                     0.078941
     30 H                     0.074174
     31 H                     0.082820
     32 O                    -0.206834
     33 C                    -0.124178
     34 C                     0.027202
     35 C                    -0.141789
     36 C                    -0.144962
     37 C                     0.025269
     38 O                    -0.185812
     39 H                     0.086237
     40 H                     0.084529
     41 H                     0.091919
     42 H                     0.086161
     43 H                     0.079511
     44 H                     0.075216
     45 H                     0.080570
     46 H                     0.074736
     47 H                     0.081926
     48 H                     0.091636
     49 H                     0.095699
     50 H                     0.089013
     51 H                     0.089289
     52 H                     0.087473
     53 H                     0.083523
     54 H                     0.097185
     55 H                     0.079405
     56 H                     0.078130
  ----------------------------------------
  Sum of atomic charges =    -0.000000

 -----------------------------------------------------------------
                    Cartesian Multipole Moments
 -----------------------------------------------------------------
    Charge (ESU x 10^10)
                -0.0000
    Dipole Moment (Debye)
         X       1.0333      Y      -1.5374      Z      -1.9798
       Tot       2.7113
    Quadrupole Moments (Debye-Ang)
        XX    -157.8529     XY      13.0850     YY    -154.3915
        XZ       8.8568     YZ      -5.5885     ZZ    -165.2397
    Octopole Moments (Debye-Ang^2)
       XXX     -10.5422    XXY      35.9675    XYY      10.5799
       YYY     -43.9088    XXZ     -48.7867    XYZ      18.0535
       YYZ       5.2560    XZZ       8.9821    YZZ     -17.1211
       ZZZ      10.7320
    Hexadecapole Moments (Debye-Ang^3)
      XXXX  -13448.9722   XXXY     335.2638   XXYY   -2622.7857
      XYYY     -62.3032   YYYY   -2837.1347   XXXZ     275.7496
      XXYZ     -25.5867   XYYZ     -36.5759   YYYZ      33.8213
      XXZZ   -2434.2671   XYZZ      -1.0356   YYZZ    -696.4499
      XZZZ     137.9201   YZZZ       9.3961   ZZZZ   -1730.1993
 -----------------------------------------------------------------
Archival summary:
1\1\vega02.cac.cornell.edu\OPT\ProcedureUnspecified\STO-3G\102026\jj585\TueJan1600:46:312018TueJan1600:46:312018\0\\#,OPT,ProcedureUnspecified,STO-3G,\\0,1\O\C,1,1.45111\O,2,1.2495,1,123.683\C,1,1.48044,2,110.733,3,-47.3495,0\H,4,1.11081,1,111.418,2,-22.6138,0\H,4,1.11201,1,111.178,2,97.9448,0\C,4,1.57754,1,104.648,2,-142.105,0\H,7,1.11125,4,109.041,1,-76.4046,0\H,7,1.11537,4,106.44,1,39.1134,0\O,7,1.48494,4,117.98,1,161.053,0\C,10,1.44441,7,113.791,4,-9.47404,0\O,11,1.25167,10,120.176,7,-103.859,0\C,2,1.58019,1,110.727,3,170.507,0\H,13,1.10436,2,107.526,1,-168.03,0\C,13,1.58311,2,116.658,1,66.3159,0\H,15,1.1055,13,109.26,2,138.149,0\C,15,1.56654,13,117.811,2,18.7164,0\O,17,1.25106,15,125.739,13,161.053,0\O,17,1.42673,15,110.606,13,-15.2573,0\C,19,1.47906,17,111.106,15,177.744,0\H,20,1.10556,19,105.819,17,-178.797,0\H,20,1.10911,19,111.387,17,62.0837,0\H,20,1.1093,19,111.49,17,-59.514,0\C,11,1.58778,10,119.017,7,85.263,0\H,24,1.10671,11,103.754,10,-130.395,0\C,24,1.58036,11,122.276,10,-9.47401,0\H,26,1.10354,24,112.517,11,-100.934,0\C,26,1.56967,24,117.445,11,27.0963,0\O,28,1.24729,26,129.432,24,28.421,0\O,28,1.43801,26,106.762,24,-152.494,0\C,30,1.48037,28,109.924,26,-177.848,0\H,31,1.10557,30,106.078,28,178.993,0\H,31,1.1091,30,111.714,28,59.6433,0\H,31,1.10954,30,111.632,28,-61.8392,0\C,13,1.58919,2,108.633,1,-45.6071,0\H,35,1.10708,13,114.533,2,-39.6623,0\O,35,1.48146,13,102.277,2,79.8025,0\C,37,1.47912,35,94.9876,13,59.4431,0\H,38,1.10733,37,110.813,35,-177.63,0\C,38,1.57804,37,102.591,35,58.2254,0\H,40,1.10163,38,112.524,37,-160.085,0\H,40,1.10198,38,110.253,37,78.1223,0\C,40,1.57463,38,100.606,37,-39.5322,0\H,43,1.10129,40,111.731,38,122.903,0\H,43,1.10192,40,112.592,38,-114.473,0\C,26,1.59732,24,99.2542,11,140.024,0\H,46,1.10762,26,113.876,24,-164.129,0\O,46,1.48187,26,101.299,24,-45.4691,0\C,48,1.47886,46,94.8674,26,60.8855,0\H,49,1.10734,48,110.998,46,-177.268,0\C,49,1.57741,48,102.527,46,58.4786,0\H,51,1.10153,49,112.66,48,-161.308,0\H,51,1.10209,49,110.3,48,76.8555,0\C,51,1.57457,49,100.446,48,-40.7432,0\H,54,1.10132,51,111.814,49,124.401,0\H,54,1.10196,51,112.575,49,-112.963,0\\\@

 Total job time:  66.26s(wall), 3155.96s(cpu) 
 Tue Jan 16 00:46:31 2018

        *************************************************************
        *                                                           *
        *  Thank you very much for using Q-Chem.  Have a nice day.  *
        *                                                           *
        *************************************************************


0 sent ACK to 0 
now end server 0 ... 
