mFile = /opt/software/qchem/qchem-5.0.1//bin/mpi/machines
Process 0 of 1 is on vega02.cac.cornell.edu - thread support 0
initial socket setup ...start
initial socket setup ...done 
now start server 0 ... 
vega02.cac.cornell.edu 10.84.3
Q-Chem Developer Version! Running on 10.84.3.*
                  Welcome to Q-Chem
     A Quantum Leap Into The Future Of Chemistry


 Q-Chem 5.0, Q-Chem, Inc., Pleasanton, CA (2017)

 Yihan Shao,  Zhengting Gan,  E. Epifanovsky,  A. T. B. Gilbert,  M. Wormit,  
 J. Kussmann,  A. W. Lange,  A. Behn,  Jia Deng,  Xintian Feng,  D. Ghosh,  
 M. Goldey,  P. R. Horn,  L. D. Jacobson,  I. Kaliman,  T. Kus,  A. Landau,  
 Jie Liu,  E. I. Proynov,  R. M. Richard,  R. P. Steele,  E. J. Sundstrom,  
 H. L. Woodcock III,  P. M. Zimmerman,  D. Zuev,  B. Albrecht,  E. Alguire,  
 S. A. Baeppler,  Z. Benda,  Y. A. Bernard,  E. J. Berquist,  K. B. Bravaya,  
 D. Casanova,  Chun-Min Chang,  Yunqing Chen,  A. Chien,  K. D. Closser,  
 M. P. Coons,  S. Dasgupta,  M. Diedenhofen,  Hainam Do,  R. G. Edgar,  
 Po-Tung Fang,  S. Fatehi,  Qingguo Feng,  Qinghui Ge,  A. Ghysels,  
 J. Gomes,  J. Gonthier,  A. Gunina,  M. W. D. Hanson-Heine,  
 P. H. P. Harbach,  A. W. Hauser,  J. E. Herr,  E. G. Hohenstein,  
 Z. C. Holden,  Kerwin Hui,  T.-C. Jagau,  Hyunjun Ji,  B. Kaduk,  
 K. Khistyaev,  Jaehoon Kim,  P. Klunzinger,  K. Koh,  D. Kosenkov,  
 T. Kowalczyk,  C. M. Krauter,  A. Kunitsa,  Ka Un Lao,  A. Laurent,  
 K. V. Lawler,  Joonho Lee,  D. Lefrancois,  S. Lehtola,  D. S. Levine,  
 Yi-Pei Li,  You-Sheng Lin,  Fenglai Liu,  E. Livshits,  A. Luenser,  
 P. Manohar,  E. Mansoor,  S. F. Manzer,  Shan-Ping Mao,  Yuezhi Mao,  
 N. Mardirossian,  A. V. Marenich,  L. A. Martinez-Martinez,  S. A. Maurer,  
 N. J. Mayhall,  S. C. McKenzie,  J.-M. Mewes,  A. F. Morrison,  K. Nanda,  
 T. S. Nguyen-Beck,  R. Olivares-Amaya,  J. A. Parkhill,  T. M. Perrine,  
 F. Plasser,  S. Prager,  A. Prociuk,  D. R. Rehn,  F. Rob,  M. Schneider,  
 N. Sergueev,  S. M. Sharada,  S. Sharma,  D. W. Small,  T. Stauch,  
 T. Stein,  Yu-Chuan Su,  A. J. W. Thom,  T. Tsuchimochi,  L. Vogt,  
 O. Vydrov,  M. A. Watson,  J. Wenzel,  M. de Wergifosse,  T. A. Wesolowski,  
 A. White,  J. Witte,  A. Yamada,  Jun Yang,  K. Yao,  S. Yeganeh,  
 S. R. Yost,  Zhi-Qiang You,  A. Zech,  Igor Ying Zhang,  Xing Zhang,  
 Yan Zhao,  Ying Zhu,  B. R. Brooks,  G. K. L. Chan,  C. J. Cramer,  
 M. S. Gordon,  W. J. Hehre,  A. Klamt,  M. W. Schmidt,  C. D. Sherrill,  
 D. G. Truhlar,  A. Aspuru-Guzik,  R. Baer,  A. T. Bell,  N. A. Besley,  
 Jeng-Da Chai,  A. Dreuw,  B. D. Dunietz,  T. R. Furlani,  Chao-Ping Hsu,  
 Yousung Jung,  Jing Kong,  D. S. Lambrecht,  WanZhen Liang,  C. Ochsenfeld,  
 V. A. Rassolov,  L. V. Slipchenko,  J. E. Subotnik,  T. Van Voorhis,  
 J. M. Herbert,  A. I. Krylov,  P. M. W. Gill,  M. Head-Gordon

 Contributors to earlier versions of Q-Chem not listed above: 
 R. D. Adamson,  B. Austin,  J. Baker,  G. J. O. Beran,  K. Brandhorst,  
 S. T. Brown,  E. F. C. Byrd,  A. K. Chakraborty,  C.-L. Cheng,  
 Siu Hung Chien,  D. M. Chipman,  D. L. Crittenden,  H. Dachsel,  
 R. A. DiStasio Jr.,  R. J. Doerksen,  A. D. Dutoi,  L. Fusti-Molnar,  
 W. A. Goddard III,  A. Golubeva-Zadorozhnaya,  S. R. Gwaltney,  G. Hawkins,  
 A. Heyden,  S. Hirata,  G. Kedziora,  F. J. Keil,  C. Kelley,  Jihan Kim,  
 R. A. King,  R. Z. Khaliullin,  P. P. Korambath,  W. Kurlancheek,  
 A. M. Lee,  M. S. Lee,  S. V. Levchenko,  Ching Yeh Lin,  D. Liotard,  
 R. C. Lochan,  I. Lotan,  P. E. Maslen,  N. Nair,  D. P. O'Neill,  
 D. Neuhauser,  E. Neuscamman,  C. M. Oana,  R. Olson,  B. Peters,  
 R. Peverati,  P. A. Pieniazek,  Y. M. Rhee,  J. Ritchie,  M. A. Rohrdanz,  
 E. Rosta,  N. J. Russ,  H. F. Schaefer III,  N. E. Schultz,  N. Shenvi,  
 A. C. Simmonett,  A. Sodt,  D. Stuck,  K. S. Thanthiriwatte,  V. Vanovschi,  
 Tao Wang,  A. Warshel,  C. F. Williams,  Q. Wu,  X. Xu,  W. Zhang

 Please cite Q-Chem as follows:
 Y. Shao et al., Mol. Phys. 113, 184-215 (2015)
 DOI: 10.1080/00268976.2014.952696

 Q-Chem 5.0.1 for Intel X86 EM64T Linux

 Parts of Q-Chem use Armadillo 5.200.1 (Boston Tea Smuggler).
 http://arma.sourceforge.net/

 Q-Chem begins on Tue Jan 16 03:21:34 2018  

Host: vega02.cac.cornell.edu
0

     Scratch files written to /scratch/jj585/SOT1001/1020c.save//
 Parallel job on  1  processors

Checking the input file for inconsistencies... 	...done.

--------------------------------------------------------------
User input:
--------------------------------------------------------------
$molecule
0  1
O -3.94934 -3.66094 2.70899
C -3.26408 -4.56952 2.26188
C -3.36658 -6.02376 2.66595
C -4.29903 -6.36261 3.8405
C -5.16027 -5.23505 4.36488
O -6.08872 -4.88522 3.42625
C -7.11975 -4.03704 3.94281
C -7.96451 -3.48139 2.80099
O -7.25616 -2.42182 2.13884
C -7.29323 -1.21757 2.76139
C -6.4377 -0.17632 2.07984
C -7.02444 1.24284 2.07713
C -8.17 1.48608 3.03903
O -9.02693 0.66849 3.34195
O -2.38851 -4.29131 1.26079
O -8.37418 2.77881 3.4123
O -7.57708 -1.12479 3.95153
C -9.40723 3.20546 4.22076
C -5.09598 0.04646 2.80192
C -4.0749 0.6131 1.81944
C -4.63509 2.00389 1.61038
C -5.78446 1.99264 2.62811
O -5.33202 1.13947 3.64973
H -6.22501 -0.53366 1.04553
H -7.32473 1.62256 1.07635
H -4.6982 -0.87271 3.28582
H -3.11002 0.69454 2.36988
H -3.91669 0.02084 0.89247
H -3.85277 2.74117 1.8976
H -5.00618 2.21893 0.58489
H -6.00684 3.03632 2.93861
O -5.14127 -4.84405 5.52606
C -2.1937 -3.03268 0.73033
C -3.96352 -6.92003 1.56509
C -3.51582 -8.36661 1.77501
C -4.33845 -8.7459 2.99118
C -5.15602 -7.4648 3.18661
O -5.33515 -6.9836 1.87433
H -2.32411 -6.34089 2.89578
H -3.72124 -6.7484 4.7105
H -1.84001 -2.33474 1.51929
H -3.707 -6.58098 0.53769
H -3.88027 -8.95762 0.9044
H -2.41844 -8.50663 1.88026
H -5.01019 -9.58798 2.71188
H -3.75295 -9.01291 3.89741
H -6.08263 -7.67413 3.76519
H -3.14059 -2.65155 0.29103
H -1.42616 -3.08888 -0.06846
H -9.32738 4.30249 4.36429
H -9.34515 2.70919 5.21289
H -10.38548 2.97699 3.74639
H -8.19694 -4.29826 2.0851
H -8.9402 -3.10181 3.18362
H -6.71658 -3.21923 4.57524
H -7.77659 -4.6686 4.58155
$end

$opt
CONSTRAINT
tors           1           2           3           4      -7.043
tors           3           4           5           6     +67.612
tors           4           5           6           7    +167.193
tors           5           6           7           8    +169.559
tors           6           7           8           9     -76.776
tors           7           8           9          10     -79.716
tors           8           9          10          11    +175.198
tors           9          10          11          12    +142.890
tors          11          12          13          14     -34.615
ENDCONSTRAINT
$end

$rem
JOBTYPE                   OPT
METHOD                    B3LYP
DFT_D                     d3_op
BASIS                     STO-3G
GEOM_OPT_MAX_CYCLES       100
GEOM_OPT_TOL_GRADIENT     300
GEOM_OPT_TOL_DISPLACEMENT 1200
GEOM_OPT_TOL_ENERGY       100
SYMMETRY                  False
THRESH                    12
SCF_CONVERGENCE           8
MAX_SUB_FILE_NUM          128
MEM_STATIC                400
MEM_TOTAL                 4000
$end
--------------------------------------------------------------
 Adding empirical dispersion correction 
 ----------------------------------------------------------------
 Doing -D3(op) with
 s6 =   1.00000
 s8 =   0.78311
 a1 =   0.30000
 a2 =   4.25000
 n  =  10.00000
 -D3 energy without 3body term =     -0.0672200195 hartrees
 ----------------------------------------------------------------
             Standard Nuclear Orientation (Angstroms)
    I     Atom           X                Y                Z
 ----------------------------------------------------------------
    1      O      -1.5910789713    -1.0734370706     0.5167228318
    2      C      -2.7025485234    -1.5377090014     0.3067389156
    3      C      -4.0065557970    -0.7829530502     0.4427583153
    4      C      -3.9401326901     0.6327113930     1.0388557759
    5      C      -2.5583232804     1.2040249538     1.2675561175
    6      O      -1.9450253751     1.4293193306     0.0681667598
    7      C      -0.7644344363     2.2310044387     0.1811819336
    8      C       0.0023604451     2.2262285943    -1.1371966516
    9      O       0.7115805327     0.9862108637    -1.2863738113
   10      C       1.8776459120     0.8951579870    -0.5999616502
   11      C       2.5167707332    -0.4691333313    -0.7042315297
   12      C       4.0500848131    -0.4609002299    -0.7888862730
   13      C       4.7261522765     0.8396383302    -0.4038443794
   14      O       4.2794257878     1.9588041666    -0.6098692184
   15      O      -2.7976787275    -2.8075504026    -0.1672419672
   16      O       6.0228254587     0.7442300947    -0.0017166068
   17      O       2.1183370304     1.6372686758     0.3471136802
   18      C       6.8234893596     1.8209039001     0.3185035225
   19      C       2.2823154192    -1.3257899796     0.5537084951
   20      C       2.4059393115    -2.8040863083     0.1955056139
   21      C       3.8940715538    -2.9016770875    -0.0647907809
   22      C       4.3362684578    -1.4874672140     0.3369860775
   23      O       3.4250427529    -1.1132008522     1.3399321539
   24      H       2.0611448490    -0.9932838932    -1.5762391730
   25      H       4.4661083359    -0.7928644066    -1.7649222276
   26      H       1.3046059574    -1.1275948741     1.0457090394
   27      H       2.1651536829    -3.3796466520     1.1181987662
   28      H       1.7549803905    -3.1559357749    -0.6336687518
   29      H       4.3187328690    -3.6652031667     0.6242610335
   30      H       4.1802157964    -3.1311452787    -1.1140979578
   31      H       5.4039138661    -1.5128087526     0.6445932058
   32      O      -2.1475785846     1.5828449801     2.3581363185
   33      C      -1.7147659452    -3.6302613039    -0.3994808604
   34      C      -4.6819622662    -0.4875893650    -0.9093202367
   35      C      -6.1823444917    -0.2779563690    -0.7043749340
   36      C      -6.1907083276     1.0793350831    -0.0281054240
   37      C      -4.6957256189     1.4142509640    -0.0543514382
   38      O      -4.2418110026     0.8071882632    -1.2422723925
   39      H      -4.6615527462    -1.4342077304     1.0648381372
   40      H      -4.4659572416     0.6781935676     2.0191695630
   41      H      -1.1525322449    -3.7993136488     0.5439115883
   42      H      -4.5022668874    -1.2781299319    -1.6702823618
   43      H      -6.6445525939    -0.1727861063    -1.7120362267
   44      H      -6.6969388421    -1.0903029606    -0.1474084206
   45      H      -6.7520627540     1.7901697137    -0.6745860347
   46      H      -6.6066756258     1.0950499149     1.0024680347
   47      H      -4.5371821890     2.5119837691     0.0294735398
   48      H      -1.0432444277    -3.1742342633    -1.1583902284
   49      H      -2.0749371239    -4.6072418541    -0.7817468439
   50      H       7.8264573282     1.4523587583     0.6162978087
   51      H       6.3825409073     2.3848578110     1.1681977174
   52      H       6.9350825256     2.4911960944    -0.5603900091
   53      H      -0.7106171217     2.3679816950    -1.9770584507
   54      H       0.7195950938     3.0785524279    -1.1768981713
   55      H      -0.1147829199     1.9100639463     1.0215848474
   56      H      -1.0931215255     3.2744727760     0.3847359395
 ----------------------------------------------------------------
 Molecular Point Group                 C1    NOp =  1
 Largest Abelian Subgroup              C1    NOp =  1
 Nuclear Repulsion Energy =  3233.4800550887 hartrees
 There are      113 alpha and      113 beta electrons
 Requested basis set is STO-3G
 There are 86 shells and 176 basis functions

 Total QAlloc Memory Limit   4000 MB
 Mega-Array Size       392 MB
 MEM_STATIC part       400 MB
 A cutoff of  1.0D-12 yielded   2265 shell pairs
 There are     10812 function pairs
 
 -------------------------------------------------------
 OpenMP Integral Computing Module                       
 Release: version 1.0, May 2013, Q-Chem Inc. Pittsburgh 
 -------------------------------------------------------
 Integral Job Info:
 Integral job number is                      11
 Integral operator is                         1
 short-range coefficients                     0
 long-range coefficients              100000000
 Omega coefficients                           0
 if combine SR and LR in K                    0
 Integral screening is                        0
 Integral computing path is                   2
 max size of driver memory is            800000
 size of driver memory is                 45569
 size of scratch memory is              1046100
 max col of scratch BK array                289
 max len of scratch array in speh3           22
 max len of scratch index in speh4            8
 max int batch size is                      520
 min int batch size is                       52
 fixed nKL is                                52
 max L of basis functions is                  1
 order of int derivative is                   0
 number of shells is                         86
 number of basis is                         176
 number of cartesian basis is               176
 number of contracted shell pairs          2265
 number of primitive shell pairs          11428
 maxK2 (contraction) of shell pair            9
 max number of K2 of shell pair               1
 max number of CS2 of shell pair            344
 max number of PS2 of shell pair           1254
 mem total for path MDJ                   51530
 -------------------------------------------------------
 Smallest overlap matrix eigenvalue = 1.93E-01

 Scale SEOQF with 1.000000e-02/1.000000e-01/1.000000e-01

 Standard Electronic Orientation quadrupole field applied
 Nucleus-field energy     =     0.0000000420 hartrees
 Guess from superposition of atomic densities
 Warning:  Energy on first SCF cycle will be non-variational
 A restricted hybrid HF-DFT SCF calculation will be
 performed using Pulay DIIS extrapolation
 Exchange:     0.2000 Hartree-Fock + 0.0800 Slater + 0.7200 B88
 Correlation:  0.1900 VWN1RPA + 0.8100 LYP
 Using SG-1 standard quadrature grid
 Dispersion:   Grimme D3
 SCF converges when DIIS error is below 1.0E-08
 using 48 threads for integral computing
 -------------------------------------------------------
 OpenMP Integral computing Module                
 Release: version 1.0, May 2013, Q-Chem Inc. Pittsburgh 
 -------------------------------------------------------
 -------------------------------------------------------
 OpenMP BLAS3 based DFT computing Module                
 Release: version 1.0, May 2013, Q-Chem Inc. Pittsburgh 
 -------------------------------------------------------
 ---------------------------------------
  Cycle       Energy         DIIS Error
 ---------------------------------------
    1   -1509.4564890816      8.29E-02
    2   -1509.5913239228      1.05E-02
    3   -1507.5186643609      2.55E-02
    4   -1510.0814068040      3.76E-03
    5   -1510.1353173364      1.41E-03
    6   -1510.1425494994      6.24E-04
    7   -1510.1441728468      1.47E-04
    8   -1510.1442636192      3.12E-05
    9   -1510.1442672097      1.36E-05
   10   -1510.1442679266      4.56E-06
   11   -1510.1442680195      9.08E-07
   12   -1510.1442680232      1.73E-07
   13   -1510.1442680234      5.32E-08
   14   -1510.1442680234      1.68E-08
   15   -1510.1442680233      1.18E-08
   16   -1510.1442680234      1.96E-09 Convergence criterion met
 ---------------------------------------
 SCF time:  CPU 119.13 s  wall 2.54 s
 SCF   energy in the final basis set = -1510.14426802
 Total energy in the final basis set = -1510.14426802
 
 --------------------------------------------------------------
 
                    Orbital Energies (a.u.)
 --------------------------------------------------------------
 
 Alpha MOs
 -- Occupied --
-18.934 -18.931 -18.928 -18.921 -18.899 -18.894 -18.861 -18.852
-18.848 -18.843 -10.114 -10.102 -10.098 -10.095 -10.085 -10.077
-10.076 -10.069 -10.068 -10.066 -10.062 -10.060 -10.040 -10.038
-10.032 -10.031 -10.017 -10.016 -10.012 -10.011  -1.047  -1.038
 -1.033  -1.028  -1.020  -1.019  -0.950  -0.943  -0.939  -0.926
 -0.781  -0.777  -0.743  -0.738  -0.733  -0.723  -0.708  -0.684
 -0.673  -0.625  -0.604  -0.584  -0.553  -0.545  -0.538  -0.533
 -0.528  -0.519  -0.502  -0.487  -0.484  -0.471  -0.456  -0.455
 -0.447  -0.442  -0.430  -0.425  -0.425  -0.422  -0.419  -0.416
 -0.400  -0.395  -0.389  -0.383  -0.374  -0.363  -0.357  -0.347
 -0.346  -0.343  -0.341  -0.338  -0.335  -0.328  -0.316  -0.314
 -0.309  -0.308  -0.299  -0.297  -0.296  -0.292  -0.285  -0.276
 -0.269  -0.239  -0.235  -0.233  -0.231  -0.227  -0.217  -0.178
 -0.172  -0.166  -0.160  -0.152  -0.149  -0.141  -0.138  -0.137
 -0.115
 -- Virtual --
  0.114   0.117   0.124   0.124   0.254   0.256   0.265   0.269
  0.278   0.302   0.328   0.340   0.341   0.347   0.362   0.366
  0.380   0.383   0.386   0.390   0.391   0.396   0.397   0.400
  0.407   0.408   0.410   0.417   0.417   0.421   0.424   0.427
  0.432   0.433   0.440   0.443   0.451   0.455   0.459   0.466
  0.468   0.470   0.473   0.475   0.478   0.486   0.488   0.492
  0.498   0.501   0.503   0.523   0.523   0.533   0.560   0.561
  0.566   0.580   0.582   0.688   0.690   0.704   0.708
 --------------------------------------------------------------
 
          Ground-State Mulliken Net Atomic Charges

     Atom                 Charge (a.u.)
  ----------------------------------------
      1 O                    -0.231796
      2 C                     0.239599
      3 C                    -0.081278
      4 C                    -0.083000
      5 C                     0.238553
      6 O                    -0.185209
      7 C                    -0.038034
      8 C                    -0.031389
      9 O                    -0.191131
     10 C                     0.233614
     11 C                    -0.081182
     12 C                    -0.080103
     13 C                     0.240388
     14 O                    -0.228582
     15 O                    -0.214287
     16 O                    -0.216476
     17 O                    -0.227926
     18 C                    -0.097057
     19 C                     0.040472
     20 C                    -0.141029
     21 C                    -0.145006
     22 C                     0.039358
     23 O                    -0.210034
     24 H                     0.083416
     25 H                     0.088026
     26 H                     0.093736
     27 H                     0.073921
     28 H                     0.070081
     29 H                     0.073919
     30 H                     0.069538
     31 H                     0.088501
     32 O                    -0.233005
     33 C                    -0.097703
     34 C                     0.040036
     35 C                    -0.141475
     36 C                    -0.143715
     37 C                     0.041135
     38 O                    -0.206727
     39 H                     0.086474
     40 H                     0.085148
     41 H                     0.086997
     42 H                     0.086403
     43 H                     0.074851
     44 H                     0.072687
     45 H                     0.075451
     46 H                     0.072810
     47 H                     0.082829
     48 H                     0.086555
     49 H                     0.094536
     50 H                     0.092122
     51 H                     0.089509
     52 H                     0.084874
     53 H                     0.097703
     54 H                     0.095396
     55 H                     0.107515
     56 H                     0.079992
  ----------------------------------------
  Sum of atomic charges =     0.000000

 -----------------------------------------------------------------
                    Cartesian Multipole Moments
 -----------------------------------------------------------------
    Charge (ESU x 10^10)
                -0.0000
    Dipole Moment (Debye)
         X      -1.2304      Y      -2.5502      Z      -2.1509
       Tot       3.5558
    Quadrupole Moments (Debye-Ang)
        XX    -136.2479     XY      -1.8293     YY    -150.2998
        XZ      -4.9656     YZ      -1.0571     ZZ    -165.7727
    Octopole Moments (Debye-Ang^2)
       XXX      46.3840    XXY      20.2786    XYY      -2.2128
       YYY       4.6849    XXZ       8.8262    XYZ       7.6542
       YYZ      -7.2900    XZZ      14.1544    YZZ      -6.0628
       ZZZ     -13.4959
    Hexadecapole Moments (Debye-Ang^3)
      XXXX  -12844.2598   XXXY     246.6523   XXYY   -2802.3717
      XYYY      41.6858   YYYY   -2908.6050   XXXZ     -16.6067
      XXYZ      35.7979   XYYZ      27.9403   YYYZ     -13.7345
      XXZZ   -2481.3089   XYZZ      58.9762   YYZZ    -637.1938
      XZZZ      12.7918   YZZZ     -23.3290   ZZZZ    -840.7283
 -----------------------------------------------------------------
 Calculating analytic gradient of the SCF energy
 Gradient of SCF Energy
            1           2           3           4           5           6
    1  -0.0618791  -0.0296036   0.0307600   0.0204680   0.0114867   0.0023916
    2  -0.0332330  -0.0124299   0.0400295   0.0124833   0.0020049   0.0122165
    3  -0.0225611   0.0025749  -0.0268903  -0.0345511  -0.0075233   0.0562011
            7           8           9          10          11          12
    1  -0.0045587  -0.0077864   0.0391760  -0.0038749   0.0162704  -0.0245955
    2  -0.0327179  -0.0235667   0.0345742   0.0097639   0.0119568   0.0315392
    3  -0.0283108   0.0082419   0.0730748  -0.0419093   0.0656857   0.0102702
           13          14          15          16          17          18
    1   0.0002616   0.0317649   0.1209033  -0.0283144  -0.0158896  -0.0102894
    2  -0.0359326  -0.0614150   0.0246280   0.1238832  -0.0489897  -0.0557866
    3   0.0166106   0.0145170   0.0152395  -0.0093605  -0.0412824  -0.0077640
           19          20          21          22          23          24
    1   0.0732917   0.0362562  -0.0245827  -0.0731966  -0.0122284  -0.0068189
    2  -0.0013943   0.0387116   0.0366507   0.0216066  -0.0287772  -0.0044922
    3  -0.0007941   0.0012947   0.0170425   0.0153529  -0.0800920  -0.0029731
           25          26          27          28          29          30
    1   0.0063038  -0.0079055   0.0034155  -0.0037763  -0.0048602   0.0034742
    2  -0.0016010  -0.0071649  -0.0015076  -0.0046403  -0.0067070   0.0023223
    3  -0.0026805  -0.0056739   0.0106684  -0.0060515   0.0105741  -0.0081978
           31          32          33          34          35          36
    1   0.0050598  -0.0239225  -0.0570587   0.0095023   0.0408366   0.0383868
    2  -0.0112639  -0.0138084   0.0133078   0.0644258   0.0285119  -0.0252014
    3  -0.0071047  -0.0471789   0.0012986   0.0219067   0.0149608  -0.0173158
           37          38          39          40          41          42
    1   0.0064041  -0.0421754   0.0001039  -0.0036755  -0.0082428  -0.0088514
    2  -0.0577700  -0.0312835  -0.0049683   0.0012260   0.0033415  -0.0092365
    3  -0.0331385   0.0689177   0.0040819   0.0066601   0.0019784   0.0023026
           43          44          45          46          47          48
    1  -0.0002093  -0.0046700  -0.0036597  -0.0006583  -0.0074227  -0.0080157
    2   0.0072160  -0.0054836   0.0003596   0.0005402   0.0043127   0.0038750
    3  -0.0089936   0.0039036  -0.0119946   0.0085538   0.0102491  -0.0003608
           49          50          51          52          53          54
    1   0.0030567   0.0016979  -0.0039189  -0.0027960  -0.0016999   0.0020487
    2  -0.0018366   0.0031437  -0.0082609  -0.0082964   0.0087698  -0.0007254
    3  -0.0005585   0.0007281  -0.0002284  -0.0023358   0.0022335  -0.0054886
           55          56
    1  -0.0018109  -0.0043729
    2   0.0005584  -0.0034686
    3  -0.0001425  -0.0036672
 Max gradient component =       1.239E-01
 RMS gradient           =       2.828E-02
 Gradient time:  CPU 32.77 s  wall 0.71 s
 Geometry Optimization Parameters
   NAtoms,    NIC,     NZ,  NCons,   NDum,   NFix, NCnnct, MaxDiis
       56     458       0       9       0       0       0       0


** CONSTRAINED OPTIMIZATION IN DELOCALIZED INTERNAL COORDINATES **
   Searching for a Minimum

   Optimization Cycle:   1

                       Coordinates (Angstroms)
     ATOM                X               Y               Z
      1  O        -1.5910789713   -1.0734370706    0.5167228318
      2  C        -2.7025485234   -1.5377090014    0.3067389156
      3  C        -4.0065557970   -0.7829530502    0.4427583153
      4  C        -3.9401326901    0.6327113930    1.0388557759
      5  C        -2.5583232804    1.2040249538    1.2675561175
      6  O        -1.9450253751    1.4293193306    0.0681667598
      7  C        -0.7644344363    2.2310044387    0.1811819336
      8  C         0.0023604451    2.2262285943   -1.1371966516
      9  O         0.7115805327    0.9862108637   -1.2863738113
     10  C         1.8776459120    0.8951579870   -0.5999616502
     11  C         2.5167707332   -0.4691333313   -0.7042315297
     12  C         4.0500848131   -0.4609002299   -0.7888862730
     13  C         4.7261522765    0.8396383302   -0.4038443794
     14  O         4.2794257878    1.9588041666   -0.6098692184
     15  O        -2.7976787275   -2.8075504026   -0.1672419672
     16  O         6.0228254587    0.7442300947   -0.0017166068
     17  O         2.1183370304    1.6372686758    0.3471136802
     18  C         6.8234893596    1.8209039001    0.3185035225
     19  C         2.2823154192   -1.3257899796    0.5537084951
     20  C         2.4059393115   -2.8040863083    0.1955056139
     21  C         3.8940715538   -2.9016770875   -0.0647907809
     22  C         4.3362684578   -1.4874672140    0.3369860775
     23  O         3.4250427529   -1.1132008522    1.3399321539
     24  H         2.0611448490   -0.9932838932   -1.5762391730
     25  H         4.4661083359   -0.7928644066   -1.7649222276
     26  H         1.3046059574   -1.1275948741    1.0457090394
     27  H         2.1651536829   -3.3796466520    1.1181987662
     28  H         1.7549803905   -3.1559357749   -0.6336687518
     29  H         4.3187328690   -3.6652031667    0.6242610335
     30  H         4.1802157964   -3.1311452787   -1.1140979578
     31  H         5.4039138661   -1.5128087526    0.6445932058
     32  O        -2.1475785846    1.5828449801    2.3581363185
     33  C        -1.7147659452   -3.6302613039   -0.3994808604
     34  C        -4.6819622662   -0.4875893650   -0.9093202367
     35  C        -6.1823444917   -0.2779563690   -0.7043749340
     36  C        -6.1907083276    1.0793350831   -0.0281054240
     37  C        -4.6957256189    1.4142509640   -0.0543514382
     38  O        -4.2418110026    0.8071882632   -1.2422723925
     39  H        -4.6615527462   -1.4342077304    1.0648381372
     40  H        -4.4659572416    0.6781935676    2.0191695630
     41  H        -1.1525322449   -3.7993136488    0.5439115883
     42  H        -4.5022668874   -1.2781299319   -1.6702823618
     43  H        -6.6445525939   -0.1727861063   -1.7120362267
     44  H        -6.6969388421   -1.0903029606   -0.1474084206
     45  H        -6.7520627540    1.7901697137   -0.6745860347
     46  H        -6.6066756258    1.0950499149    1.0024680347
     47  H        -4.5371821890    2.5119837691    0.0294735398
     48  H        -1.0432444277   -3.1742342633   -1.1583902284
     49  H        -2.0749371239   -4.6072418541   -0.7817468439
     50  H         7.8264573282    1.4523587583    0.6162978087
     51  H         6.3825409073    2.3848578110    1.1681977174
     52  H         6.9350825256    2.4911960944   -0.5603900091
     53  H        -0.7106171217    2.3679816950   -1.9770584507
     54  H         0.7195950938    3.0785524279   -1.1768981713
     55  H        -0.1147829199    1.9100639463    1.0215848474
     56  H        -1.0931215255    3.2744727760    0.3847359395
   Point Group: c1    Number of degrees of freedom:   162


   Energy is  -1510.144268023

              Constraints and their Current Values
                                        Value     Constraint
   Dihedral:        1   2   3   4       -7.043       -7.043
   Dihedral:        3   4   5   6       67.612       67.612
   Dihedral:        4   5   6   7      167.193      167.193
   Dihedral:        5   6   7   8      169.560      169.559
   Dihedral:        6   7   8   9      -76.776      -76.776
   Dihedral:        7   8   9  10      -79.716      -79.716
   Dihedral:        8   9  10  11      175.198      175.198
   Dihedral:        9  10  11  12      142.890      142.890
   Dihedral:       11  12  13  14      -34.615      -34.615

 Attempting to Generate Delocalized Internal Coordinates

   Using Lagrange Multiplier Algorithm


167 Hessian modes will be used to form the next step
  Hessian Eigenvalues:
    -0.977753   -0.977753   -0.977753   -0.977753   -0.977753   -0.977753
    -0.977753    0.045000    0.045000    0.045000    0.045000    0.045076
     0.045456    0.045541    0.045559    0.045606    0.047667    0.048852
     0.048902    0.054396    0.059934    0.060054    0.062277    0.063042
     0.066947    0.067035    0.067153    0.067897    0.070008    0.070666
     0.072126    0.073404    0.074035    0.075835    0.076095    0.076866
     0.077234    0.082436    0.082589    0.083563    0.084012    0.084059
     0.084473    0.085242    0.085459    0.085853    0.086189    0.086688
     0.087569    0.088284    0.088920    0.089141    0.089281    0.089843
     0.089855    0.093628    0.094051    0.096604    0.096713    0.111442
     0.111643    0.114642    0.114649    0.115833    0.115903    0.116143
     0.117778    0.118087    0.118390    0.119225    0.123630    0.123759
     0.129938    0.130191    0.132308    0.139372    0.141245    0.160000
     0.160000    0.160000    0.160000    0.160000    0.160000    0.171206
     0.172077    0.172122    0.173366    0.220091    0.220617    0.230001
     0.238330    0.241596    0.246262    0.247776    0.249681    0.250000
     0.250000    0.250000    0.250000    0.250000    0.250000    0.250000
     0.250000    0.258234    0.258645    0.266872    0.267366    0.277752
     0.279516    0.281300    0.284523    0.295095    0.295600    0.298748
     0.308046    0.310698    0.310860    0.313324    0.320995    0.321120
     0.321982    0.322203    0.322231    0.322466    0.323045    0.323067
     0.323158    0.323553    0.323592    0.324003    0.324186    0.324347
     0.324453    0.324560    0.324586    0.324657    0.324695    0.324776
     0.324878    0.325002    0.325192    0.326369    0.326788    0.326841
     0.367259    0.371098    0.381852    0.386959    0.401005    0.407708
     0.491627    0.492064    0.517910    0.527570    0.532007    0.537320
     0.923335    0.930344    0.941950    0.942776    1.022753    1.022753
     1.022753    1.022753    1.022753    1.022753    1.022753

 Minimum Search - Taking P-RFO Step
 Searching for Lamda that Maximizes Along the Constraint modes Only
 Value Taken    Lamda =   0.00100993
 Searching for Lamda that Minimizes Along All other modes
 Value Taken    Lamda =  -0.17262695
 Calculated Step too Large.  Step scaled by  0.514977
 Step Taken.  Stepsize is  0.300000

                             Maximum     Tolerance    Cnvgd?
         Gradient            0.112229       0.000300      NO
         Displacement        0.097624       0.001200      NO
         Energy change     *********       0.000001      NO


 New Cartesian Coordinates Obtained by Inverse Iteration

 Displacement from previous Coordinates is:  1.477676
 Adding empirical dispersion correction 
 ----------------------------------------------------------------
 Doing -D3(op) with
 s6 =   1.00000
 s8 =   0.78311
 a1 =   0.30000
 a2 =   4.25000
 n  =  10.00000
 -D3 energy without 3body term =     -0.0669637780 hartrees
 ----------------------------------------------------------------
             Standard Nuclear Orientation (Angstroms)
    I     Atom           X                Y                Z
 ----------------------------------------------------------------
    1      O      -1.5864273328    -1.0424952074     0.5799916674
    2      C      -2.6981546359    -1.5343946274     0.3331855622
    3      C      -4.0439907354    -0.8094868209     0.4326003260
    4      C      -4.0170472813     0.6187785829     1.0445645748
    5      C      -2.6271432568     1.2178130789     1.3047624054
    6      O      -1.9906720990     1.4606940321     0.0963884203
    7      C      -0.8112738102     2.2881575373     0.2344271896
    8      C      -0.0329662333     2.2865870533    -1.0958872412
    9      O       0.7031483762     1.0474466769    -1.2554742812
   10      C       1.8923310902     0.9813788036    -0.5557292176
   11      C       2.5297823681    -0.4066022699    -0.6968265863
   12      C       4.0870062824    -0.4498550389    -0.8016045520
   13      C       4.8337991828     0.8419558874    -0.4311563563
   14      O       4.4424727912     2.0006746878    -0.6337726298
   15      O      -2.8047746809    -2.8186147850    -0.1553966257
   16      O       6.1405808140     0.6200166583    -0.0443076877
   17      O       2.1396065679     1.7428713900     0.3952067804
   18      C       6.9905066585     1.6982925238     0.2592653282
   19      C       2.2853035439    -1.2718617370     0.5810201222
   20      C       2.3623326759    -2.7702789815     0.2020370273
   21      C       3.8646824836    -2.9130724888    -0.0853147301
   22      C       4.3665886087    -1.5001937017     0.3296633247
   23      O       3.4676251569    -1.0926516151     1.3689190798
   24      H       2.0537975221    -0.9109828351    -1.5645170707
   25      H       4.4741025145    -0.7917934257    -1.7828449526
   26      H       1.3249133533    -1.0433177421     1.0897640344
   27      H       2.1143984948    -3.3474871051     1.1158748162
   28      H       1.6907460777    -3.0896031780    -0.6177869524
   29      H       4.2817244233    -3.6922327244     0.5823270662
   30      H       4.1235181592    -3.1412761444    -1.1372570439
   31      H       5.4360081350    -1.5511164662     0.6212874727
   32      O      -2.2257521429     1.5987039283     2.4131090301
   33      C      -1.6524942512    -3.6022407016    -0.3501060294
   34      C      -4.7040038913    -0.5221721822    -0.9525949426
   35      C      -6.2323523742    -0.3467721750    -0.7612920134
   36      C      -6.2806426699     1.0280385712    -0.0674916258
   37      C      -4.7732008305     1.4053868135    -0.0741136128
   38      O      -4.2770496815     0.8067595887    -1.2806591163
   39      H      -4.6989932667    -1.4759010014     1.0332020069
   40      H      -4.5615061250     0.6487650436     2.0104215934
   41      H      -1.1054501820    -3.7577860326     0.6063880244
   42      H      -4.4845896968    -1.2990736242    -1.7143371126
   43      H      -6.6860940073    -0.2533831923    -1.7685546404
   44      H      -6.7300536256    -1.1712137056    -0.2157317221
   45      H      -6.8492731348     1.7303172617    -0.7084021511
   46      H      -6.7074642038     1.0272624807     0.9538903676
   47      H      -4.6316436022     2.5030178916     0.0124912518
   48      H      -0.9640700936    -3.1277245426    -1.0845546855
   49      H      -1.9650684811    -4.5902165700    -0.7445073860
   50      H       7.9807497456     1.2907930222     0.5473336820
   51      H       6.5915261254     2.2959857199     1.1086559759
   52      H       7.1232827739     2.3657236198    -0.6212414948
   53      H      -0.7422597188     2.4124531747    -1.9410066835
   54      H       0.6701956709     3.1502680513    -1.1258143222
   55      H      -0.1616999150     1.9755952751     1.0789951099
   56      H      -1.1508744715     3.3296549008     0.4380739464
 ----------------------------------------------------------------
 Molecular Point Group                 C1    NOp =  1
 Largest Abelian Subgroup              C1    NOp =  1
 Nuclear Repulsion Energy =  3196.3103540213 hartrees
 There are      113 alpha and      113 beta electrons
 Applying Cartesian multipole field
    Component          Value
    ---------          -----
     (2,0,0)        1.00000E-12
     (0,2,0)        2.00000E-11
     (0,0,2)       -3.00000E-11
 Nucleus-field energy     =     0.0000000419 hartrees
 Requested basis set is STO-3G
 There are 86 shells and 176 basis functions
 A cutoff of  1.0D-12 yielded   2245 shell pairs
 There are     10684 function pairs
 Smallest overlap matrix eigenvalue = 2.02E-01
 Guess MOs from SCF MO coefficient file
 Reading MOs from coefficient file
 Reading MOs from coefficient file
 A restricted hybrid HF-DFT SCF calculation will be
 performed using Pulay DIIS extrapolation
 Exchange:     0.2000 Hartree-Fock + 0.0800 Slater + 0.7200 B88
 Correlation:  0.1900 VWN1RPA + 0.8100 LYP
 Using SG-1 standard quadrature grid
 Dispersion:   Grimme D3
 SCF converges when DIIS error is below 1.0E-08
 Geometry optimization detected.  Setting ReadMinima to 0
 Setting SaveMinima to 0
 using 48 threads for integral computing
 -------------------------------------------------------
 OpenMP Integral computing Module                
 Release: version 1.0, May 2013, Q-Chem Inc. Pittsburgh 
 -------------------------------------------------------
 -------------------------------------------------------
 OpenMP BLAS3 based DFT computing Module                
 Release: version 1.0, May 2013, Q-Chem Inc. Pittsburgh 
 -------------------------------------------------------
 ---------------------------------------
  Cycle       Energy         DIIS Error
 ---------------------------------------
    1   -1510.0305785644      3.58E-03
    2   -1510.2105060207      9.48E-04
    3   -1510.2037985049      1.58E-03
    4   -1510.2141252605      3.46E-04
    5   -1510.2146688418      6.52E-05
    6   -1510.2146854131      2.85E-05
    7   -1510.2146882766      1.34E-05
    8   -1510.2146890787      2.40E-06
    9   -1510.2146891077      7.39E-07
   10   -1510.2146891093      4.71E-07
   11   -1510.2146891103      1.36E-07
   12   -1510.2146891104      2.20E-08
   13   -1510.2146891105      1.07E-08
   14   -1510.2146891105      5.83E-09 Convergence criterion met
 ---------------------------------------
 SCF time:  CPU 97.63 s  wall 2.04 s
 SCF   energy in the final basis set = -1510.21468911
 Total energy in the final basis set = -1510.21468911
 
 --------------------------------------------------------------
 
                    Orbital Energies (a.u.)
 --------------------------------------------------------------
 
 Alpha MOs
 -- Occupied --
-18.939 -18.929 -18.926 -18.925 -18.898 -18.892 -18.865 -18.853
-18.853 -18.848 -10.109 -10.098 -10.094 -10.092 -10.081 -10.075
-10.072 -10.067 -10.065 -10.065 -10.059 -10.057 -10.040 -10.037
-10.032 -10.031 -10.018 -10.017 -10.013 -10.012  -1.036  -1.026
 -1.021  -1.014  -1.002  -0.999  -0.944  -0.936  -0.932  -0.923
 -0.774  -0.768  -0.735  -0.730  -0.725  -0.716  -0.701  -0.678
 -0.668  -0.620  -0.601  -0.581  -0.550  -0.542  -0.537  -0.531
 -0.523  -0.514  -0.497  -0.482  -0.477  -0.463  -0.450  -0.448
 -0.443  -0.437  -0.425  -0.422  -0.420  -0.417  -0.415  -0.412
 -0.396  -0.389  -0.383  -0.376  -0.369  -0.359  -0.353  -0.345
 -0.341  -0.340  -0.338  -0.337  -0.335  -0.327  -0.316  -0.314
 -0.307  -0.306  -0.299  -0.295  -0.294  -0.289  -0.283  -0.274
 -0.265  -0.241  -0.236  -0.235  -0.232  -0.232  -0.224  -0.179
 -0.170  -0.165  -0.162  -0.151  -0.147  -0.143  -0.141  -0.137
 -0.123
 -- Virtual --
  0.107   0.109   0.117   0.119   0.248   0.252   0.259   0.263
  0.271   0.290   0.314   0.325   0.338   0.343   0.350   0.356
  0.370   0.373   0.375   0.376   0.380   0.382   0.386   0.390
  0.397   0.401   0.402   0.407   0.410   0.414   0.418   0.421
  0.425   0.426   0.429   0.434   0.436   0.441   0.446   0.449
  0.455   0.458   0.462   0.465   0.472   0.476   0.478   0.481
  0.482   0.488   0.489   0.501   0.505   0.517   0.534   0.552
  0.555   0.561   0.565   0.664   0.666   0.679   0.683
 --------------------------------------------------------------
 
          Ground-State Mulliken Net Atomic Charges

     Atom                 Charge (a.u.)
  ----------------------------------------
      1 O                    -0.222434
      2 C                     0.227482
      3 C                    -0.080060
      4 C                    -0.081839
      5 C                     0.228040
      6 O                    -0.180231
      7 C                    -0.040286
      8 C                    -0.035306
      9 O                    -0.185052
     10 C                     0.222133
     11 C                    -0.079688
     12 C                    -0.078472
     13 C                     0.228314
     14 O                    -0.220677
     15 O                    -0.200589
     16 O                    -0.203153
     17 O                    -0.220172
     18 C                    -0.105319
     19 C                     0.035355
     20 C                    -0.142075
     21 C                    -0.145865
     22 C                     0.033739
     23 O                    -0.200832
     24 H                     0.084025
     25 H                     0.086914
     26 H                     0.093098
     27 H                     0.074208
     28 H                     0.070312
     29 H                     0.074403
     30 H                     0.070354
     31 H                     0.089403
     32 O                    -0.227415
     33 C                    -0.105854
     34 C                     0.035329
     35 C                    -0.142530
     36 C                    -0.144494
     37 C                     0.036256
     38 O                    -0.197708
     39 H                     0.085922
     40 H                     0.084832
     41 H                     0.087499
     42 H                     0.086304
     43 H                     0.075398
     44 H                     0.073503
     45 H                     0.075884
     46 H                     0.073444
     47 H                     0.082771
     48 H                     0.086793
     49 H                     0.094057
     50 H                     0.091810
     51 H                     0.089794
     52 H                     0.085534
     53 H                     0.097487
     54 H                     0.093949
     55 H                     0.105673
     56 H                     0.080030
  ----------------------------------------
  Sum of atomic charges =    -0.000000

 -----------------------------------------------------------------
                    Cartesian Multipole Moments
 -----------------------------------------------------------------
    Charge (ESU x 10^10)
                 0.0000
    Dipole Moment (Debye)
         X      -1.2251      Y      -2.6349      Z      -2.1610
       Tot       3.6212
    Quadrupole Moments (Debye-Ang)
        XX    -135.4921     XY      -2.1894     YY    -150.6217
        XZ      -4.9790     YZ      -1.0332     ZZ    -166.1791
    Octopole Moments (Debye-Ang^2)
       XXX      49.5675    XXY      18.3393    XYY      -3.8502
       YYY       1.8601    XXZ       7.2146    XYZ       7.8155
       YYZ      -7.5230    XZZ      14.2964    YZZ      -7.4351
       ZZZ     -16.2564
    Hexadecapole Moments (Debye-Ang^3)
      XXXX  -13060.4655   XXXY     247.8707   XXYY   -2876.3233
      XYYY      21.4138   YYYY   -2910.7760   XXXZ     -11.5044
      XXYZ      36.7446   XYYZ      28.4303   YYYZ     -12.2185
      XXZZ   -2554.0281   XYZZ      59.8904   YYZZ    -643.1704
      XZZZ      22.4832   YZZZ     -21.3201   ZZZZ    -861.3069
 -----------------------------------------------------------------
 Calculating analytic gradient of the SCF energy
 Gradient of SCF Energy
            1           2           3           4           5           6
    1  -0.0263481  -0.0346418   0.0203537   0.0119912   0.0060272   0.0024325
    2  -0.0134803  -0.0190463   0.0272057   0.0088733  -0.0032579   0.0084468
    3  -0.0140824   0.0003364  -0.0172280  -0.0181920  -0.0105728   0.0369181
            7           8           9          10          11          12
    1  -0.0005883  -0.0082712   0.0236692  -0.0025544   0.0057522  -0.0116072
    2  -0.0241327  -0.0173668   0.0249341   0.0023283   0.0047759   0.0222206
    3  -0.0187330   0.0008247   0.0529092  -0.0445442   0.0424932  -0.0022328
           13          14          15          16          17          18
    1   0.0067028   0.0154465   0.0834929  -0.0146561  -0.0112196  -0.0092141
    2  -0.0400091  -0.0269410   0.0194087   0.0874923  -0.0266481  -0.0428983
    3   0.0191134   0.0039363   0.0127990  -0.0073361  -0.0124491  -0.0050654
           19          20          21          22          23          24
    1   0.0454966   0.0200048  -0.0112640  -0.0444557  -0.0076536  -0.0049408
    2   0.0014572   0.0215376   0.0196950   0.0185829  -0.0166777  -0.0030750
    3   0.0030102  -0.0013307   0.0088976   0.0146502  -0.0476068  -0.0011399
           25          26          27          28          29          30
    1   0.0057342  -0.0069142   0.0030689  -0.0026896  -0.0045016   0.0028805
    2  -0.0005144  -0.0062560  -0.0001082  -0.0038647  -0.0039281   0.0017210
    3  -0.0005787  -0.0059233   0.0069564  -0.0026082   0.0070123  -0.0045709
           31          32          33          34          35          36
    1   0.0036689  -0.0130899  -0.0440585   0.0079024   0.0223244   0.0208993
    2  -0.0099907  -0.0054824   0.0077111   0.0415382   0.0133340  -0.0118902
    3  -0.0072094  -0.0229011  -0.0007528   0.0103945   0.0101373  -0.0074828
           37          38          39          40          41          42
    1   0.0075704  -0.0261432   0.0007465  -0.0020713  -0.0039665  -0.0077258
    2  -0.0334123  -0.0197269  -0.0036297   0.0007822   0.0009709  -0.0077919
    3  -0.0246044   0.0413454   0.0027153   0.0038109   0.0019359   0.0026493
           43          44          45          46          47          48
    1   0.0007436  -0.0035830  -0.0018228  -0.0003076  -0.0066664  -0.0035974
    2   0.0052217  -0.0033270  -0.0008682   0.0013498   0.0025273   0.0019907
    3  -0.0055059   0.0009993  -0.0082164   0.0049322   0.0092724  -0.0014369
           49          50          51          52          53          54
    1   0.0029434   0.0022365  -0.0023166  -0.0010209  -0.0012670   0.0015798
    2  -0.0020400   0.0027779  -0.0038492  -0.0037828   0.0078014  -0.0005102
    3  -0.0005730   0.0008019   0.0011527  -0.0021917   0.0013667  -0.0042813
           55          56
    1  -0.0008816  -0.0036295
    2   0.0016818  -0.0018607
    3   0.0003848  -0.0024056
 Max gradient component =       8.749E-02
 RMS gradient           =       1.857E-02
 Gradient time:  CPU 30.03 s  wall 0.63 s
 Geometry Optimization Parameters
   NAtoms,    NIC,     NZ,  NCons,   NDum,   NFix, NCnnct, MaxDiis
       56     458       0       9       0       0       0       0

 Cartesian Hessian Update
 Hessian Updated using BFGS Update


** CONSTRAINED OPTIMIZATION IN DELOCALIZED INTERNAL COORDINATES **
   Searching for a Minimum

   Optimization Cycle:   2

                       Coordinates (Angstroms)
     ATOM                X               Y               Z
      1  O        -1.5864273328   -1.0424952074    0.5799916674
      2  C        -2.6981546359   -1.5343946274    0.3331855622
      3  C        -4.0439907354   -0.8094868209    0.4326003260
      4  C        -4.0170472813    0.6187785829    1.0445645748
      5  C        -2.6271432568    1.2178130789    1.3047624054
      6  O        -1.9906720990    1.4606940321    0.0963884203
      7  C        -0.8112738102    2.2881575373    0.2344271896
      8  C        -0.0329662333    2.2865870533   -1.0958872412
      9  O         0.7031483762    1.0474466769   -1.2554742812
     10  C         1.8923310902    0.9813788036   -0.5557292176
     11  C         2.5297823681   -0.4066022699   -0.6968265863
     12  C         4.0870062824   -0.4498550389   -0.8016045520
     13  C         4.8337991828    0.8419558874   -0.4311563563
     14  O         4.4424727912    2.0006746878   -0.6337726298
     15  O        -2.8047746809   -2.8186147850   -0.1553966257
     16  O         6.1405808140    0.6200166583   -0.0443076877
     17  O         2.1396065679    1.7428713900    0.3952067804
     18  C         6.9905066585    1.6982925238    0.2592653282
     19  C         2.2853035439   -1.2718617370    0.5810201222
     20  C         2.3623326759   -2.7702789815    0.2020370273
     21  C         3.8646824836   -2.9130724888   -0.0853147301
     22  C         4.3665886087   -1.5001937017    0.3296633247
     23  O         3.4676251569   -1.0926516151    1.3689190798
     24  H         2.0537975221   -0.9109828351   -1.5645170707
     25  H         4.4741025145   -0.7917934257   -1.7828449526
     26  H         1.3249133533   -1.0433177421    1.0897640344
     27  H         2.1143984948   -3.3474871051    1.1158748162
     28  H         1.6907460777   -3.0896031780   -0.6177869524
     29  H         4.2817244233   -3.6922327244    0.5823270662
     30  H         4.1235181592   -3.1412761444   -1.1372570439
     31  H         5.4360081350   -1.5511164662    0.6212874727
     32  O        -2.2257521429    1.5987039283    2.4131090301
     33  C        -1.6524942512   -3.6022407016   -0.3501060294
     34  C        -4.7040038913   -0.5221721822   -0.9525949426
     35  C        -6.2323523742   -0.3467721750   -0.7612920134
     36  C        -6.2806426699    1.0280385712   -0.0674916258
     37  C        -4.7732008305    1.4053868135   -0.0741136128
     38  O        -4.2770496815    0.8067595887   -1.2806591163
     39  H        -4.6989932667   -1.4759010014    1.0332020069
     40  H        -4.5615061250    0.6487650436    2.0104215934
     41  H        -1.1054501820   -3.7577860326    0.6063880244
     42  H        -4.4845896968   -1.2990736242   -1.7143371126
     43  H        -6.6860940073   -0.2533831923   -1.7685546404
     44  H        -6.7300536256   -1.1712137056   -0.2157317221
     45  H        -6.8492731348    1.7303172617   -0.7084021511
     46  H        -6.7074642038    1.0272624807    0.9538903676
     47  H        -4.6316436022    2.5030178916    0.0124912518
     48  H        -0.9640700936   -3.1277245426   -1.0845546855
     49  H        -1.9650684811   -4.5902165700   -0.7445073860
     50  H         7.9807497456    1.2907930222    0.5473336820
     51  H         6.5915261254    2.2959857199    1.1086559759
     52  H         7.1232827739    2.3657236198   -0.6212414948
     53  H        -0.7422597188    2.4124531747   -1.9410066835
     54  H         0.6701956709    3.1502680513   -1.1258143222
     55  H        -0.1616999150    1.9755952751    1.0789951099
     56  H        -1.1508744715    3.3296549008    0.4380739464
   Point Group: c1    Number of degrees of freedom:   162


   Energy is  -1510.214689110

              Constraints and their Current Values
                                        Value     Constraint
   Dihedral:        1   2   3   4       -7.043       -7.043
   Dihedral:        3   4   5   6       67.590       67.612
   Dihedral:        4   5   6   7      167.193      167.193
   Dihedral:        5   6   7   8      169.566      169.559
   Dihedral:        6   7   8   9      -76.849      -76.776
   Dihedral:        7   8   9  10      -79.739      -79.716
   Dihedral:        8   9  10  11      175.202      175.198
   Dihedral:        9  10  11  12      142.937      142.890
   Dihedral:       11  12  13  14      -34.634      -34.615
 Hessian Updated using BFGS Update

   Using Lagrange Multiplier Algorithm


155 Hessian modes will be used to form the next step
  Hessian Eigenvalues:
    -0.977753   -0.977753   -0.977753   -0.977753   -0.977753   -0.977753
    -0.977338    0.045000    0.045000    0.045075    0.045455    0.045554
     0.045574    0.045637    0.047399    0.048849    0.048922    0.054377
     0.059872    0.060091    0.062272    0.063194    0.066935    0.067027
     0.067182    0.067897    0.070007    0.070665    0.072108    0.073474
     0.073993    0.075832    0.076083    0.076921    0.077244    0.082436
     0.082584    0.083555    0.083990    0.084066    0.084638    0.085248
     0.085424    0.085860    0.086297    0.086685    0.087762    0.088250
     0.088992    0.089114    0.089348    0.089764    0.089895    0.093628
     0.094113    0.096604    0.096766    0.111468    0.111654    0.114645
     0.114673    0.115833    0.115903    0.116193    0.117668    0.117936
     0.118345    0.119238    0.123626    0.123759    0.129926    0.130150
     0.132294    0.140829    0.141433    0.159605    0.161607    0.169981
     0.171533    0.173018    0.173499    0.220093    0.220202    0.228854
     0.230922    0.238351    0.241623    0.246279    0.247792    0.249723
     0.252942    0.258265    0.262911    0.267277    0.267677    0.278539
     0.280113    0.282236    0.287833    0.295313    0.297615    0.300741
     0.308874    0.310641    0.312117    0.320354    0.321119    0.321169
     0.322067    0.322204    0.322356    0.322663    0.323053    0.323109
     0.323493    0.323564    0.323664    0.324009    0.324219    0.324365
     0.324450    0.324540    0.324577    0.324641    0.324734    0.324838
     0.324961    0.325188    0.326364    0.326735    0.326825    0.330644
     0.367279    0.371107    0.383047    0.400397    0.406714    0.430275
     0.475550    0.491859    0.517652    0.523980    0.530491    0.538671
     0.926426    0.931881    0.942378    0.986085    1.022753    1.022753
     1.022753    1.022753    1.022753    1.022753    1.027169

 Minimum Search - Taking P-RFO Step
 Searching for Lamda that Maximizes Along the Constraint modes Only
 Value Taken    Lamda =   0.00003918
 Searching for Lamda that Minimizes Along All other modes
 Value Taken    Lamda =  -0.08249933
 Calculated Step too Large.  Step scaled by  0.594215
 Step Taken.  Stepsize is  0.300000

                             Maximum     Tolerance    Cnvgd?
         Gradient            0.066205       0.000300      NO
         Displacement        0.091084       0.001200      NO
         Energy change     -0.070421       0.000001      NO


 New Cartesian Coordinates Obtained by Inverse Iteration

 Displacement from previous Coordinates is:  0.815675
 Adding empirical dispersion correction 
 ----------------------------------------------------------------
 Doing -D3(op) with
 s6 =   1.00000
 s8 =   0.78311
 a1 =   0.30000
 a2 =   4.25000
 n  =  10.00000
 -D3 energy without 3body term =     -0.0669932828 hartrees
 ----------------------------------------------------------------
             Standard Nuclear Orientation (Angstroms)
    I     Atom           X                Y                Z
 ----------------------------------------------------------------
    1      O      -1.5759879848    -1.0444379558     0.6342604090
    2      C      -2.6939664212    -1.5276657994     0.3589073724
    3      C      -4.0639245343    -0.8089772717     0.4240097911
    4      C      -4.0437295473     0.6257278650     1.0490789162
    5      C      -2.6354341999     1.2170407532     1.3241726455
    6      O      -1.9911048288     1.4608178759     0.0985772306
    7      C      -0.7976154836     2.2863884514     0.2676255176
    8      C      -0.0154784597     2.2796379342    -1.0749771271
    9      O       0.7143045448     1.0243258115    -1.2531282530
   10      C       1.9177360365     0.9785606018    -0.5333964650
   11      C       2.5394870079    -0.4304941615    -0.6981494490
   12      C       4.0992949693    -0.4846142215    -0.8106735722
   13      C       4.8274020006     0.8373395899    -0.4451872754
   14      O       4.4214181484     1.9982000497    -0.6551774595
   15      O      -2.8365266798    -2.8251939424    -0.1428561263
   16      O       6.1456461278     0.5833104882    -0.0428331337
   17      O       2.1845290420     1.7740636509     0.3936685573
   18      C       6.9272879346     1.7518815543     0.2458484331
   19      C       2.2910947667    -1.3092776650     0.5901010353
   20      C       2.3589374968    -2.8154899159     0.1800907589
   21      C       3.8765079660    -2.9627709003    -0.1231208930
   22      C       4.3967798175    -1.5491280521     0.3190844151
   23      O       3.4957124590    -1.1432363912     1.3872636484
   24      H       2.0541767863    -0.9230806511    -1.5630780921
   25      H       4.4768280216    -0.8227873080    -1.7951251017
   26      H       1.3450130213    -1.0671831339     1.1156668107
   27      H       2.1085434704    -3.4114179941     1.0766326498
   28      H       1.6825231883    -3.1076752406    -0.6414163967
   29      H       4.3027949316    -3.7537226507     0.5180746433
   30      H       4.1199799921    -3.1720114699    -1.1791877165
   31      H       5.4650193733    -1.5858580499     0.6103703190
   32      O      -2.2177287584     1.5879825391     2.4388351033
   33      C      -1.6079277121    -3.5555331042    -0.2840691917
   34      C      -4.7046034464    -0.5159013534    -0.9851141865
   35      C      -6.2485750624    -0.3412279452    -0.7982791549
   36      C      -6.3038228497     1.0435826685    -0.0892952781
   37      C      -4.7843189888     1.4315852960    -0.0851702618
   38      O      -4.2660481301     0.8341754816    -1.3096432613
   39      H      -4.7299517743    -1.4766159510     1.0061125966
   40      H      -4.5999946810     0.6522444730     2.0047159949
   41      H      -1.0897673793    -3.6812025106     0.6915738159
   42      H      -4.4608066227    -1.2795378411    -1.7505517801
   43      H      -6.7022207538    -0.2497799437    -1.8016756002
   44      H      -6.7404267424    -1.1676976034    -0.2569693082
   45      H      -6.8714599022     1.7506676023    -0.7194474453
   46      H      -6.7337114892     1.0313191829     0.9271403744
   47      H      -4.6304960780     2.5260084209    -0.0018160385
   48      H      -0.9114597913    -3.0517435299    -0.9893979603
   49      H      -1.8640876387    -4.5551412978    -0.6854141905
   50      H       7.9335980566     1.4059585767     0.5519968653
   51      H       6.4842569955     2.3469927861     1.0736586055
   52      H       7.0281251871     2.4086143071    -0.6458310736
   53      H      -0.7201849564     2.4067791552    -1.9226685407
   54      H       0.6933691245     3.1381732921    -1.0897676188
   55      H      -0.1535188755     1.9564287264     1.1103398609
   56      H      -1.1217435299     3.3311883551     0.4811743016
 ----------------------------------------------------------------
 Molecular Point Group                 C1    NOp =  1
 Largest Abelian Subgroup              C1    NOp =  1
 Nuclear Repulsion Energy =  3182.1068238974 hartrees
 There are      113 alpha and      113 beta electrons
 Applying Cartesian multipole field
    Component          Value
    ---------          -----
     (2,0,0)        1.00000E-12
     (0,2,0)        2.00000E-11
     (0,0,2)       -3.00000E-11
 Nucleus-field energy     =     0.0000000420 hartrees
 Requested basis set is STO-3G
 There are 86 shells and 176 basis functions
 A cutoff of  1.0D-12 yielded   2243 shell pairs
 There are     10664 function pairs
 Smallest overlap matrix eigenvalue = 2.07E-01
 Guess MOs from SCF MO coefficient file
 Reading MOs from coefficient file
 Reading MOs from coefficient file
 A restricted hybrid HF-DFT SCF calculation will be
 performed using Pulay DIIS extrapolation
 Exchange:     0.2000 Hartree-Fock + 0.0800 Slater + 0.7200 B88
 Correlation:  0.1900 VWN1RPA + 0.8100 LYP
 Using SG-1 standard quadrature grid
 Dispersion:   Grimme D3
 SCF converges when DIIS error is below 1.0E-08
 Geometry optimization detected.  Setting ReadMinima to 0
 Setting SaveMinima to 0
 using 48 threads for integral computing
 -------------------------------------------------------
 OpenMP Integral computing Module                
 Release: version 1.0, May 2013, Q-Chem Inc. Pittsburgh 
 -------------------------------------------------------
 -------------------------------------------------------
 OpenMP BLAS3 based DFT computing Module                
 Release: version 1.0, May 2013, Q-Chem Inc. Pittsburgh 
 -------------------------------------------------------
 ---------------------------------------
  Cycle       Energy         DIIS Error
 ---------------------------------------
    1   -1510.1079657758      2.77E-03
    2   -1510.2490504395      8.49E-04
    3   -1510.2430868352      1.46E-03
    4   -1510.2519870593      2.86E-04
    5   -1510.2523541690      6.20E-05
    6   -1510.2523681997      2.99E-05
    7   -1510.2523715255      1.22E-05
    8   -1510.2523721875      2.33E-06
    9   -1510.2523722148      7.96E-07
   10   -1510.2523722167      4.67E-07
   11   -1510.2523722176      1.05E-07
   12   -1510.2523722177      2.09E-08
   13   -1510.2523722178      1.22E-08
   14   -1510.2523722179      7.18E-09 Convergence criterion met
 ---------------------------------------
 SCF time:  CPU 98.84 s  wall 2.07 s
 SCF   energy in the final basis set = -1510.25237222
 Total energy in the final basis set = -1510.25237222
 
 --------------------------------------------------------------
 
                    Orbital Energies (a.u.)
 --------------------------------------------------------------
 
 Alpha MOs
 -- Occupied --
-18.941 -18.930 -18.927 -18.922 -18.896 -18.890 -18.872 -18.860
-18.855 -18.853 -10.105 -10.095 -10.091 -10.089 -10.075 -10.071
-10.066 -10.064 -10.063 -10.063 -10.057 -10.055 -10.039 -10.036
-10.032 -10.030 -10.019 -10.018 -10.014 -10.013  -1.028  -1.018
 -1.012  -1.005  -0.987  -0.984  -0.942  -0.935  -0.928  -0.920
 -0.769  -0.764  -0.730  -0.725  -0.719  -0.710  -0.696  -0.672
 -0.662  -0.615  -0.598  -0.578  -0.549  -0.541  -0.536  -0.531
 -0.520  -0.511  -0.492  -0.476  -0.471  -0.458  -0.448  -0.443
 -0.439  -0.433  -0.421  -0.419  -0.416  -0.413  -0.411  -0.407
 -0.392  -0.384  -0.377  -0.369  -0.364  -0.356  -0.350  -0.347
 -0.341  -0.337  -0.335  -0.334  -0.333  -0.326  -0.316  -0.314
 -0.306  -0.305  -0.299  -0.295  -0.294  -0.286  -0.281  -0.272
 -0.264  -0.249  -0.242  -0.237  -0.236  -0.234  -0.230  -0.182
 -0.173  -0.166  -0.163  -0.151  -0.148  -0.146  -0.144  -0.138
 -0.125
 -- Virtual --
  0.101   0.107   0.111   0.115   0.246   0.250   0.255   0.261
  0.268   0.283   0.302   0.313   0.331   0.335   0.338   0.347
  0.358   0.361   0.362   0.364   0.369   0.373   0.377   0.384
  0.388   0.391   0.400   0.404   0.409   0.409   0.413   0.418
  0.419   0.422   0.424   0.427   0.431   0.434   0.439   0.442
  0.444   0.448   0.449   0.455   0.461   0.466   0.467   0.471
  0.475   0.478   0.484   0.495   0.497   0.512   0.525   0.546
  0.549   0.553   0.558   0.650   0.653   0.668   0.669
 --------------------------------------------------------------
 
          Ground-State Mulliken Net Atomic Charges

     Atom                 Charge (a.u.)
  ----------------------------------------
      1 O                    -0.215130
      2 C                     0.219233
      3 C                    -0.079670
      4 C                    -0.081627
      5 C                     0.220192
      6 O                    -0.175549
      7 C                    -0.043073
      8 C                    -0.040189
      9 O                    -0.178947
     10 C                     0.216083
     11 C                    -0.080556
     12 C                    -0.078642
     13 C                     0.219683
     14 O                    -0.213425
     15 O                    -0.186243
     16 O                    -0.188434
     17 O                    -0.214162
     18 C                    -0.115523
     19 C                     0.031007
     20 C                    -0.142795
     21 C                    -0.146339
     22 C                     0.029395
     23 O                    -0.194296
     24 H                     0.084380
     25 H                     0.085973
     26 H                     0.092136
     27 H                     0.074687
     28 H                     0.070786
     29 H                     0.075166
     30 H                     0.071242
     31 H                     0.089687
     32 O                    -0.223144
     33 C                    -0.115841
     34 C                     0.031099
     35 C                    -0.143207
     36 C                    -0.145105
     37 C                     0.032020
     38 O                    -0.190323
     39 H                     0.085581
     40 H                     0.084308
     41 H                     0.088445
     42 H                     0.086235
     43 H                     0.076142
     44 H                     0.074146
     45 H                     0.076366
     46 H                     0.073995
     47 H                     0.082695
     48 H                     0.087845
     49 H                     0.092568
     50 H                     0.090483
     51 H                     0.090795
     52 H                     0.086520
     53 H                     0.096373
     54 H                     0.092980
     55 H                     0.104021
     56 H                     0.079949
  ----------------------------------------
  Sum of atomic charges =     0.000000

 -----------------------------------------------------------------
                    Cartesian Multipole Moments
 -----------------------------------------------------------------
    Charge (ESU x 10^10)
                 0.0000
    Dipole Moment (Debye)
         X      -1.2315      Y      -2.5173      Z      -2.0801
       Tot       3.4900
    Quadrupole Moments (Debye-Ang)
        XX    -136.0565     XY      -1.9594     YY    -150.7412
        XZ      -5.3456     YZ      -0.7484     ZZ    -166.3882
    Octopole Moments (Debye-Ang^2)
       XXX      36.2798    XXY      21.6901    XYY      -0.3139
       YYY       5.9375    XXZ       5.5642    XYZ       8.1988
       YYZ      -6.4431    XZZ      13.7738    YZZ      -6.5135
       ZZZ     -17.0202
    Hexadecapole Moments (Debye-Ang^3)
      XXXX  -13130.9916   XXXY     275.1758   XXYY   -2873.9914
      XYYY      38.4836   YYYY   -2945.8961   XXXZ     -18.8421
      XXYZ      39.6677   XYYZ      25.4713   YYYZ     -10.4388
      XXZZ   -2561.4569   XYZZ      68.3034   YYZZ    -651.8231
      XZZZ      25.5444   YZZZ     -17.9781   ZZZZ    -874.7821
 -----------------------------------------------------------------
 Calculating analytic gradient of the SCF energy
 Gradient of SCF Energy
            1           2           3           4           5           6
    1  -0.0086807  -0.0231669   0.0107176   0.0057825   0.0035068   0.0015537
    2  -0.0036461  -0.0172979   0.0164106   0.0058878  -0.0052976   0.0037040
    3  -0.0090138   0.0018130  -0.0117162  -0.0079567  -0.0091479   0.0191978
            7           8           9          10          11          12
    1   0.0010837  -0.0074879   0.0126585   0.0043693   0.0037256  -0.0083672
    2  -0.0161179  -0.0117963   0.0125172   0.0037542   0.0012315   0.0142861
    3  -0.0081212  -0.0032447   0.0344875  -0.0380637   0.0249110  -0.0089322
           13          14          15          16          17          18
    1   0.0046102   0.0029516   0.0458583  -0.0088175  -0.0041422  -0.0064483
    2  -0.0265353  -0.0090327   0.0122607   0.0472843  -0.0125460  -0.0262933
    3   0.0201834   0.0006282   0.0081037  -0.0067411   0.0003154  -0.0032325
           19          20          21          22          23          24
    1   0.0262805   0.0078005  -0.0032970  -0.0253405  -0.0036746  -0.0027561
    2   0.0028672   0.0108702   0.0083246   0.0121162  -0.0083236  -0.0029482
    3   0.0047949  -0.0032508   0.0026018   0.0120111  -0.0238837   0.0003163
           25          26          27          28          29          30
    1   0.0046561  -0.0050136   0.0026641  -0.0019155  -0.0035831   0.0022498
    2  -0.0007382  -0.0046518   0.0009584  -0.0030465  -0.0017193   0.0012139
    3   0.0003835  -0.0052350   0.0040646  -0.0001174   0.0041683  -0.0018403
           31          32          33          34          35          36
    1   0.0024054  -0.0064655  -0.0269969   0.0062486   0.0105622   0.0092893
    2  -0.0070331  -0.0004811   0.0058514   0.0237580   0.0040532  -0.0051629
    3  -0.0063629  -0.0082782  -0.0005969   0.0034395   0.0072983  -0.0011495
           37          38          39          40          41          42
    1   0.0060604  -0.0136434   0.0009128  -0.0009795  -0.0014515  -0.0059942
    2  -0.0166095  -0.0099390  -0.0021419   0.0003271  -0.0000510  -0.0059148
    3  -0.0165007   0.0204065   0.0015609   0.0016516   0.0011827   0.0026913
           43          44          45          46          47          48
    1   0.0014111  -0.0025391  -0.0003878   0.0000074  -0.0051398  -0.0011795
    2   0.0038451  -0.0016747  -0.0015514   0.0017217   0.0012095   0.0006995
    3  -0.0027459  -0.0008533  -0.0052727   0.0022361   0.0076840  -0.0011645
           49          50          51          52          53          54
    1   0.0017618   0.0010921  -0.0007963   0.0000557  -0.0002930   0.0008463
    2  -0.0010782   0.0016604  -0.0013703  -0.0013725   0.0059473   0.0000120
    3  -0.0002464   0.0004202   0.0010337  -0.0012545   0.0005598  -0.0024588
           55          56
    1   0.0000007  -0.0025648
    2   0.0023182  -0.0007190
    3   0.0008614  -0.0016248
 Max gradient component =       4.728E-02
 RMS gradient           =       1.085E-02
 Gradient time:  CPU 31.01 s  wall 0.66 s
 Geometry Optimization Parameters
   NAtoms,    NIC,     NZ,  NCons,   NDum,   NFix, NCnnct, MaxDiis
       56     458       0       9       0       0       0       0

 Cartesian Hessian Update
 Hessian Updated using BFGS Update


** CONSTRAINED OPTIMIZATION IN DELOCALIZED INTERNAL COORDINATES **
   Searching for a Minimum

   Optimization Cycle:   3

                       Coordinates (Angstroms)
     ATOM                X               Y               Z
      1  O        -1.5759879848   -1.0444379558    0.6342604090
      2  C        -2.6939664212   -1.5276657994    0.3589073724
      3  C        -4.0639245343   -0.8089772717    0.4240097911
      4  C        -4.0437295473    0.6257278650    1.0490789162
      5  C        -2.6354341999    1.2170407532    1.3241726455
      6  O        -1.9911048288    1.4608178759    0.0985772306
      7  C        -0.7976154836    2.2863884514    0.2676255176
      8  C        -0.0154784597    2.2796379342   -1.0749771271
      9  O         0.7143045448    1.0243258115   -1.2531282530
     10  C         1.9177360365    0.9785606018   -0.5333964650
     11  C         2.5394870079   -0.4304941615   -0.6981494490
     12  C         4.0992949693   -0.4846142215   -0.8106735722
     13  C         4.8274020006    0.8373395899   -0.4451872754
     14  O         4.4214181484    1.9982000497   -0.6551774595
     15  O        -2.8365266798   -2.8251939424   -0.1428561263
     16  O         6.1456461278    0.5833104882   -0.0428331337
     17  O         2.1845290420    1.7740636509    0.3936685573
     18  C         6.9272879346    1.7518815543    0.2458484331
     19  C         2.2910947667   -1.3092776650    0.5901010353
     20  C         2.3589374968   -2.8154899159    0.1800907589
     21  C         3.8765079660   -2.9627709003   -0.1231208930
     22  C         4.3967798175   -1.5491280521    0.3190844151
     23  O         3.4957124590   -1.1432363912    1.3872636484
     24  H         2.0541767863   -0.9230806511   -1.5630780921
     25  H         4.4768280216   -0.8227873080   -1.7951251017
     26  H         1.3450130213   -1.0671831339    1.1156668107
     27  H         2.1085434704   -3.4114179941    1.0766326498
     28  H         1.6825231883   -3.1076752406   -0.6414163967
     29  H         4.3027949316   -3.7537226507    0.5180746433
     30  H         4.1199799921   -3.1720114699   -1.1791877165
     31  H         5.4650193733   -1.5858580499    0.6103703190
     32  O        -2.2177287584    1.5879825391    2.4388351033
     33  C        -1.6079277121   -3.5555331042   -0.2840691917
     34  C        -4.7046034464   -0.5159013534   -0.9851141865
     35  C        -6.2485750624   -0.3412279452   -0.7982791549
     36  C        -6.3038228497    1.0435826685   -0.0892952781
     37  C        -4.7843189888    1.4315852960   -0.0851702618
     38  O        -4.2660481301    0.8341754816   -1.3096432613
     39  H        -4.7299517743   -1.4766159510    1.0061125966
     40  H        -4.5999946810    0.6522444730    2.0047159949
     41  H        -1.0897673793   -3.6812025106    0.6915738159
     42  H        -4.4608066227   -1.2795378411   -1.7505517801
     43  H        -6.7022207538   -0.2497799437   -1.8016756002
     44  H        -6.7404267424   -1.1676976034   -0.2569693082
     45  H        -6.8714599022    1.7506676023   -0.7194474453
     46  H        -6.7337114892    1.0313191829    0.9271403744
     47  H        -4.6304960780    2.5260084209   -0.0018160385
     48  H        -0.9114597913   -3.0517435299   -0.9893979603
     49  H        -1.8640876387   -4.5551412978   -0.6854141905
     50  H         7.9335980566    1.4059585767    0.5519968653
     51  H         6.4842569955    2.3469927861    1.0736586055
     52  H         7.0281251871    2.4086143071   -0.6458310736
     53  H        -0.7201849564    2.4067791552   -1.9226685407
     54  H         0.6933691245    3.1381732921   -1.0897676188
     55  H        -0.1535188755    1.9564287264    1.1103398609
     56  H        -1.1217435299    3.3311883551    0.4811743016
   Point Group: c1    Number of degrees of freedom:   162


   Energy is  -1510.252372218

              Constraints and their Current Values
                                        Value     Constraint
   Dihedral:        1   2   3   4       -7.043       -7.043
   Dihedral:        3   4   5   6       67.609       67.612
   Dihedral:        4   5   6   7      167.193      167.193
   Dihedral:        5   6   7   8      169.561      169.559
   Dihedral:        6   7   8   9      -76.800      -76.776
   Dihedral:        7   8   9  10      -79.724      -79.716
   Dihedral:        8   9  10  11      175.195      175.198
   Dihedral:        9  10  11  12      142.898      142.890
   Dihedral:       11  12  13  14      -34.642      -34.615
 Hessian Updated using BFGS Update

   Using Lagrange Multiplier Algorithm


158 Hessian modes will be used to form the next step
  Hessian Eigenvalues:
    -0.977753   -0.977753   -0.977753   -0.977753   -0.977753   -0.977691
    -0.976355    0.044996    0.045000    0.045001    0.045049    0.045217
     0.045471    0.045560    0.045605    0.048124    0.048824    0.048917
     0.054310    0.059129    0.060014    0.062248    0.063297    0.066912
     0.067053    0.067152    0.067895    0.069999    0.070659    0.071638
     0.073359    0.073954    0.075831    0.076183    0.077090    0.077346
     0.082437    0.082597    0.083515    0.083960    0.084081    0.084702
     0.085244    0.085323    0.085841    0.086185    0.086684    0.087686
     0.088240    0.088981    0.089303    0.089534    0.089871    0.091005
     0.093628    0.094009    0.096604    0.096657    0.111468    0.111650
     0.114644    0.114660    0.115833    0.115903    0.115997    0.117719
     0.118122    0.119226    0.119736    0.123627    0.123759    0.130041
     0.130147    0.132288    0.141078    0.144087    0.159895    0.160003
     0.161592    0.171388    0.171852    0.173429    0.177086    0.220138
     0.220544    0.224342    0.237712    0.239098    0.241705    0.246325
     0.249490    0.249810    0.252061    0.255618    0.259114    0.265881
     0.267382    0.271764    0.279510    0.280288    0.285213    0.290879
     0.295543    0.297735    0.302329    0.308531    0.310781    0.312645
     0.318372    0.320990    0.321121    0.322056    0.322197    0.322330
     0.322581    0.323048    0.323108    0.323427    0.323571    0.323641
     0.324014    0.324179    0.324359    0.324451    0.324561    0.324569
     0.324643    0.324731    0.324837    0.324962    0.325188    0.326356
     0.326783    0.326829    0.330983    0.367276    0.370916    0.384763
     0.389910    0.401635    0.406797    0.461876    0.491858    0.513684
     0.522924    0.530086    0.537751    0.926506    0.932364    0.942362
     0.999567    1.022753    1.022753    1.022753    1.022753    1.022753
     1.023198    1.032757

 Minimum Search - Taking P-RFO Step
 Searching for Lamda that Maximizes Along the Constraint modes Only
 Value Taken    Lamda =   0.00010540
 Searching for Lamda that Minimizes Along All other modes
 Value Taken    Lamda =  -0.03713750
 Calculated Step too Large.  Step scaled by  0.671357
 Step Taken.  Stepsize is  0.300000

                             Maximum     Tolerance    Cnvgd?
         Gradient            0.031887       0.000300      NO
         Displacement        0.067312       0.001200      NO
         Energy change     -0.037683       0.000001      NO


 New Cartesian Coordinates Obtained by Inverse Iteration

 Displacement from previous Coordinates is:  1.510715
 Adding empirical dispersion correction 
 ----------------------------------------------------------------
 Doing -D3(op) with
 s6 =   1.00000
 s8 =   0.78311
 a1 =   0.30000
 a2 =   4.25000
 n  =  10.00000
 -D3 energy without 3body term =     -0.0671702643 hartrees
 ----------------------------------------------------------------
             Standard Nuclear Orientation (Angstroms)
    I     Atom           X                Y                Z
 ----------------------------------------------------------------
    1      O      -1.5664724666    -1.0238067492     0.6995473929
    2      C      -2.6694327506    -1.5191843518     0.3798443727
    3      C      -4.0728236231    -0.8377519997     0.4029620128
    4      C      -4.0959973851     0.5936821996     1.0549812010
    5      C      -2.6863842350     1.1998028222     1.3556247735
    6      O      -2.0344607509     1.4704077773     0.1220731872
    7      C      -0.8453070247     2.3128521129     0.3284627756
    8      C      -0.0550846992     2.3318284231    -1.0191457430
    9      O       0.6932989353     1.0779258690    -1.2216431064
   10      C       1.9068771228     1.0530209944    -0.4835089096
   11      C       2.5302399750    -0.3647953706    -0.6888568970
   12      C       4.1028935159    -0.4847171268    -0.8153936103
   13      C       4.9213147107     0.8166734841    -0.4989810447
   14      O       4.6065677114     2.0032653449    -0.7266879236
   15      O      -2.7987288057    -2.8305475289    -0.1450212960
   16      O       6.2283865250     0.4517207597    -0.0776748440
   17      O       2.1709975391     1.8752332742     0.4218145624
   18      C       7.0507860177     1.6342230030     0.1714778207
   19      C       2.2640757193    -1.2403247543     0.6126951023
   20      C       2.2750373659    -2.7541961643     0.1949311366
   21      C       3.7904204794    -2.9561174638    -0.1273783007
   22      C       4.3785268624    -1.5609174218     0.3169242847
   23      O       3.4960155583    -1.1139510633     1.4067676065
   24      H       2.0229993836    -0.8348656531    -1.5506046198
   25      H       4.4444625403    -0.8435046112    -1.8042442035
   26      H       1.3431690625    -0.9532937055     1.1585518260
   27      H       2.0056549138    -3.3530607826     1.0818683136
   28      H       1.5836897280    -3.0060544499    -0.6252590176
   29      H       4.2034312830    -3.7664510750     0.4950290232
   30      H       4.0046807974    -3.1670737309    -1.1877522470
   31      H       5.4457403896    -1.6212028361     0.6045784408
   32      O      -2.2639624905     1.5517447888     2.4779932394
   33      C      -1.4977553339    -3.4940785431    -0.2294085601
[...]
     15  O        -2.8557202493   -2.8057679911   -0.2961033691
     16  O         6.0660872788    0.6234046342   -0.1611793480
     17  O         2.3476066849    1.7789345974    0.4937575985
     18  C         6.7937729615    1.9110871778   -0.2296400048
     19  C         2.1881824975   -1.4420867946    0.6311034099
     20  C         2.4392445327   -2.9462068460    0.2157465898
     21  C         4.0120517952   -3.0077604111    0.2182606052
     22  C         4.3696015974   -1.5062135160    0.5542234094
     23  O         3.3214990453   -1.1230693928    1.5285031378
     24  H         1.9629776411   -0.8765207177   -1.5333311707
     25  H         4.3104749596   -1.1881368552   -1.6485782033
     26  H         1.2174548814   -1.2500330727    1.1305356918
     27  H         2.0035342608   -3.6308036078    0.9606385416
     28  H         2.0058314858   -3.1764335745   -0.7706623862
     29  H         4.3869929075   -3.6768542302    1.0092492310
     30  H         4.4296270067   -3.3334562389   -0.7478494282
     31  H         5.3788128275   -1.3316345954    0.9734904523
     32  O        -2.2331768405    1.2931250618    2.6070264729
     33  C        -1.5457664412   -3.4973323098   -0.3407067036
     34  C        -4.6089541954   -0.3607643375   -1.1353542011
     35  C        -6.1790341519   -0.2165423128   -1.0480232517
     36  C        -6.3069960890    1.0899869828   -0.1787143851
     37  C        -4.7895963434    1.5031473552   -0.0109445838
     38  O        -4.1552537358    1.0400949063   -1.2678411233
     39  H        -4.8264492098   -1.5115764946    0.7477254956
     40  H        -4.7116426573    0.5088444380    2.0169598657
     41  H        -1.1378848498   -3.6669010861    0.6766930021
     42  H        -4.2310120476   -0.9799173543   -1.9719631664
     43  H        -6.6052420063   -0.0739479158   -2.0539881986
     44  H        -6.6572028263   -1.0921018406   -0.5803495299
     45  H        -6.8675563779    1.8770567126   -0.7072811411
     46  H        -6.7906920473    0.9045805663    0.7937128710
     47  H        -4.6112473405    2.5862155965    0.1333813228
     48  H        -0.7999756994   -2.9199543976   -0.9247014851
     49  H        -1.7307599613   -4.4697589645   -0.8329028557
     50  H         7.7455824310    1.7522543518    0.3099655301
     51  H         6.2213631452    2.7272033299    0.2564580388
     52  H         7.0056982701    2.2056269171   -1.2779697105
     53  H        -0.6741451051    2.5088209718   -1.6287639311
     54  H         0.7525232679    3.1731477096   -0.7161482044
     55  H        -0.1695291004    1.7368289713    1.3415789543
     56  H        -1.0512783011    3.2487264721    0.9222908161
   Point Group: c1    Number of degrees of freedom:   162


   Energy is  -1510.281535521

              Constraints and their Current Values
                                        Value     Constraint
   Dihedral:        1   2   3   4       -7.043       -7.043
   Dihedral:        3   4   5   6       67.612       67.612
   Dihedral:        4   5   6   7      167.193      167.193
   Dihedral:        5   6   7   8      169.559      169.559
   Dihedral:        6   7   8   9      -76.776      -76.776
   Dihedral:        7   8   9  10      -79.716      -79.716
   Dihedral:        8   9  10  11      175.198      175.198
   Dihedral:        9  10  11  12      142.890      142.890
   Dihedral:       11  12  13  14      -34.615      -34.615
 Hessian Updated using BFGS Update

153 Hessian modes will be used to form the next step
  Hessian Eigenvalues:
     0.002651    0.006656    0.018092    0.027033    0.045002    0.045048
     0.045098    0.045365    0.045498    0.045960    0.046913    0.048182
     0.052000    0.054558    0.055840    0.060926    0.062947    0.066930
     0.067025    0.067301    0.068029    0.070119    0.070826    0.072315
     0.073211    0.074128    0.075904    0.076292    0.077556    0.079442
     0.082564    0.082646    0.083635    0.083988    0.084535    0.084621
     0.085329    0.085828    0.086004    0.086140    0.087456    0.088012
     0.088788    0.089204    0.089465    0.089666    0.090882    0.091486
     0.093799    0.094363    0.096607    0.096899    0.111493    0.111685
     0.114651    0.114752    0.115849    0.115900    0.116718    0.117762
     0.118814    0.119125    0.121715    0.123799    0.123903    0.129619
     0.130289    0.132991    0.156391    0.158314    0.159994    0.160006
     0.160029    0.160197    0.160508    0.161806    0.171814    0.173716
     0.193605    0.202720    0.221033    0.225481    0.230893    0.237386
     0.241661    0.245899    0.246716    0.249631    0.250014    0.250400
     0.250764    0.253160    0.255958    0.259315    0.266006    0.267120
     0.271136    0.274140    0.279675    0.282041    0.284753    0.294969
     0.297669    0.299293    0.303298    0.308996    0.311466    0.316815
     0.319440    0.321052    0.321955    0.322087    0.322310    0.322575
     0.322765    0.323090    0.323226    0.323543    0.323673    0.323767
     0.323827    0.324028    0.324390    0.324474    0.324598    0.324693
     0.324770    0.324889    0.324965    0.325121    0.326392    0.326800
     0.327202    0.327970    0.331475    0.334176    0.366749    0.369864
     0.376571    0.403404    0.408810    0.417570    0.442275    0.470615
     0.491993    0.515607    0.527860    0.540367    0.549565    0.926596
     0.934023    0.942856    1.017655

 Minimum Search - Taking Simple RFO Step
 Searching for Lamda that Minimizes Along All modes
 Value Taken    Lamda =  -0.00000284
 Step Taken.  Stepsize is  0.011782

                             Maximum     Tolerance    Cnvgd?
         Gradient           0.000212      0.000300     YES
         Displacement       0.003624      0.001200      NO
         Energy change      0.000001      0.000001     YES

 Final energy is   -1510.28153552070     


 ******************************
 **  OPTIMIZATION CONVERGED  **
 ******************************

                       Coordinates (Angstroms)
     ATOM                X               Y               Z
      1  O        -1.6165867161   -1.0941378144    0.7637294953
      2  C        -2.7063561955   -1.5250827601    0.3247215569
      3  C        -4.0988976503   -0.8055315671    0.3064398181
      4  C        -4.1182491596    0.5731680974    1.0887054152
      5  C        -2.6809724297    1.0986376450    1.4560956128
      6  O        -2.0005754261    1.4558825079    0.2467437130
      7  C        -0.7815959472    2.2320986276    0.5574259124
      8  C         0.0226215720    2.3374551634   -0.7838658552
      9  O         0.7141099473    1.0596304045   -1.0723756661
     10  C         1.9192696061    0.9287159403   -0.3151616271
     11  C         2.4696182056   -0.5069709046   -0.6251106123
     12  C         4.0421357847   -0.6298809233   -0.7315537529
     13  C         4.7940583252    0.7476488438   -0.8053357577
     14  O         4.3953593469    1.7926464780   -1.3632001871
     15  O        -2.8557202493   -2.8057679911   -0.2961033691
     16  O         6.0660872788    0.6234046342   -0.1611793480
     17  O         2.3476066849    1.7789345974    0.4937575985
     18  C         6.7937729615    1.9110871778   -0.2296400048
     19  C         2.1881824975   -1.4420867946    0.6311034099
     20  C         2.4392445327   -2.9462068460    0.2157465898
     21  C         4.0120517952   -3.0077604111    0.2182606052
     22  C         4.3696015974   -1.5062135160    0.5542234094
     23  O         3.3214990453   -1.1230693928    1.5285031378
     24  H         1.9629776411   -0.8765207177   -1.5333311707
     25  H         4.3104749596   -1.1881368552   -1.6485782033
     26  H         1.2174548814   -1.2500330727    1.1305356918
     27  H         2.0035342608   -3.6308036078    0.9606385416
     28  H         2.0058314858   -3.1764335745   -0.7706623862
     29  H         4.3869929075   -3.6768542302    1.0092492310
     30  H         4.4296270067   -3.3334562389   -0.7478494282
     31  H         5.3788128275   -1.3316345954    0.9734904523
     32  O        -2.2331768405    1.2931250618    2.6070264729
     33  C        -1.5457664412   -3.4973323098   -0.3407067036
     34  C        -4.6089541954   -0.3607643375   -1.1353542011
     35  C        -6.1790341519   -0.2165423128   -1.0480232517
     36  C        -6.3069960890    1.0899869828   -0.1787143851
     37  C        -4.7895963434    1.5031473552   -0.0109445838
     38  O        -4.1552537358    1.0400949063   -1.2678411233
     39  H        -4.8264492098   -1.5115764946    0.7477254956
     40  H        -4.7116426573    0.5088444380    2.0169598657
     41  H        -1.1378848498   -3.6669010861    0.6766930021
     42  H        -4.2310120476   -0.9799173543   -1.9719631664
     43  H        -6.6052420063   -0.0739479158   -2.0539881986
     44  H        -6.6572028263   -1.0921018406   -0.5803495299
     45  H        -6.8675563779    1.8770567126   -0.7072811411
     46  H        -6.7906920473    0.9045805663    0.7937128710
     47  H        -4.6112473405    2.5862155965    0.1333813228
     48  H        -0.7999756994   -2.9199543976   -0.9247014851
     49  H        -1.7307599613   -4.4697589645   -0.8329028557
     50  H         7.7455824310    1.7522543518    0.3099655301
     51  H         6.2213631452    2.7272033299    0.2564580388
     52  H         7.0056982701    2.2056269171   -1.2779697105
     53  H        -0.6741451051    2.5088209718   -1.6287639311
     54  H         0.7525232679    3.1731477096   -0.7161482044
     55  H        -0.1695291004    1.7368289713    1.3415789543
     56  H        -1.0512783011    3.2487264721    0.9222908161

Z-matrix Print:
$molecule
0 1
O 
C  1 1.432863
O  2 1.250195 1 124.619835
C  1 1.478156 2 110.189196 3 -6.989707 0
H  4 1.111222 1 111.623134 2 49.006768 0
H  4 1.113278 1 110.404945 2 -71.144353 0
C  4 1.567460 1 106.173739 2 169.558983 0
H  7 1.108469 4 109.884387 1 39.973114 0
H  7 1.111631 4 109.589983 1 161.024763 0
O  7 1.481293 4 110.376770 1 -76.775989 0
C  10 1.429308 7 111.680750 4 -79.715987 0
O  11 1.249278 10 124.736173 7 0.030129 0
C  11 1.568486 10 105.962112 7 175.198053 0
H  13 1.103683 11 107.940432 10 16.495345 0
C  2 1.573804 1 108.655461 3 174.182700 0
H  15 1.103589 2 108.309961 1 -167.832025 0
C  13 1.580901 11 115.689094 10 142.889977 0
H  17 1.106612 13 109.646614 11 -131.724771 0
C  17 1.571120 13 114.270621 11 -12.011445 0
O  19 1.249877 17 126.966978 13 -34.614982 0
O  19 1.431234 17 109.153782 13 147.418895 0
C  21 1.480655 19 109.906629 17 179.596134 0
H  22 1.105596 21 105.997446 19 178.296288 0
H  22 1.109049 21 111.471757 19 59.052977 0
H  22 1.109352 21 111.622087 19 -62.468064 0
C  15 1.585284 2 113.229781 1 67.611945 0
H  26 1.105696 15 110.509898 2 132.617296 0
C  26 1.567565 15 113.847053 2 12.609835 0
O  28 1.251415 26 128.288227 15 -7.042972 0
O  28 1.431044 26 108.241043 15 174.424841 0
C  30 1.481968 28 109.780605 26 177.990132 0
H  31 1.105483 30 106.019720 28 -179.718868 0
H  31 1.109154 30 111.641113 28 60.980344 0
H  31 1.109333 30 111.544174 28 -60.435823 0
C  15 1.588961 2 110.609335 1 -43.620742 0
H  35 1.107102 15 114.474387 2 -40.268871 0
O  35 1.482092 15 102.897549 2 79.443342 0
C  37 1.478446 35 95.088523 15 58.540963 0
H  38 1.107296 37 110.938440 35 -178.210383 0
C  38 1.579107 37 102.917028 35 57.557248 0
H  40 1.101795 38 110.239523 37 79.728459 0
H  40 1.101802 38 112.482662 37 -158.630031 0
C  40 1.574513 38 100.785167 37 -38.081209 0
H  43 1.101403 40 111.677497 38 121.402608 0
H  43 1.101795 40 112.540039 38 -116.033397 0
C  17 1.590099 13 101.142599 11 112.135472 0
H  46 1.106693 17 114.029275 13 -151.916705 0
O  46 1.481398 17 104.096868 13 -31.054484 0
C  48 1.480373 46 95.003922 17 55.279163 0
H  49 1.108436 48 111.098678 46 179.411295 0
C  46 1.579670 17 107.774626 13 77.895750 0
H  51 1.101733 46 112.439734 17 48.377208 0
H  51 1.101785 46 110.336737 17 169.943955 0
C  51 1.574013 46 100.914200 17 -72.162081 0
H  54 1.101535 51 111.707033 46 -120.749631 0
H  54 1.101750 51 112.727120 46 116.558445 0
$end

 
 --------------------------------------------------------------
 
                    Orbital Energies (a.u.)
 --------------------------------------------------------------
 
 Alpha MOs
 -- Occupied --
-18.940 -18.931 -18.922 -18.916 -18.889 -18.884 -18.883 -18.869
-18.863 -18.859 -10.104 -10.095 -10.090 -10.088 -10.069 -10.065
-10.062 -10.061 -10.061 -10.060 -10.054 -10.053 -10.039 -10.033
-10.033 -10.030 -10.021 -10.020 -10.018 -10.017  -1.018  -1.008
 -1.002  -0.996  -0.970  -0.965  -0.941  -0.933  -0.927  -0.920
 -0.763  -0.758  -0.725  -0.719  -0.711  -0.704  -0.690  -0.667
 -0.657  -0.610  -0.596  -0.574  -0.546  -0.540  -0.538  -0.533
 -0.514  -0.506  -0.486  -0.467  -0.463  -0.453  -0.444  -0.439
 -0.434  -0.430  -0.419  -0.415  -0.413  -0.408  -0.407  -0.404
 -0.390  -0.378  -0.372  -0.363  -0.358  -0.353  -0.349  -0.344
 -0.342  -0.335  -0.331  -0.329  -0.327  -0.324  -0.316  -0.315
 -0.307  -0.305  -0.301  -0.297  -0.289  -0.286  -0.282  -0.274
 -0.267  -0.259  -0.250  -0.241  -0.236  -0.234  -0.229  -0.184
 -0.174  -0.166  -0.163  -0.155  -0.152  -0.143  -0.140  -0.139
 -0.138
 -- Virtual --
  0.094   0.104   0.113   0.114   0.240   0.245   0.247   0.248
  0.259   0.268   0.285   0.292   0.312   0.315   0.328   0.330
  0.339   0.343   0.347   0.349   0.358   0.365   0.367   0.374
  0.376   0.380   0.396   0.402   0.403   0.406   0.410   0.412
  0.414   0.420   0.420   0.423   0.427   0.428   0.429   0.434
  0.435   0.437   0.440   0.443   0.444   0.454   0.459   0.465
  0.470   0.475   0.479   0.489   0.493   0.501   0.510   0.536
  0.543   0.552   0.556   0.639   0.643   0.657   0.671
 --------------------------------------------------------------
 
          Ground-State Mulliken Net Atomic Charges

     Atom                 Charge (a.u.)
  ----------------------------------------
      1 O                    -0.206642
      2 C                     0.212745
      3 C                    -0.078952
      4 C                    -0.080827
      5 C                     0.212994
      6 O                    -0.171340
      7 C                    -0.047022
      8 C                    -0.046784
      9 O                    -0.172425
     10 C                     0.213520
     11 C                    -0.078603
     12 C                    -0.079697
     13 C                     0.213014
     14 O                    -0.212730
     15 O                    -0.170095
     16 O                    -0.170934
     17 O                    -0.213679
     18 C                    -0.127631
     19 C                     0.023828
     20 C                    -0.144422
     21 C                    -0.143436
     22 C                     0.023840
     23 O                    -0.188147
     24 H                     0.085017
     25 H                     0.082693
     26 H                     0.090878
     27 H                     0.075962
     28 H                     0.070589
     29 H                     0.077249
     30 H                     0.071970
     31 H                     0.092255
     32 O                    -0.218755
     33 C                    -0.128426
     34 C                     0.026395
     35 C                    -0.142398
     36 C                    -0.145024
     37 C                     0.026824
     38 O                    -0.184430
     39 H                     0.085026
     40 H                     0.084134
     41 H                     0.089598
     42 H                     0.086039
     43 H                     0.078048
     44 H                     0.073846
     45 H                     0.077882
     46 H                     0.073862
     47 H                     0.082795
     48 H                     0.089774
     49 H                     0.091079
     50 H                     0.089772
     51 H                     0.093393
     52 H                     0.087371
     53 H                     0.096711
     54 H                     0.093678
     55 H                     0.098500
     56 H                     0.081122
  ----------------------------------------
  Sum of atomic charges =    -0.000000

 -----------------------------------------------------------------
                    Cartesian Multipole Moments
 -----------------------------------------------------------------
    Charge (ESU x 10^10)
                -0.0000
    Dipole Moment (Debye)
         X      -1.3613      Y      -2.3965      Z      -1.9068
       Tot       3.3515
    Quadrupole Moments (Debye-Ang)
        XX    -135.8490     XY      -2.2114     YY    -149.4601
        XZ      -4.9831     YZ       1.4390     ZZ    -168.6371
    Octopole Moments (Debye-Ang^2)
       XXX      22.7537    XXY      24.9584    XYY       9.4083
       YYY      16.9735    XXZ      -2.8077    XYZ       7.4361
       YYZ       0.5893    XZZ       8.6261    YZZ      -7.7817
       ZZZ     -23.9324
    Hexadecapole Moments (Debye-Ang^3)
      XXXX  -12977.2611   XXXY     331.8807   XXYY   -2820.8780
      XYYY     104.4126   YYYY   -2948.0379   XXXZ     -24.1830
      XXYZ      40.1539   XYYZ      31.0844   YYYZ      42.2753
      XXZZ   -2564.7538   XYZZ      64.1624   YYZZ    -675.7229
      XZZZ      92.9649   YZZZ      26.5953   ZZZZ    -997.4977
 -----------------------------------------------------------------
Archival summary:
1\1\vega02.cac.cornell.edu\OPT\ProcedureUnspecified\STO-3G\102026\jj585\TueJan1603:22:252018TueJan1603:22:252018\0\\#,OPT,ProcedureUnspecified,STO-3G,\\0,1\O\C,1,1.43286\O,2,1.2502,1,124.62\C,1,1.47816,2,110.189,3,-6.98971,0\H,4,1.11122,1,111.623,2,49.0068,0\H,4,1.11328,1,110.405,2,-71.1444,0\C,4,1.56746,1,106.174,2,169.559,0\H,7,1.10847,4,109.884,1,39.9731,0\H,7,1.11163,4,109.59,1,161.025,0\O,7,1.48129,4,110.377,1,-76.776,0\C,10,1.42931,7,111.681,4,-79.716,0\O,11,1.24928,10,124.736,7,0.0301292,0\C,11,1.56849,10,105.962,7,175.198,0\H,13,1.10368,11,107.94,10,16.4953,0\C,2,1.5738,1,108.655,3,174.183,0\H,15,1.10359,2,108.31,1,-167.832,0\C,13,1.5809,11,115.689,10,142.89,0\H,17,1.10661,13,109.647,11,-131.725,0\C,17,1.57112,13,114.271,11,-12.0114,0\O,19,1.24988,17,126.967,13,-34.615,0\O,19,1.43123,17,109.154,13,147.419,0\C,21,1.48066,19,109.907,17,179.596,0\H,22,1.1056,21,105.997,19,178.296,0\H,22,1.10905,21,111.472,19,59.053,0\H,22,1.10935,21,111.622,19,-62.4681,0\C,15,1.58528,2,113.23,1,67.6119,0\H,26,1.1057,15,110.51,2,132.617,0\C,26,1.56756,15,113.847,2,12.6098,0\O,28,1.25141,26,128.288,15,-7.04297,0\O,28,1.43104,26,108.241,15,174.425,0\C,30,1.48197,28,109.781,26,177.99,0\H,31,1.10548,30,106.02,28,-179.719,0\H,31,1.10915,30,111.641,28,60.9803,0\H,31,1.10933,30,111.544,28,-60.4358,0\C,15,1.58896,2,110.609,1,-43.6207,0\H,35,1.1071,15,114.474,2,-40.2689,0\O,35,1.48209,15,102.898,2,79.4433,0\C,37,1.47845,35,95.0885,15,58.541,0\H,38,1.1073,37,110.938,35,-178.21,0\C,38,1.57911,37,102.917,35,57.5572,0\H,40,1.10179,38,110.24,37,79.7285,0\H,40,1.1018,38,112.483,37,-158.63,0\C,40,1.57451,38,100.785,37,-38.0812,0\H,43,1.1014,40,111.677,38,121.403,0\H,43,1.10179,40,112.54,38,-116.033,0\C,17,1.5901,13,101.143,11,112.135,0\H,46,1.10669,17,114.029,13,-151.917,0\O,46,1.4814,17,104.097,13,-31.0545,0\C,48,1.48037,46,95.0039,17,55.2792,0\H,49,1.10844,48,111.099,46,179.411,0\C,46,1.57967,17,107.775,13,77.8957,0\H,51,1.10173,46,112.44,17,48.3772,0\H,51,1.10179,46,110.337,17,169.944,0\C,51,1.57401,46,100.914,17,-72.1621,0\H,54,1.10154,51,111.707,46,-120.75,0\H,54,1.10175,51,112.727,46,116.558,0\\\@

 Total job time:  51.07s(wall), 2429.92s(cpu) 
 Tue Jan 16 03:22:25 2018

        *************************************************************
        *                                                           *
        *  Thank you very much for using Q-Chem.  Have a nice day.  *
        *                                                           *
        *************************************************************


0 sent ACK to 0 
now end server 0 ... 
