mFile = /opt/software/qchem/qchem-5.0.1//bin/mpi/machines
Process 0 of 1 is on vega02.cac.cornell.edu - thread support 0
initial socket setup ...start
initial socket setup ...done 
now start server 0 ... 
vega02.cac.cornell.edu 10.84.3
Q-Chem Developer Version! Running on 10.84.3.*
                  Welcome to Q-Chem
     A Quantum Leap Into The Future Of Chemistry


 Q-Chem 5.0, Q-Chem, Inc., Pleasanton, CA (2017)

 Yihan Shao,  Zhengting Gan,  E. Epifanovsky,  A. T. B. Gilbert,  M. Wormit,  
 J. Kussmann,  A. W. Lange,  A. Behn,  Jia Deng,  Xintian Feng,  D. Ghosh,  
 M. Goldey,  P. R. Horn,  L. D. Jacobson,  I. Kaliman,  T. Kus,  A. Landau,  
 Jie Liu,  E. I. Proynov,  R. M. Richard,  R. P. Steele,  E. J. Sundstrom,  
 H. L. Woodcock III,  P. M. Zimmerman,  D. Zuev,  B. Albrecht,  E. Alguire,  
 S. A. Baeppler,  Z. Benda,  Y. A. Bernard,  E. J. Berquist,  K. B. Bravaya,  
 D. Casanova,  Chun-Min Chang,  Yunqing Chen,  A. Chien,  K. D. Closser,  
 M. P. Coons,  S. Dasgupta,  M. Diedenhofen,  Hainam Do,  R. G. Edgar,  
 Po-Tung Fang,  S. Fatehi,  Qingguo Feng,  Qinghui Ge,  A. Ghysels,  
 J. Gomes,  J. Gonthier,  A. Gunina,  M. W. D. Hanson-Heine,  
 P. H. P. Harbach,  A. W. Hauser,  J. E. Herr,  E. G. Hohenstein,  
 Z. C. Holden,  Kerwin Hui,  T.-C. Jagau,  Hyunjun Ji,  B. Kaduk,  
 K. Khistyaev,  Jaehoon Kim,  P. Klunzinger,  K. Koh,  D. Kosenkov,  
 T. Kowalczyk,  C. M. Krauter,  A. Kunitsa,  Ka Un Lao,  A. Laurent,  
 K. V. Lawler,  Joonho Lee,  D. Lefrancois,  S. Lehtola,  D. S. Levine,  
 Yi-Pei Li,  You-Sheng Lin,  Fenglai Liu,  E. Livshits,  A. Luenser,  
 P. Manohar,  E. Mansoor,  S. F. Manzer,  Shan-Ping Mao,  Yuezhi Mao,  
 N. Mardirossian,  A. V. Marenich,  L. A. Martinez-Martinez,  S. A. Maurer,  
 N. J. Mayhall,  S. C. McKenzie,  J.-M. Mewes,  A. F. Morrison,  K. Nanda,  
 T. S. Nguyen-Beck,  R. Olivares-Amaya,  J. A. Parkhill,  T. M. Perrine,  
 F. Plasser,  S. Prager,  A. Prociuk,  D. R. Rehn,  F. Rob,  M. Schneider,  
 N. Sergueev,  S. M. Sharada,  S. Sharma,  D. W. Small,  T. Stauch,  
 T. Stein,  Yu-Chuan Su,  A. J. W. Thom,  T. Tsuchimochi,  L. Vogt,  
 O. Vydrov,  M. A. Watson,  J. Wenzel,  M. de Wergifosse,  T. A. Wesolowski,  
 A. White,  J. Witte,  A. Yamada,  Jun Yang,  K. Yao,  S. Yeganeh,  
 S. R. Yost,  Zhi-Qiang You,  A. Zech,  Igor Ying Zhang,  Xing Zhang,  
 Yan Zhao,  Ying Zhu,  B. R. Brooks,  G. K. L. Chan,  C. J. Cramer,  
 M. S. Gordon,  W. J. Hehre,  A. Klamt,  M. W. Schmidt,  C. D. Sherrill,  
 D. G. Truhlar,  A. Aspuru-Guzik,  R. Baer,  A. T. Bell,  N. A. Besley,  
 Jeng-Da Chai,  A. Dreuw,  B. D. Dunietz,  T. R. Furlani,  Chao-Ping Hsu,  
 Yousung Jung,  Jing Kong,  D. S. Lambrecht,  WanZhen Liang,  C. Ochsenfeld,  
 V. A. Rassolov,  L. V. Slipchenko,  J. E. Subotnik,  T. Van Voorhis,  
 J. M. Herbert,  A. I. Krylov,  P. M. W. Gill,  M. Head-Gordon

 Contributors to earlier versions of Q-Chem not listed above: 
 R. D. Adamson,  B. Austin,  J. Baker,  G. J. O. Beran,  K. Brandhorst,  
 S. T. Brown,  E. F. C. Byrd,  A. K. Chakraborty,  C.-L. Cheng,  
 Siu Hung Chien,  D. M. Chipman,  D. L. Crittenden,  H. Dachsel,  
 R. A. DiStasio Jr.,  R. J. Doerksen,  A. D. Dutoi,  L. Fusti-Molnar,  
 W. A. Goddard III,  A. Golubeva-Zadorozhnaya,  S. R. Gwaltney,  G. Hawkins,  
 A. Heyden,  S. Hirata,  G. Kedziora,  F. J. Keil,  C. Kelley,  Jihan Kim,  
 R. A. King,  R. Z. Khaliullin,  P. P. Korambath,  W. Kurlancheek,  
 A. M. Lee,  M. S. Lee,  S. V. Levchenko,  Ching Yeh Lin,  D. Liotard,  
 R. C. Lochan,  I. Lotan,  P. E. Maslen,  N. Nair,  D. P. O'Neill,  
 D. Neuhauser,  E. Neuscamman,  C. M. Oana,  R. Olson,  B. Peters,  
 R. Peverati,  P. A. Pieniazek,  Y. M. Rhee,  J. Ritchie,  M. A. Rohrdanz,  
 E. Rosta,  N. J. Russ,  H. F. Schaefer III,  N. E. Schultz,  N. Shenvi,  
 A. C. Simmonett,  A. Sodt,  D. Stuck,  K. S. Thanthiriwatte,  V. Vanovschi,  
 Tao Wang,  A. Warshel,  C. F. Williams,  Q. Wu,  X. Xu,  W. Zhang

 Please cite Q-Chem as follows:
 Y. Shao et al., Mol. Phys. 113, 184-215 (2015)
 DOI: 10.1080/00268976.2014.952696

 Q-Chem 5.0.1 for Intel X86 EM64T Linux

 Parts of Q-Chem use Armadillo 5.200.1 (Boston Tea Smuggler).
 http://arma.sourceforge.net/

 Q-Chem begins on Tue Jan 16 03:25:21 2018  

Host: vega02.cac.cornell.edu
0

     Scratch files written to /scratch/jj585/SOT1001/1021r.save//
 Parallel job on  1  processors

Checking the input file for inconsistencies... 	...done.

--------------------------------------------------------------
User input:
--------------------------------------------------------------
$molecule
0  1
O -1.3577398033 -0.9514387842 0.7534351605
C -2.4411212533 -1.5035821534 0.4562798345
C -3.8910798406 -0.9042164709 0.4210746039
C -4.0418206077 0.569150043 0.9823051122
C -2.6829074655 1.2629940263 1.3531884193
O -1.9948919187 1.6066145582 0.148660454
C -0.7817861208 2.3904649233 0.4705733396
C 0.0183647581 2.5420104311 -0.8669938414
O 0.6481420229 1.2485227239 -1.2255842004
C 1.8456205674 1.0477271446 -0.4669049952
C 2.4068217278 -0.3606651157 -0.8673226988
C 3.9640266491 -0.5265481741 -0.6744460939
C 4.7878601196 0.8088481806 -0.6433098317
O 4.4742324838 1.9180785654 -1.1247918788
O -2.5592460699 -2.8714565743 0.0505336469
O 6.0333779024 0.5500880492 0.017189575
O 2.2609838786 1.8321057041 0.4120915581
C 6.8514032967 1.7839950351 0.0486167896
C 1.8734257263 -1.3895143644 0.2270422709
C 2.2724770619 -2.8630800396 -0.1915334449
C 3.7918281871 -2.9077999586 0.2150839158
C 4.0192123471 -1.4098253785 0.6516171925
O 2.7659174025 -1.0870987949 1.3716951349
H 2.0711768959 -0.6087225095 -1.8890116461
H 4.3725855814 -1.1171106021 -1.5165421218
H 0.804234545 -1.2453059115 0.5009419278
H 1.6838683306 -3.6016693828 0.37398058
H 2.1183340988 -3.0397604629 -1.2683135477
H 3.9577463924 -3.584434309 1.0687498439
H 4.4508623249 -3.2130603124 -0.6131096036
H 4.903209106 -1.2205392457 1.2904260265
O -2.2827855449 1.5454013559 2.5037892766
C -1.2283312534 -3.5157534514 0.0031969875
C -4.4446962451 -0.7276631081 -1.0642314813
C -6.020352339 -0.6638019127 -0.9845344448
C -6.2296738924 0.7687111569 -0.3673830606
C -4.7370286703 1.2786973838 -0.257483596
O -4.0657316529 0.655382149 -1.4220487505
H -4.5389370609 -1.6029259499 0.9813016754
H -4.6795078649 0.5837723829 1.8832771793
H -0.694738288 -3.4250659053 0.9709998653
H -4.0346420595 -1.4516619092 -1.7949551988
H -6.4564576173 -0.7368435067 -1.9937307123
H -6.4414155001 -1.4665656763 -0.3587321136
H -6.8117886735 1.4187559912 -1.0396807995
H -6.7289860685 0.7381917787 0.6141506566
H -4.6132114584 2.378310251 -0.2838384299
H -0.5941544343 -3.0756780458 -0.7926755433
H -1.411903703 -4.5826215092 -0.2209234007
H 7.7819352939 1.5202146486 0.5841539943
H 6.3319732876 2.6034338271 0.5861646824
H 7.0990994018 2.1364685642 -0.9736741001
H -0.6704779669 2.7919492226 -1.6985500837
H 0.7853940938 3.3378203355 -0.7519496209
H -0.1602507811 1.8790339234 1.2362012172
H -1.0600393893 3.392964182 0.8664760244
$end

$rem
JOBTYPE                   OPT
METHOD                    B3LYP
DFT_D                     d3_op
BASIS                     STO-3G
GEOM_OPT_MAX_CYCLES       100
GEOM_OPT_TOL_GRADIENT     300
GEOM_OPT_TOL_DISPLACEMENT 1200
GEOM_OPT_TOL_ENERGY       100
SYMMETRY                  False
THRESH                    12
SCF_CONVERGENCE           8
MAX_SUB_FILE_NUM          128
MEM_STATIC                400
MEM_TOTAL                 4000
$end
--------------------------------------------------------------
 Adding empirical dispersion correction 
 ----------------------------------------------------------------
 Doing -D3(op) with
 s6 =   1.00000
 s8 =   0.78311
 a1 =   0.30000
 a2 =   4.25000
 n  =  10.00000
 -D3 energy without 3body term =     -0.0691598759 hartrees
 ----------------------------------------------------------------
             Standard Nuclear Orientation (Angstroms)
    I     Atom           X                Y                Z
 ----------------------------------------------------------------
    1      O      -1.3811611533    -0.9489738129     0.7187850093
    2      C      -2.4713314321    -1.4725308993     0.3958365694
    3      C      -3.9112665385    -0.8488663068     0.3737481158
    4      C      -4.0419743680     0.6057901875     0.9864481184
    5      C      -2.6745137189     1.2638425473     1.3897312616
    6      O      -1.9734769322     1.6390182144     0.2022470620
    7      C      -0.7500524367     2.3911183311     0.5589723010
    8      C       0.0608735471     2.5772949924    -0.7676891981
    9      O       0.6721407530     1.2873849649    -1.1686897235
   10      C       1.8614265726     1.0402670472    -0.4107980163
   11      C       2.4025549403    -0.3618555009    -0.8581036039
   12      C       3.9556550608    -0.5597337416    -0.6623232215
   13      C       4.8005272912     0.7601721769    -0.5786945263
   14      O       4.5077354974     1.8908113007    -1.0219861229
   15      O      -2.6087467626    -2.8229650110    -0.0592552997
   16      O       6.0375398720     0.4578580901     0.0792848707
   17      O       2.2837074998     1.7859521092     0.4980715851
   18      C       6.8749798614     1.6764363530     0.1595403782
   19      C       1.8458531121    -1.4203098750     0.1956677993
   20      C       2.2239282678    -2.8842796079    -0.2730487411
   21      C       3.7397645818    -2.9680993682     0.1404484268
   22      C       3.9883089119    -1.4905343997     0.6315901379
   23      O       2.7358012933    -1.1734290036     1.3555250396
   24      H       2.0694619664    -0.5678329619    -1.8899275158
   25      H       4.3600406310    -1.1264234270    -1.5226401478
   26      H       0.7773921541    -1.2686523523     0.4683912108
   27      H       1.6200129696    -3.6329352741     0.2622844026
   28      H       2.0738007317    -3.0199116193    -1.3563294505
   29      H       3.8894308334    -3.6773580417     0.9703041727
   30      H       4.3990632755    -3.2542621800    -0.6943272686
   31      H       4.8711571860    -1.3385123998     1.2818396844
   32      O      -2.2772201116     1.4984994821     2.5519823948
   33      C      -1.2880337546    -3.4866519535    -0.1219471382
   34      C      -4.4525720615    -0.6104863482    -1.1074539994
   35      C      -6.0274783116    -0.5239765900    -1.0345954977
   36      C      -6.2177657558     0.8888124327    -0.3678099968
   37      C      -4.7178807633     1.3702910911    -0.2311464911
   38      O      -4.0492778812     0.7781189491    -1.4133799312
   39      H      -4.5737502585    -1.5565237295     0.9048832950
   40      H      -4.6850385393     0.5985958034     1.8836806574
   41      H      -0.7591976306    -3.4392097574     0.8515361364
   42      H      -4.0495308199    -1.3145073678    -1.8612364694
   43      H      -6.4582968391    -0.5538899171    -2.0482525323
   44      H      -6.4652809672    -1.3416240252    -0.4403447847
   45      H      -6.7851407247     1.5717780956    -1.0197637549
   46      H      -6.7237074306     0.8313939558     0.6091130605
   47      H      -4.5763282044     2.4679926073    -0.2174354959
   48      H      -0.6418727527    -3.0288015642    -0.8979037520
   49      H      -1.4872229449    -4.5417294984    -0.3851415270
   50      H       7.7977642537     1.3786696945     0.6906467424
   51      H       6.3653286360     2.4844885501     0.7230583287
   52      H       7.1347499860     2.0610943273    -0.8480445252
   53      H      -0.6186042603     2.8678734688    -1.5937240289
   54      H       0.8397887890     3.3559562342    -0.6198369239
   55      H      -0.1416367902     1.8426914997     1.3093803932
   56      H      -1.0147378824     3.3832342057     0.9888749494
 ----------------------------------------------------------------
 Molecular Point Group                 C1    NOp =  1
 Largest Abelian Subgroup              C1    NOp =  1
 Nuclear Repulsion Energy =  3198.0261400048 hartrees
 There are      113 alpha and      113 beta electrons
 Requested basis set is STO-3G
 There are 86 shells and 176 basis functions

 Total QAlloc Memory Limit   4000 MB
 Mega-Array Size       392 MB
 MEM_STATIC part       400 MB
 A cutoff of  1.0D-12 yielded   2289 shell pairs
 There are     10938 function pairs
 
 -------------------------------------------------------
 OpenMP Integral Computing Module                       
 Release: version 1.0, May 2013, Q-Chem Inc. Pittsburgh 
 -------------------------------------------------------
 Integral Job Info:
 Integral job number is                      11
 Integral operator is                         1
 short-range coefficients                     0
 long-range coefficients              100000000
 Omega coefficients                           0
 if combine SR and LR in K                    0
 Integral screening is                        0
 Integral computing path is                   2
 max size of driver memory is            800000
 size of driver memory is                 45569
 size of scratch memory is              1046100
 max col of scratch BK array                289
 max len of scratch array in speh3           22
 max len of scratch index in speh4            8
 max int batch size is                      520
 min int batch size is                       52
 fixed nKL is                                52
 max L of basis functions is                  1
 order of int derivative is                   0
 number of shells is                         86
 number of basis is                         176
 number of cartesian basis is               176
 number of contracted shell pairs          2289
 number of primitive shell pairs          11439
 maxK2 (contraction) of shell pair            9
 max number of K2 of shell pair               1
 max number of CS2 of shell pair            360
 max number of PS2 of shell pair           1248
 mem total for path MDJ                   49782
 -------------------------------------------------------
 Smallest overlap matrix eigenvalue = 2.13E-01

 Scale SEOQF with 1.000000e-02/1.000000e-01/1.000000e-01

 Standard Electronic Orientation quadrupole field applied
 Nucleus-field energy     =     0.0000000405 hartrees
 Guess from superposition of atomic densities
 Warning:  Energy on first SCF cycle will be non-variational
 A restricted hybrid HF-DFT SCF calculation will be
 performed using Pulay DIIS extrapolation
 Exchange:     0.2000 Hartree-Fock + 0.0800 Slater + 0.7200 B88
 Correlation:  0.1900 VWN1RPA + 0.8100 LYP
 Using SG-1 standard quadrature grid
 Dispersion:   Grimme D3
 SCF converges when DIIS error is below 1.0E-08
 using 48 threads for integral computing
 -------------------------------------------------------
 OpenMP Integral computing Module                
 Release: version 1.0, May 2013, Q-Chem Inc. Pittsburgh 
 -------------------------------------------------------
 -------------------------------------------------------
 OpenMP BLAS3 based DFT computing Module                
 Release: version 1.0, May 2013, Q-Chem Inc. Pittsburgh 
 -------------------------------------------------------
 ---------------------------------------
  Cycle       Energy         DIIS Error
 ---------------------------------------
    1   -1507.6442801150      7.47E-02
    2   -1509.7454270899      1.03E-02
    3   -1507.5269206857      2.63E-02
    4   -1510.1903330547      4.56E-03
    5   -1510.2751027653      1.45E-03
    6   -1510.2838889928      4.21E-04
    7   -1510.2845622128      1.75E-04
    8   -1510.2846916191      3.46E-05
    9   -1510.2846965424      1.01E-05
   10   -1510.2846969475      3.82E-06
   11   -1510.2846970002      1.79E-06
   12   -1510.2846970144      2.98E-07
   13   -1510.2846970148      1.06E-07
   14   -1510.2846970148      5.14E-08
   15   -1510.2846970147      1.77E-08
   16   -1510.2846970148      5.57E-09 Convergence criterion met
 ---------------------------------------
 SCF time:  CPU 119.88 s  wall 2.56 s
 SCF   energy in the final basis set = -1510.28469701
 Total energy in the final basis set = -1510.28469701
 
 --------------------------------------------------------------
 
                    Orbital Energies (a.u.)
 --------------------------------------------------------------
 
 Alpha MOs
 -- Occupied --
-18.941 -18.928 -18.921 -18.921 -18.889 -18.888 -18.880 -18.869
-18.862 -18.861 -10.107 -10.094 -10.090 -10.088 -10.070 -10.065
-10.062 -10.060 -10.060 -10.059 -10.053 -10.049 -10.040 -10.034
-10.032 -10.029 -10.021 -10.020 -10.017 -10.015  -1.019  -1.007
 -1.003  -0.997  -0.971  -0.963  -0.943  -0.932  -0.927  -0.920
 -0.763  -0.757  -0.725  -0.719  -0.712  -0.703  -0.690  -0.668
 -0.656  -0.610  -0.596  -0.572  -0.546  -0.538  -0.538  -0.532
 -0.516  -0.505  -0.486  -0.466  -0.461  -0.452  -0.446  -0.440
 -0.434  -0.430  -0.420  -0.416  -0.414  -0.408  -0.405  -0.403
 -0.388  -0.381  -0.370  -0.364  -0.359  -0.353  -0.349  -0.342
 -0.341  -0.336  -0.332  -0.328  -0.328  -0.320  -0.315  -0.313
 -0.308  -0.306  -0.302  -0.296  -0.288  -0.284  -0.282  -0.274
 -0.266  -0.259  -0.250  -0.243  -0.237  -0.235  -0.226  -0.185
 -0.173  -0.167  -0.164  -0.158  -0.151  -0.144  -0.141  -0.137
 -0.137
 -- Virtual --
  0.092   0.107   0.111   0.113   0.239   0.245   0.249   0.250
  0.259   0.268   0.286   0.294   0.309   0.316   0.327   0.331
  0.338   0.343   0.347   0.351   0.357   0.366   0.367   0.371
  0.377   0.379   0.396   0.401   0.403   0.405   0.411   0.412
  0.414   0.419   0.421   0.422   0.425   0.427   0.427   0.434
  0.435   0.435   0.437   0.444   0.450   0.453   0.462   0.466
  0.472   0.475   0.480   0.489   0.497   0.502   0.513   0.536
  0.544   0.551   0.558   0.643   0.644   0.655   0.673
 --------------------------------------------------------------
 
          Ground-State Mulliken Net Atomic Charges

     Atom                 Charge (a.u.)
  ----------------------------------------
      1 O                    -0.207176
      2 C                     0.215148
      3 C                    -0.078080
      4 C                    -0.081224
      5 C                     0.211830
      6 O                    -0.169160
      7 C                    -0.047079
      8 C                    -0.046728
      9 O                    -0.171952
     10 C                     0.214524
     11 C                    -0.078407
     12 C                    -0.080114
     13 C                     0.212630
     14 O                    -0.211274
     15 O                    -0.170707
     16 O                    -0.172731
     17 O                    -0.212623
     18 C                    -0.128160
     19 C                     0.016736
     20 C                    -0.146441
     21 C                    -0.142616
     22 C                     0.024959
     23 O                    -0.189475
     24 H                     0.084646
     25 H                     0.081960
     26 H                     0.098204
     27 H                     0.073333
     28 H                     0.070321
     29 H                     0.076444
     30 H                     0.072085
     31 H                     0.090326
     32 O                    -0.216931
     33 C                    -0.129457
     34 C                     0.026388
     35 C                    -0.143030
     36 C                    -0.144806
     37 C                     0.027096
     38 O                    -0.185029
     39 H                     0.086476
     40 H                     0.084106
     41 H                     0.091197
     42 H                     0.085474
     43 H                     0.078055
     44 H                     0.074026
     45 H                     0.077910
     46 H                     0.073955
     47 H                     0.083822
     48 H                     0.089258
     49 H                     0.091615
     50 H                     0.089068
     51 H                     0.092162
     52 H                     0.087008
     53 H                     0.094741
     54 H                     0.094515
     55 H                     0.101132
     56 H                     0.082053
  ----------------------------------------
  Sum of atomic charges =    -0.000000

 -----------------------------------------------------------------
                    Cartesian Multipole Moments
 -----------------------------------------------------------------
    Charge (ESU x 10^10)
                 0.0000
    Dipole Moment (Debye)
         X      -1.2600      Y      -2.4278      Z      -1.8187
       Tot       3.2847
    Quadrupole Moments (Debye-Ang)
        XX    -135.9051     XY      -2.1526     YY    -149.8946
        XZ      -3.5482     YZ       1.1391     ZZ    -167.9308
    Octopole Moments (Debye-Ang^2)
       XXX      28.7140    XXY      19.3629    XYY       2.5066
       YYY      15.9822    XXZ       8.9945    XYZ      10.4543
       YYZ       1.0455    XZZ      16.2965    YZZ      -8.4593
       ZZZ     -13.5734
    Hexadecapole Moments (Debye-Ang^3)
      XXXX  -12277.4790   XXXY     232.5600   XXYY   -2748.6916
      XYYY       6.8350   YYYY   -2984.5184   XXXZ     -10.7261
      XXYZ      36.2693   XYYZ      18.0814   YYYZ     -13.4654
      XXZZ   -2412.7965   XYZZ      42.9197   YYZZ    -676.7637
      XZZZ      19.1951   YZZZ     -23.8280   ZZZZ    -937.8958
 -----------------------------------------------------------------
 Calculating analytic gradient of the SCF energy
 Gradient of SCF Energy
            1           2           3           4           5           6
    1   0.0002283  -0.0003817   0.0003948  -0.0017397  -0.0004484   0.0021455
    2   0.0004626  -0.0009120   0.0011001   0.0023424   0.0001563  -0.0031335
    3  -0.0014671   0.0025990  -0.0029244   0.0021865  -0.0006074  -0.0005941
            7           8           9          10          11          12
    1   0.0006037  -0.0014264  -0.0009133   0.0000540   0.0016941  -0.0007360
    2  -0.0035697   0.0045217  -0.0025754   0.0002063   0.0009284   0.0005018
    3   0.0006896  -0.0045649   0.0065607  -0.0001095  -0.0035246   0.0038533
           13          14          15          16          17          18
    1   0.0018637  -0.0011416  -0.0000313  -0.0000310  -0.0000591   0.0000630
    2  -0.0008580   0.0006124  -0.0000015  -0.0000148   0.0000456   0.0000383
    3  -0.0043623   0.0023658  -0.0000005  -0.0000525   0.0000630  -0.0000263
           19          20          21          22          23          24
    1  -0.0000648   0.0001513  -0.0001357  -0.0001517   0.0000119  -0.0000065
    2  -0.0000224   0.0001520  -0.0001307   0.0000317   0.0000463   0.0000155
    3  -0.0001048   0.0000313  -0.0001530  -0.0000533   0.0000870  -0.0000618
           25          26          27          28          29          30
    1   0.0000741  -0.0000004   0.0000008   0.0000080  -0.0000060   0.0000059
    2  -0.0000358   0.0000485  -0.0000263  -0.0000509   0.0000331   0.0000677
    3  -0.0000239   0.0000089   0.0000218  -0.0000099   0.0000406  -0.0000295
           31          32          33          34          35          36
    1  -0.0000382   0.0000072  -0.0000381  -0.0000278   0.0001926  -0.0001486
    2  -0.0000681   0.0000245   0.0000347   0.0002766  -0.0001277   0.0001044
    3   0.0000447   0.0000688  -0.0000283  -0.0000174   0.0000850  -0.0000599
           37          38          39          40          41          42
    1   0.0000311  -0.0000138  -0.0000064   0.0000471   0.0000552  -0.0000149
    2  -0.0000811  -0.0000979  -0.0000301   0.0000013  -0.0000194   0.0000080
    3   0.0000426   0.0000263   0.0000549   0.0000299   0.0000435  -0.0000353
           43          44          45          46          47          48
    1  -0.0000147  -0.0000248  -0.0000099  -0.0000454  -0.0000023   0.0000054
    2  -0.0000587   0.0000272   0.0000166  -0.0000113   0.0000054  -0.0000086
    3   0.0000201  -0.0000650   0.0000040  -0.0000246  -0.0000063   0.0000234
           49          50          51          52          53          54
    1   0.0000085   0.0000127  -0.0000018  -0.0000345   0.0000049   0.0000493
    2  -0.0000157   0.0000035   0.0000044   0.0000005  -0.0000108   0.0000187
    3   0.0000177  -0.0000010   0.0000039  -0.0000139  -0.0000016  -0.0000383
           55          56
    1  -0.0000089  -0.0000095
    2   0.0000031   0.0000211
    3   0.0000038  -0.0000147
 Max gradient component =       6.561E-03
 RMS gradient           =       1.142E-03
 Gradient time:  CPU 30.61 s  wall 0.65 s
 Geometry Optimization Parameters
   NAtoms,    NIC,     NZ,  NCons,   NDum,   NFix, NCnnct, MaxDiis
       56     458       0       0       0       0       0       0


** GEOMETRY OPTIMIZATION IN DELOCALIZED INTERNAL COORDINATES **
   Searching for a Minimum

   Optimization Cycle:   1

                       Coordinates (Angstroms)
     ATOM                X               Y               Z
      1  O        -1.3811611533   -0.9489738129    0.7187850093
      2  C        -2.4713314321   -1.4725308993    0.3958365694
      3  C        -3.9112665385   -0.8488663068    0.3737481158
      4  C        -4.0419743680    0.6057901875    0.9864481184
      5  C        -2.6745137189    1.2638425473    1.3897312616
      6  O        -1.9734769322    1.6390182144    0.2022470620
      7  C        -0.7500524367    2.3911183311    0.5589723010
      8  C         0.0608735471    2.5772949924   -0.7676891981
      9  O         0.6721407530    1.2873849649   -1.1686897235
     10  C         1.8614265726    1.0402670472   -0.4107980163
     11  C         2.4025549403   -0.3618555009   -0.8581036039
     12  C         3.9556550608   -0.5597337416   -0.6623232215
     13  C         4.8005272912    0.7601721769   -0.5786945263
     14  O         4.5077354974    1.8908113007   -1.0219861229
     15  O        -2.6087467626   -2.8229650110   -0.0592552997
     16  O         6.0375398720    0.4578580901    0.0792848707
     17  O         2.2837074998    1.7859521092    0.4980715851
     18  C         6.8749798614    1.6764363530    0.1595403782
     19  C         1.8458531121   -1.4203098750    0.1956677993
     20  C         2.2239282678   -2.8842796079   -0.2730487411
     21  C         3.7397645818   -2.9680993682    0.1404484268
     22  C         3.9883089119   -1.4905343997    0.6315901379
     23  O         2.7358012933   -1.1734290036    1.3555250396
     24  H         2.0694619664   -0.5678329619   -1.8899275158
     25  H         4.3600406310   -1.1264234270   -1.5226401478
     26  H         0.7773921541   -1.2686523523    0.4683912108
     27  H         1.6200129696   -3.6329352741    0.2622844026
     28  H         2.0738007317   -3.0199116193   -1.3563294505
     29  H         3.8894308334   -3.6773580417    0.9703041727
     30  H         4.3990632755   -3.2542621800   -0.6943272686
     31  H         4.8711571860   -1.3385123998    1.2818396844
     32  O        -2.2772201116    1.4984994821    2.5519823948
     33  C        -1.2880337546   -3.4866519535   -0.1219471382
     34  C        -4.4525720615   -0.6104863482   -1.1074539994
     35  C        -6.0274783116   -0.5239765900   -1.0345954977
     36  C        -6.2177657558    0.8888124327   -0.3678099968
     37  C        -4.7178807633    1.3702910911   -0.2311464911
     38  O        -4.0492778812    0.7781189491   -1.4133799312
     39  H        -4.5737502585   -1.5565237295    0.9048832950
     40  H        -4.6850385393    0.5985958034    1.8836806574
     41  H        -0.7591976306   -3.4392097574    0.8515361364
     42  H        -4.0495308199   -1.3145073678   -1.8612364694
     43  H        -6.4582968391   -0.5538899171   -2.0482525323
     44  H        -6.4652809672   -1.3416240252   -0.4403447847
     45  H        -6.7851407247    1.5717780956   -1.0197637549
     46  H        -6.7237074306    0.8313939558    0.6091130605
     47  H        -4.5763282044    2.4679926073   -0.2174354959
     48  H        -0.6418727527   -3.0288015642   -0.8979037520
     49  H        -1.4872229449   -4.5417294984   -0.3851415270
     50  H         7.7977642537    1.3786696945    0.6906467424
     51  H         6.3653286360    2.4844885501    0.7230583287
     52  H         7.1347499860    2.0610943273   -0.8480445252
     53  H        -0.6186042603    2.8678734688   -1.5937240289
     54  H         0.8397887890    3.3559562342   -0.6198369239
     55  H        -0.1416367902    1.8426914997    1.3093803932
     56  H        -1.0147378824    3.3832342057    0.9888749494
   Point Group: c1    Number of degrees of freedom:   162


   Energy is  -1510.284697015


 Attempting to Generate Delocalized Internal Coordinates

162 Hessian modes will be used to form the next step
  Hessian Eigenvalues:
     0.002000    0.002000    0.002000    0.002000    0.002000    0.002691
     0.002765    0.004126    0.004158    0.004469    0.004509    0.004709
     0.004961    0.005095    0.005139    0.006763    0.006806    0.011232
     0.011447    0.011457    0.011796    0.021610    0.021748    0.025661
     0.025945    0.030816    0.030893    0.034954    0.035345    0.039075
     0.040514    0.041915    0.042119    0.044628    0.045376    0.047170
     0.047635    0.049637    0.051111    0.051222    0.052459    0.053655
     0.054176    0.054659    0.055072    0.055345    0.056030    0.056794
     0.057527    0.058372    0.059362    0.060382    0.060441    0.063193
     0.063709    0.064174    0.064695    0.069456    0.069555    0.072902
     0.073033    0.091714    0.092641    0.093009    0.093271    0.095977
     0.096701    0.096815    0.097669    0.102587    0.102677    0.106698
     0.110714    0.111018    0.111507    0.121593    0.122089    0.133944
     0.136242    0.157250    0.158175    0.160000    0.160000    0.160000
     0.160000    0.160000    0.160000    0.163921    0.164029    0.217026
     0.218779    0.219412    0.220902    0.228757    0.230747    0.238571
     0.238882    0.239162    0.239215    0.243149    0.244398    0.249200
     0.249635    0.249919    0.249984    0.250000    0.250000    0.250000
     0.250000    0.250000    0.250000    0.250000    0.250000    0.252864
     0.253116    0.260004    0.260670    0.260694    0.261701    0.263360
     0.292194    0.293472    0.307162    0.308412    0.322657    0.322742
     0.324677    0.325071    0.326684    0.326887    0.327202    0.327359
     0.327744    0.328797    0.329242    0.329331    0.329507    0.330743
     0.330808    0.330988    0.332538    0.332819    0.334605    0.334766
     0.334820    0.334993    0.335112    0.335119    0.335143    0.335928
     0.342654    0.344816    0.345976    0.346357    0.405098    0.407409
     0.407510    0.411188    0.825934    0.830548    0.835214    0.835464

 Minimum Search - Taking Simple RFO Step
 Searching for Lamda that Minimizes Along All modes
 Value Taken    Lamda =  -0.01015715
 Calculated Step too Large.  Step scaled by  0.393933
 Step Taken.  Stepsize is  0.300000

                             Maximum     Tolerance    Cnvgd?
         Gradient           0.008228      0.000300      NO
         Displacement       0.144675      0.001200      NO
         Energy change     *********      0.000001      NO


 New Cartesian Coordinates Obtained by Inverse Iteration

 Displacement from previous Coordinates is:  6.346286
 Adding empirical dispersion correction 
 ----------------------------------------------------------------
 Doing -D3(op) with
 s6 =   1.00000
 s8 =   0.78311
 a1 =   0.30000
 a2 =   4.25000
 n  =  10.00000
 -D3 energy without 3body term =     -0.0733171879 hartrees
 ----------------------------------------------------------------
             Standard Nuclear Orientation (Angstroms)
    I     Atom           X                Y                Z
 ----------------------------------------------------------------
    1      O      -1.0144985367    -0.6237549824     0.6707095855
    2      C      -2.0262725501    -1.2849323110     0.3450890470
    3      C      -3.5402043879    -0.8725853660     0.3718708868
    4      C      -3.8580294231     0.5417490508     1.0099320935
    5      C      -2.5866299590     1.3812283504     1.3901699794
    6      O      -1.9660458932     1.8510620858     0.1916902405
    7      C      -0.7507480329     2.6260724081     0.5265549468
    8      C       0.0332184998     2.8244092742    -0.8144257343
    9      O       0.5919602462     1.5275293591    -1.2664142047
   10      C       1.7464139369     1.1829105103    -0.4928423051
   11      C       2.1414417625    -0.2797514937    -0.8971662919
   12      C       3.6572419426    -0.6427241151    -0.6508102270
   13      C       4.6383760314     0.5788789891    -0.5625240811
   14      O       4.5044790746     1.7113840327    -1.0725194573
   15      O      -1.9828126162    -2.6322655609    -0.1370657099
   16      O       5.8067272110     0.1616258264     0.1554075649
   17      O       2.2074999910     1.8862319219     0.4308007898
   18      C       6.7787172635     1.2765122512     0.2250818595
   19      C       1.4412811940    -1.2467690771     0.1589062725
   20      C       1.6691366280    -2.7537871302    -0.2688211684
   21      C       3.1539707851    -2.9934279548     0.1936958854
   22      C       3.5492806098    -1.5407782095     0.6622791784
   23      O       2.3191324265    -1.0719751185     1.3406355977
   24      H       1.8167749726    -0.4706397817    -1.9345260528
   25      H       4.0234547692    -1.2705334383    -1.4853558649
   26      H       0.3886202837    -0.9728599984     0.3952383644
   27      H       0.9711261783    -3.4191784407     0.2620080948
   28      H       1.5364201028    -2.8970214317    -1.3533846129
   29      H       3.2004919607    -3.6951728500     1.0419225120
   30      H       3.8015953285    -3.3697177887    -0.6140103380
   31      H       4.4244245517    -1.4708409103     1.3365257178
   32      O      -2.1719754136     1.6213344435     2.5452023646
   33      C      -0.5839485977    -3.1034886212    -0.2359569168
   34      C      -4.1505933464    -0.6943511758    -1.0910148758
   35      C      -5.7194226375    -0.8324112925    -0.9764818970
   36      C      -6.0885358961     0.5308066315    -0.2822245663
   37      C      -4.6686323928     1.2182313468    -0.1768301004
   38      O      -3.9561018184     0.7411000738    -1.3850738611
   39      H      -4.0810320441    -1.6743100369     0.9070772829
   40      H      -4.4683019027     0.4314860723     1.9231807005
   41      H      -0.0482685625    -3.0013537301     0.7295076179
   42      H      -3.6732146446    -1.3248492061    -1.8661540708
   43      H      -6.1696527975    -0.9102987643    -1.9790983649
   44      H      -6.0207313034    -1.7110900422    -0.3844060479
   45      H      -6.7647342978     1.1344736327    -0.9081023773
   46      H      -6.5536396530     0.3903230764     0.7065099045
   47      H      -4.6831343345     2.3246556957    -0.1489200431
   48      H      -0.0230780954    -2.5448841477    -1.0122718552
   49      H      -0.6391650125    -4.1707543751    -0.5188311663
   50      H       7.6399578162     0.8953021643     0.8040440667
   51      H       6.3479605953     2.1609978843     0.7373044850
   52      H       7.1185955837     1.5864291565    -0.7844242400
   53      H      -0.6564336932     3.1527045854    -1.6175894167
   54      H       0.8350719944     3.5790895474    -0.6650607449
   55      H      -0.1185112019     2.0716652141     1.2524783113
   56      H      -1.0133322469     3.6088839440     0.9785256615
 ----------------------------------------------------------------
 Molecular Point Group                 C1    NOp =  1
 Largest Abelian Subgroup              C1    NOp =  1
 Nuclear Repulsion Energy =  3287.4519687836 hartrees
 There are      113 alpha and      113 beta electrons
 Applying Cartesian multipole field
    Component          Value
    ---------          -----
     (2,0,0)        1.00000E-12
     (0,2,0)        2.00000E-11
     (0,0,2)       -3.00000E-11
 Nucleus-field energy     =     0.0000000372 hartrees
 Requested basis set is STO-3G
 There are 86 shells and 176 basis functions
 A cutoff of  1.0D-12 yielded   2410 shell pairs
 There are     11473 function pairs
 Smallest overlap matrix eigenvalue = 2.09E-01
 Guess MOs from SCF MO coefficient file
 Reading MOs from coefficient file
 Reading MOs from coefficient file
 A restricted hybrid HF-DFT SCF calculation will be
 performed using Pulay DIIS extrapolation
 Exchange:     0.2000 Hartree-Fock + 0.0800 Slater + 0.7200 B88
 Correlation:  0.1900 VWN1RPA + 0.8100 LYP
 Using SG-1 standard quadrature grid
 Dispersion:   Grimme D3
 SCF converges when DIIS error is below 1.0E-08
 Geometry optimization detected.  Setting ReadMinima to 0
 Setting SaveMinima to 0
 using 48 threads for integral computing
 -------------------------------------------------------
 OpenMP Integral computing Module                
 Release: version 1.0, May 2013, Q-Chem Inc. Pittsburgh 
 -------------------------------------------------------
 -------------------------------------------------------
 OpenMP BLAS3 based DFT computing Module                
 Release: version 1.0, May 2013, Q-Chem Inc. Pittsburgh 
 -------------------------------------------------------
 ---------------------------------------
  Cycle       Energy         DIIS Error
 ---------------------------------------
    1   -1510.2177399505      8.09E-03
    2   -1510.1647960731      1.31E-03
    3   -1510.1564987682      1.96E-03
    4   -1510.1721039874      6.49E-04
    5   -1510.1739749055      1.02E-04
    6   -1510.1740165933      4.58E-05
    7   -1510.1740249970      2.18E-05
    8   -1510.1740268981      7.91E-06
    9   -1510.1740271820      1.44E-06
   10   -1510.1740271924      6.56E-07
   11   -1510.1740271941      4.08E-07
   12   -1510.1740271947      1.26E-07
   13   -1510.1740271948      3.16E-08
   14   -1510.1740271948      7.96E-09 Convergence criterion met
 ---------------------------------------
 SCF time:  CPU 101.82 s  wall 2.13 s
 SCF   energy in the final basis set = -1510.17402719
 Total energy in the final basis set = -1510.17402719
 
 --------------------------------------------------------------
 
                    Orbital Energies (a.u.)
 --------------------------------------------------------------
 
 Alpha MOs
 -- Occupied --
-18.949 -18.924 -18.923 -18.918 -18.917 -18.895 -18.866 -18.863
-18.863 -18.857 -10.129 -10.093 -10.087 -10.083 -10.068 -10.067
-10.065 -10.064 -10.060 -10.055 -10.050 -10.040 -10.040 -10.026
-10.024 -10.022 -10.018 -10.005 -10.001  -9.992  -1.037  -1.005
 -1.000  -0.995  -0.976  -0.962  -0.948  -0.930  -0.925  -0.918
 -0.772  -0.759  -0.737  -0.727  -0.717  -0.703  -0.688  -0.672
 -0.647  -0.614  -0.601  -0.566  -0.558  -0.544  -0.537  -0.531
 -0.513  -0.505  -0.490  -0.477  -0.463  -0.461  -0.452  -0.442
 -0.438  -0.433  -0.423  -0.419  -0.418  -0.408  -0.402  -0.401
 -0.389  -0.380  -0.370  -0.368  -0.362  -0.349  -0.348  -0.346
 -0.341  -0.335  -0.334  -0.332  -0.326  -0.324  -0.316  -0.310
 -0.307  -0.304  -0.295  -0.290  -0.287  -0.280  -0.278  -0.266
 -0.257  -0.248  -0.244  -0.240  -0.235  -0.233  -0.213  -0.197
 -0.171  -0.168  -0.165  -0.160  -0.150  -0.145  -0.144  -0.133
 -0.124
 -- Virtual --
  0.073   0.106   0.112   0.119   0.230   0.240   0.249   0.258
  0.266   0.271   0.280   0.297   0.306   0.321   0.321   0.326
  0.338   0.342   0.348   0.352   0.361   0.362   0.367   0.370
  0.375   0.387   0.395   0.396   0.399   0.401   0.403   0.406
  0.415   0.417   0.418   0.423   0.429   0.431   0.436   0.437
  0.440   0.444   0.448   0.449   0.455   0.461   0.471   0.473
  0.479   0.484   0.486   0.496   0.520   0.531   0.536   0.547
  0.552   0.585   0.616   0.648   0.650   0.663   0.683
 --------------------------------------------------------------
 
          Ground-State Mulliken Net Atomic Charges

     Atom                 Charge (a.u.)
  ----------------------------------------
      1 O                    -0.197486
      2 C                     0.231372
      3 C                    -0.076230
      4 C                    -0.081151
      5 C                     0.210675
      6 O                    -0.170007
      7 C                    -0.048253
      8 C                    -0.046846
      9 O                    -0.174262
     10 C                     0.214500
     11 C                    -0.081717
     12 C                    -0.080421
     13 C                     0.212096
     14 O                    -0.214184
     15 O                    -0.170485
     16 O                    -0.172703
     17 O                    -0.214759
     18 C                    -0.128308
     19 C                    -0.032813
     20 C                    -0.155018
     21 C                    -0.147861
     22 C                     0.023509
     23 O                    -0.198296
     24 H                     0.077076
     25 H                     0.079401
     26 H                     0.131575
     27 H                     0.085078
     28 H                     0.061062
     29 H                     0.068529
     30 H                     0.065818
     31 H                     0.084567
     32 O                    -0.214547
     33 C                    -0.127835
     34 C                     0.026979
     35 C                    -0.142850
     36 C                    -0.144762
     37 C                     0.027187
     38 O                    -0.183577
     39 H                     0.090187
     40 H                     0.085265
     41 H                     0.111319
     42 H                     0.086404
     43 H                     0.079469
     44 H                     0.074505
     45 H                     0.078973
     46 H                     0.074596
     47 H                     0.085697
     48 H                     0.108568
     49 H                     0.091632
     50 H                     0.088058
     51 H                     0.091299
     52 H                     0.086114
     53 H                     0.093033
     54 H                     0.094026
     55 H                     0.103162
     56 H                     0.082640
  ----------------------------------------
  Sum of atomic charges =    -0.000000

 -----------------------------------------------------------------
                    Cartesian Multipole Moments
 -----------------------------------------------------------------
    Charge (ESU x 10^10)
                -0.0000
    Dipole Moment (Debye)
         X      -2.6815      Y      -2.9208      Z      -1.6257
       Tot       4.2854
    Quadrupole Moments (Debye-Ang)
        XX    -140.2749     XY      -0.9606     YY    -150.6316
        XZ      -3.1120     YZ       1.1946     ZZ    -168.0618
    Octopole Moments (Debye-Ang^2)
       XXX      10.9598    XXY       9.9562    XYY      -3.9520
       YYY      14.9560    XXZ      16.1566    XYZ      10.8641
       YYZ       1.4373    XZZ      14.0869    YZZ     -13.4412
       ZZZ      -9.2103
    Hexadecapole Moments (Debye-Ang^3)
      XXXX  -10956.9558   XXXY     243.2748   XXYY   -2538.4295
      XYYY      39.6857   YYYY   -2863.1823   XXXZ      20.4987
      XXYZ      34.5980   XYYZ      17.2035   YYYZ     -34.9331
      XXZZ   -2176.5280   XYZZ      53.7638   YYZZ    -657.1858
      XZZZ      29.1362   YZZZ     -43.8599   ZZZZ    -942.0407
 -----------------------------------------------------------------
 Calculating analytic gradient of the SCF energy
 Gradient of SCF Energy
            1           2           3           4           5           6
    1   0.0278157   0.0109774  -0.0013207  -0.0004985  -0.0032652   0.0036030
    2  -0.0175254   0.0209465  -0.0018401  -0.0011084   0.0030066  -0.0028122
    3  -0.0111737   0.0093803  -0.0030915   0.0012799  -0.0000387  -0.0011829
            7           8           9          10          11          12
    1  -0.0007573  -0.0006112   0.0005895   0.0007049  -0.0015773  -0.0005937
    2  -0.0022152   0.0037899  -0.0035216   0.0046933   0.0037016  -0.0003143
    3  -0.0001726  -0.0026949   0.0058839  -0.0032541  -0.0024140   0.0020163
           13          14          15          16          17          18
    1   0.0013615  -0.0003775   0.0111287  -0.0004913  -0.0013394   0.0002709
    2   0.0009893   0.0000378  -0.0092462  -0.0008997  -0.0009038   0.0002160
    3  -0.0011685   0.0009802  -0.0003892  -0.0006832   0.0010882  -0.0002426
           19          20          21          22          23          24
    1  -0.0251078  -0.0761594  -0.0042473  -0.0023467  -0.0019600  -0.0003558
    2   0.0003711   0.0050953  -0.0027381   0.0004607   0.0022553  -0.0002740
    3   0.0006540   0.0002005   0.0026898  -0.0020092   0.0036706   0.0003958
           25          26          27          28          29          30
    1  -0.0002032  -0.0087290  -0.0780318  -0.0133248   0.0000683  -0.0009146
    2  -0.0004726   0.0009704   0.0063145   0.0022542   0.0000786   0.0000124
    3   0.0003368  -0.0003058   0.0132225  -0.0013066   0.0000084  -0.0004366
           31          32          33          34          35          36
    1  -0.0007769   0.0009803   0.0775596   0.0000855  -0.0004154  -0.0000692
    2  -0.0002882  -0.0008173  -0.0040776  -0.0000190   0.0001006   0.0000577
    3   0.0004343   0.0000020   0.0007799   0.0013056  -0.0004697   0.0000149
           37          38          39          40          41          42
    1   0.0008184  -0.0002180  -0.0008906   0.0002284   0.0569529  -0.0000339
    2  -0.0000057   0.0005239   0.0002885  -0.0000065  -0.0091529   0.0000498
    3   0.0001926  -0.0001890  -0.0002726  -0.0000934  -0.0063373  -0.0000649
           43          44          45          46          47          48
    1  -0.0001583   0.0000779  -0.0000337   0.0000519  -0.0001786   0.0300436
    2   0.0000333   0.0000749  -0.0000099  -0.0001474  -0.0000122   0.0026038
    3   0.0000231   0.0000664   0.0000074  -0.0000429  -0.0000375  -0.0068224
           49          50          51          52          53          54
    1   0.0013133  -0.0000210  -0.0001051  -0.0000349  -0.0001016  -0.0001723
    2   0.0007975  -0.0000376  -0.0000250  -0.0000527  -0.0006802   0.0000835
    3  -0.0002190  -0.0000127  -0.0000084   0.0000709  -0.0001585   0.0001589
           55          56
    1   0.0001063   0.0006841
    2  -0.0006326   0.0000295
    3  -0.0004983   0.0009276
 Max gradient component =       7.803E-02
 RMS gradient           =       1.237E-02
 Gradient time:  CPU 32.00 s  wall 0.67 s
 Geometry Optimization Parameters
   NAtoms,    NIC,     NZ,  NCons,   NDum,   NFix, NCnnct, MaxDiis
       56     458       0       0       0       0       0       0

 Cartesian Hessian Update
 Hessian Updated using BFGS Update


** GEOMETRY OPTIMIZATION IN DELOCALIZED INTERNAL COORDINATES **
   Searching for a Minimum

   Optimization Cycle:   2

                       Coordinates (Angstroms)
     ATOM                X               Y               Z
      1  O        -1.0144985367   -0.6237549824    0.6707095855
      2  C        -2.0262725501   -1.2849323110    0.3450890470
      3  C        -3.5402043879   -0.8725853660    0.3718708868
      4  C        -3.8580294231    0.5417490508    1.0099320935
      5  C        -2.5866299590    1.3812283504    1.3901699794
      6  O        -1.9660458932    1.8510620858    0.1916902405
      7  C        -0.7507480329    2.6260724081    0.5265549468
      8  C         0.0332184998    2.8244092742   -0.8144257343
      9  O         0.5919602462    1.5275293591   -1.2664142047
     10  C         1.7464139369    1.1829105103   -0.4928423051
     11  C         2.1414417625   -0.2797514937   -0.8971662919
     12  C         3.6572419426   -0.6427241151   -0.6508102270
     13  C         4.6383760314    0.5788789891   -0.5625240811
     14  O         4.5044790746    1.7113840327   -1.0725194573
     15  O        -1.9828126162   -2.6322655609   -0.1370657099
     16  O         5.8067272110    0.1616258264    0.1554075649
     17  O         2.2074999910    1.8862319219    0.4308007898
     18  C         6.7787172635    1.2765122512    0.2250818595
     19  C         1.4412811940   -1.2467690771    0.1589062725
     20  C         1.6691366280   -2.7537871302   -0.2688211684
     21  C         3.1539707851   -2.9934279548    0.1936958854
     22  C         3.5492806098   -1.5407782095    0.6622791784
     23  O         2.3191324265   -1.0719751185    1.3406355977
     24  H         1.8167749726   -0.4706397817   -1.9345260528
     25  H         4.0234547692   -1.2705334383   -1.4853558649
     26  H         0.3886202837   -0.9728599984    0.3952383644
     27  H         0.9711261783   -3.4191784407    0.2620080948
     28  H         1.5364201028   -2.8970214317   -1.3533846129
     29  H         3.2004919607   -3.6951728500    1.0419225120
     30  H         3.8015953285   -3.3697177887   -0.6140103380
     31  H         4.4244245517   -1.4708409103    1.3365257178
     32  O        -2.1719754136    1.6213344435    2.5452023646
     33  C        -0.5839485977   -3.1034886212   -0.2359569168
     34  C        -4.1505933464   -0.6943511758   -1.0910148758
     35  C        -5.7194226375   -0.8324112925   -0.9764818970
     36  C        -6.0885358961    0.5308066315   -0.2822245663
     37  C        -4.6686323928    1.2182313468   -0.1768301004
     38  O        -3.9561018184    0.7411000738   -1.3850738611
     39  H        -4.0810320441   -1.6743100369    0.9070772829
     40  H        -4.4683019027    0.4314860723    1.9231807005
     41  H        -0.0482685625   -3.0013537301    0.7295076179
     42  H        -3.6732146446   -1.3248492061   -1.8661540708
     43  H        -6.1696527975   -0.9102987643   -1.9790983649
     44  H        -6.0207313034   -1.7110900422   -0.3844060479
     45  H        -6.7647342978    1.1344736327   -0.9081023773
     46  H        -6.5536396530    0.3903230764    0.7065099045
     47  H        -4.6831343345    2.3246556957   -0.1489200431
     48  H        -0.0230780954   -2.5448841477   -1.0122718552
     49  H        -0.6391650125   -4.1707543751   -0.5188311663
     50  H         7.6399578162    0.8953021643    0.8040440667
     51  H         6.3479605953    2.1609978843    0.7373044850
     52  H         7.1185955837    1.5864291565   -0.7844242400
     53  H        -0.6564336932    3.1527045854   -1.6175894167
     54  H         0.8350719944    3.5790895474   -0.6650607449
     55  H        -0.1185112019    2.0716652141    1.2524783113
     56  H        -1.0133322469    3.6088839440    0.9785256615
   Point Group: c1    Number of degrees of freedom:   162


   Energy is  -1510.174027195

 Hessian Updated using BFGS Update

149 Hessian modes will be used to form the next step
  Hessian Eigenvalues:
     0.001835    0.002324    0.002690    0.002762    0.003987    0.004141
     0.004482    0.004550    0.004880    0.004961    0.005139    0.006747
     0.006793    0.006896    0.011232    0.011440    0.011554    0.021588
     0.021707    0.025486    0.025702    0.030815    0.030889    0.034942
     0.035338    0.038315    0.039049    0.040671    0.042035    0.042135
     0.044626    0.045349    0.047018    0.047592    0.050004    0.051104
     0.051219    0.053510    0.053943    0.054605    0.054801    0.055285
     0.056026    0.056265    0.057491    0.058167    0.059350    0.060353
     0.060419    0.063193    0.063707    0.064174    0.064642    0.069448
     0.069547    0.072845    0.073012    0.085527    0.092308    0.092734
     0.093062    0.095142    0.096701    0.096812    0.097111    0.102587
     0.102661    0.106397    0.107782    0.110878    0.111224    0.115032
     0.121627    0.128680    0.133655    0.144499    0.157536    0.159869
     0.160000    0.162812    0.163949    0.170044    0.217044    0.218748
     0.219595    0.228755    0.230742    0.236266    0.238856    0.238941
     0.239208    0.239320    0.243196    0.244401    0.249167    0.249617
     0.249918    0.249980    0.249984    0.252864    0.253115    0.259832
     0.260505    0.260668    0.261677    0.263288    0.292165    0.293452
     0.307156    0.308396    0.322657    0.322741    0.324677    0.325071
     0.326684    0.326887    0.327190    0.327350    0.327744    0.328797
     0.329242    0.329331    0.329506    0.330743    0.330808    0.330988
     0.332538    0.332819    0.334605    0.334766    0.334820    0.334993
     0.335112    0.335119    0.335142    0.335858    0.342308    0.344815
     0.345024    0.346199    0.405098    0.406378    0.407508    0.410933
     0.825924    0.830547    0.835214    0.835463   16.194703

 Minimum Search - Taking Simple RFO Step
 Searching for Lamda that Minimizes Along All modes
 Value Taken    Lamda =  -0.45744946
 Step Taken.  Stepsize is  0.167128

                             Maximum     Tolerance    Cnvgd?
         Gradient           2.537632      0.000300      NO
         Displacement       0.152141      0.001200      NO
         Energy change      0.110670      0.000001      NO


 New Cartesian Coordinates Obtained by Inverse Iteration

 Displacement from previous Coordinates is:  6.125704
 Adding empirical dispersion correction 
 ----------------------------------------------------------------
 Doing -D3(op) with
 s6 =   1.00000
 s8 =   0.78311
 a1 =   0.30000
 a2 =   4.25000
 n  =  10.00000
 -D3 energy without 3body term =     -0.0691830025 hartrees
 ----------------------------------------------------------------
             Standard Nuclear Orientation (Angstroms)
    I     Atom           X                Y                Z
 ----------------------------------------------------------------
    1      O      -1.3240523133    -0.9464016084     0.6575278073
    2      C      -2.4250674871    -1.4616768398     0.3596667870
    3      C      -3.8625677849    -0.8480590017     0.3978096459
    4      C      -3.9858215631     0.6079241563     1.0077358085
    5      C      -2.6242810650     1.3156748447     1.3611800729
    6      O      -1.9639432446     1.7177030976     0.1566328169
    7      C      -0.7079949835     2.4359195418     0.4858003355
    8      C       0.1111464387     2.5989184801    -0.8426333734
    9      O       0.6966321825     1.3214416843    -1.3234242710
   10      C       1.8569590923     1.0325002650    -0.5288843824
   11      C       2.4067250793    -0.3824498762    -0.9301399563
   12      C       3.9492037089    -0.5714849588    -0.6494870716
   13      C       4.7771881172     0.7562232873    -0.5304756715
   14      O       4.5238354353     1.8687877583    -1.0390340956
   15      O      -2.5977379131    -2.8084286041    -0.0923431115
   16      O       5.9694507554     0.4732104254     0.2132014778
   17      O       2.2432599338     1.7640058112     0.4070722509
   18      C       6.8021229616     1.6936490698     0.3116536762
   19      C       1.8026205868    -1.4360168567     0.1019615136
   20      C       2.2205687008    -2.9006009944    -0.3361581468
   21      C       3.7115048165    -2.9687791869     0.1597891445
   22      C       3.9196611197    -1.4870630429     0.6531306602
   23      O       2.6282353965    -1.1743537055     1.3057411669
   24      H       2.1296834211    -0.5987921852    -1.9762537105
   25      H       4.4056995195    -1.1456930016    -1.4780696681
   26      H       0.7207477716    -1.2896369503     0.3178641146
   27      H       1.5988624129    -3.6525444672     0.1707272016
   28      H       2.1305368810    -3.0440979110    -1.4249868137
   29      H       3.8217231395    -3.6717467908     1.0010863920
   30      H       4.4178453060    -3.2542645409    -0.6358129599
   31      H       4.7648911190    -1.3223979861     1.3487496764
   32      O      -2.1871399695     1.5405907233     2.5109395141
   33      C      -1.2950827622    -3.4927628979    -0.2007366787
   34      C      -4.4616958247    -0.6225025014    -1.0632190271
   35      C      -6.0333451368    -0.5550838055    -0.9342976199
   36      C      -6.2162047931     0.8556742217    -0.2668382751
   37      C      -4.7192498554     1.3572736471    -0.1861534357
   38      O      -4.0855405044     0.7700362188    -1.3902144022
   39      H      -4.4954487981    -1.5608340492     0.9573239432
   40      H      -4.5935331265     0.5899536385     1.9291430959
   41      H      -0.7371504939    -3.4539629665     0.7560639714
   42      H      -4.0796775883    -1.3262015867    -1.8281470840
   43      H      -6.5000918955    -0.5947888989    -1.9315909547
   44      H      -6.4391663979    -1.3753287828    -0.3211245118
   45      H      -6.8156267759     1.5291943763    -0.8996325687
   46      H      -6.6852170864     0.7950796591     0.7281546376
   47      H      -4.5951960343     2.4571492060    -0.1797671455
   48      H      -0.6685944711    -3.0433767952    -0.9967746602
   49      H      -1.5203179843    -4.5439808354    -0.4583502150
   50      H       7.6883954199     1.4114501296     0.9092535237
   51      H       6.2588520635     2.5176505620     0.8177271578
   52      H       7.1267666297     2.0490054660    -0.6878461903
   53      H      -0.5667342148     2.9413730124    -1.6499019719
   54      H       0.9228186603     3.3400440139    -0.6792501273
   55      H      -0.1088328537     1.8761688096     1.2352919254
   56      H      -0.9449332996     3.4372797002     0.9103622017
 ----------------------------------------------------------------
 Molecular Point Group                 C1    NOp =  1
 Largest Abelian Subgroup              C1    NOp =  1
 Nuclear Repulsion Energy =  3201.6568624215 hartrees
 There are      113 alpha and      113 beta electrons
 Applying Cartesian multipole field
    Component          Value
    ---------          -----
     (2,0,0)        1.00000E-12
     (0,2,0)        2.00000E-11
     (0,0,2)       -3.00000E-11
 Nucleus-field energy     =     0.0000000410 hartrees
 Requested basis set is STO-3G
 There are 86 shells and 176 basis functions
 A cutoff of  1.0D-12 yielded   2292 shell pairs
 There are     10968 function pairs
 Smallest overlap matrix eigenvalue = 2.13E-01
 Guess MOs from SCF MO coefficient file
 Reading MOs from coefficient file
 Reading MOs from coefficient file
 A restricted hybrid HF-DFT SCF calculation will be
 performed using Pulay DIIS extrapolation
 Exchange:     0.2000 Hartree-Fock + 0.0800 Slater + 0.7200 B88
 Correlation:  0.1900 VWN1RPA + 0.8100 LYP
 Using SG-1 standard quadrature grid
 Dispersion:   Grimme D3
 SCF converges when DIIS error is below 1.0E-08
 Geometry optimization detected.  Setting ReadMinima to 0
 Setting SaveMinima to 0
 using 48 threads for integral computing
 -------------------------------------------------------
 OpenMP Integral computing Module                
 Release: version 1.0, May 2013, Q-Chem Inc. Pittsburgh 
 -------------------------------------------------------
 -------------------------------------------------------
 OpenMP BLAS3 based DFT computing Module                
 Release: version 1.0, May 2013, Q-Chem Inc. Pittsburgh 
 -------------------------------------------------------
 ---------------------------------------
  Cycle       Energy         DIIS Error
 ---------------------------------------
    1   -1510.2859943989      8.17E-03
    2   -1510.2616275900      1.98E-03
    3   -1510.2684224630      1.86E-03
    4   -1510.2828445873      7.24E-04
    5   -1510.2850782055      1.81E-04
    6   -1510.2852144509      5.83E-05
    7   -1510.2852292429      1.77E-05
    8   -1510.2852299687      1.26E-05
    9   -1510.2852306622      1.90E-06
   10   -1510.2852306803      5.64E-07
   11   -1510.2852306813      4.01E-07
   12   -1510.2852306820      1.41E-07
   13   -1510.2852306821      3.96E-08
   14   -1510.2852306822      8.84E-09 Convergence criterion met
 ---------------------------------------
 SCF time:  CPU 101.21 s  wall 2.11 s
 SCF   energy in the final basis set = -1510.28523068
 Total energy in the final basis set = -1510.28523068
 
 --------------------------------------------------------------
 
                    Orbital Energies (a.u.)
 --------------------------------------------------------------
 
 Alpha MOs
 -- Occupied --
-18.942 -18.928 -18.923 -18.921 -18.890 -18.890 -18.879 -18.869
-18.862 -18.862 -10.109 -10.094 -10.090 -10.087 -10.071 -10.064
-10.062 -10.060 -10.060 -10.059 -10.052 -10.047 -10.041 -10.035
-10.031 -10.030 -10.021 -10.020 -10.016 -10.015  -1.020  -1.007
 -1.002  -0.997  -0.971  -0.962  -0.946  -0.931  -0.926  -0.920
 -0.764  -0.757  -0.725  -0.719  -0.712  -0.702  -0.690  -0.669
 -0.656  -0.609  -0.597  -0.572  -0.546  -0.538  -0.537  -0.532
 -0.516  -0.504  -0.486  -0.466  -0.461  -0.451  -0.446  -0.440
 -0.435  -0.430  -0.421  -0.418  -0.414  -0.409  -0.405  -0.403
 -0.388  -0.382  -0.370  -0.364  -0.359  -0.352  -0.350  -0.342
 -0.341  -0.336  -0.331  -0.328  -0.327  -0.319  -0.315  -0.313
 -0.308  -0.306  -0.302  -0.297  -0.287  -0.283  -0.281  -0.274
 -0.266  -0.260  -0.250  -0.244  -0.238  -0.235  -0.226  -0.186
 -0.173  -0.167  -0.165  -0.161  -0.151  -0.145  -0.141  -0.138
 -0.136
 -- Virtual --
  0.091   0.106   0.110   0.113   0.239   0.245   0.248   0.251
  0.259   0.266   0.286   0.294   0.309   0.315   0.326   0.331
  0.337   0.342   0.347   0.352   0.357   0.366   0.368   0.371
  0.378   0.380   0.395   0.401   0.403   0.405   0.412   0.413
  0.416   0.419   0.421   0.423   0.426   0.427   0.428   0.434
  0.435   0.436   0.437   0.445   0.451   0.453   0.464   0.466
  0.472   0.477   0.481   0.489   0.499   0.503   0.514   0.537
  0.545   0.552   0.559   0.643   0.646   0.653   0.669
 --------------------------------------------------------------
 
          Ground-State Mulliken Net Atomic Charges

     Atom                 Charge (a.u.)
  ----------------------------------------
      1 O                    -0.206665
      2 C                     0.217080
      3 C                    -0.078405
      4 C                    -0.080643
      5 C                     0.210554
      6 O                    -0.169234
      7 C                    -0.048204
      8 C                    -0.047856
      9 O                    -0.169358
     10 C                     0.213349
     11 C                    -0.078315
     12 C                    -0.079885
     13 C                     0.213240
     14 O                    -0.212325
     15 O                    -0.171049
     16 O                    -0.172590
     17 O                    -0.213664
     18 C                    -0.128123
     19 C                     0.014409
     20 C                    -0.146924
     21 C                    -0.142724
     22 C                     0.024830
     23 O                    -0.189528
     24 H                     0.083893
     25 H                     0.082105
     26 H                     0.100204
     27 H                     0.073181
     28 H                     0.070239
     29 H                     0.076085
     30 H                     0.071835
     31 H                     0.090431
     32 O                    -0.216282
     33 C                    -0.129540
     34 C                     0.026374
     35 C                    -0.143111
     36 C                    -0.144922
     37 C                     0.026859
     38 O                    -0.184678
     39 H                     0.087325
     40 H                     0.084274
     41 H                     0.091449
     42 H                     0.085442
     43 H                     0.078097
     44 H                     0.073992
     45 H                     0.077908
     46 H                     0.073871
     47 H                     0.084008
     48 H                     0.089285
     49 H                     0.091971
     50 H                     0.089028
     51 H                     0.092060
     52 H                     0.086998
     53 H                     0.092634
     54 H                     0.095524
     55 H                     0.102290
     56 H                     0.083199
  ----------------------------------------
  Sum of atomic charges =    -0.000000

 -----------------------------------------------------------------
                    Cartesian Multipole Moments
 -----------------------------------------------------------------
    Charge (ESU x 10^10)
                -0.0000
    Dipole Moment (Debye)
         X      -1.2353      Y      -2.5177      Z      -1.5979
       Tot       3.2277
    Quadrupole Moments (Debye-Ang)
        XX    -136.0081     XY      -1.7554     YY    -149.6517
        XZ      -3.4540     YZ       1.7426     ZZ    -167.8536
    Octopole Moments (Debye-Ang^2)
       XXX      28.8060    XXY      17.2876    XYY       2.9812
       YYY      14.7463    XXZ      16.7627    XYZ      11.6172
       YYZ       2.4862    XZZ      15.8712    YZZ      -9.4748
       ZZZ      -6.3911
    Hexadecapole Moments (Debye-Ang^3)
      XXXX  -12161.0323   XXXY     212.7496   XXYY   -2724.2123
      XYYY       3.8686   YYYY   -3009.9869   XXXZ       0.4291
      XXYZ      46.5850   XYYZ      21.2931   YYYZ     -20.5844
      XXZZ   -2379.2165   XYZZ      37.5101   YYZZ    -681.2668
      XZZZ      18.4419   YZZZ     -32.2336   ZZZZ    -930.4698
 -----------------------------------------------------------------
 Calculating analytic gradient of the SCF energy
 Gradient of SCF Energy
            1           2           3           4           5           6
    1  -0.0001492  -0.0000442   0.0006746  -0.0018185  -0.0027587   0.0012865
    2  -0.0002866   0.0005824  -0.0021425  -0.0017026   0.0042247  -0.0008168
    3   0.0000968   0.0004399  -0.0019769   0.0027476  -0.0001610   0.0003810
            7           8           9          10          11          12
    1  -0.0004162   0.0030622  -0.0005255   0.0010795   0.0015719  -0.0005034
    2   0.0015002   0.0002803  -0.0015294   0.0047635  -0.0011985  -0.0006834
    3   0.0000684   0.0026274  -0.0017586  -0.0024647  -0.0008175   0.0029543
           13          14          15          16          17          18
    1   0.0000244  -0.0007352   0.0000440   0.0004332  -0.0024872   0.0000996
    2   0.0001195   0.0002996  -0.0007197  -0.0003830  -0.0000451   0.0000417
    3  -0.0013222   0.0013766   0.0003939  -0.0006072  -0.0010344  -0.0001765
           19          20          21          22          23          24
    1  -0.0007532   0.0001799  -0.0002741  -0.0004924   0.0006329   0.0000034
    2  -0.0005505  -0.0008785   0.0004351   0.0001908   0.0000430   0.0003688
    3  -0.0001610   0.0003280  -0.0005006  -0.0002500   0.0001502   0.0002312
           25          26          27          28          29          30
    1   0.0002727   0.0009834   0.0009230   0.0000147   0.0000712  -0.0000330
    2  -0.0006371   0.0000693   0.0004223   0.0000406   0.0000852   0.0000281
    3   0.0004161  -0.0008202  -0.0002603   0.0000185   0.0000893  -0.0000085
           31          32          33          34          35          36
    1  -0.0000725   0.0005114  -0.0012887   0.0000098   0.0001958   0.0003250
    2  -0.0002129  -0.0003598   0.0011897   0.0000355   0.0006967  -0.0008226
    3   0.0003097  -0.0005171   0.0000006   0.0007819   0.0004210  -0.0006633
           37          38          39          40          41          42
    1   0.0008146   0.0003165   0.0002251   0.0002456  -0.0006867  -0.0002808
    2  -0.0002127   0.0007173  -0.0003737  -0.0006437   0.0002820  -0.0000273
    3  -0.0000940  -0.0006600  -0.0001356   0.0000170  -0.0000722  -0.0001289
           43          44          45          46          47          48
    1   0.0000094  -0.0000484   0.0000395  -0.0000513  -0.0002619  -0.0005915
    2  -0.0000061   0.0000324  -0.0000326  -0.0001023   0.0000592   0.0001348
    3  -0.0000175   0.0001486  -0.0000408  -0.0000064   0.0001439   0.0002818
           49          50          51          52          53          54
    1  -0.0002356   0.0000021  -0.0000333  -0.0000020  -0.0007025   0.0017552
    2   0.0000524  -0.0000275   0.0000121   0.0000023  -0.0005582  -0.0013545
    3   0.0000205  -0.0000204  -0.0000083   0.0000718   0.0007482  -0.0006242
           55          56
    1   0.0008001  -0.0013612
    2  -0.0000381  -0.0003640
    3  -0.0006215   0.0006662
 Max gradient component =       4.764E-03
 RMS gradient           =       9.751E-04
 Gradient time:  CPU 29.86 s  wall 0.63 s
 Geometry Optimization Parameters
   NAtoms,    NIC,     NZ,  NCons,   NDum,   NFix, NCnnct, MaxDiis
       56     458       0       0       0       0       0       0

 Cartesian Hessian Update
 Hessian Updated using BFGS Update


** GEOMETRY OPTIMIZATION IN DELOCALIZED INTERNAL COORDINATES **
   Searching for a Minimum

   Optimization Cycle:   3

                       Coordinates (Angstroms)
     ATOM                X               Y               Z
      1  O        -1.3240523133   -0.9464016084    0.6575278073
      2  C        -2.4250674871   -1.4616768398    0.3596667870
      3  C        -3.8625677849   -0.8480590017    0.3978096459
      4  C        -3.9858215631    0.6079241563    1.0077358085
      5  C        -2.6242810650    1.3156748447    1.3611800729
      6  O        -1.9639432446    1.7177030976    0.1566328169
      7  C        -0.7079949835    2.4359195418    0.4858003355
      8  C         0.1111464387    2.5989184801   -0.8426333734
      9  O         0.6966321825    1.3214416843   -1.3234242710
     10  C         1.8569590923    1.0325002650   -0.5288843824
     11  C         2.4067250793   -0.3824498762   -0.9301399563
     12  C         3.9492037089   -0.5714849588   -0.6494870716
     13  C         4.7771881172    0.7562232873   -0.5304756715
     14  O         4.5238354353    1.8687877583   -1.0390340956
     15  O        -2.5977379131   -2.8084286041   -0.0923431115
     16  O         5.9694507554    0.4732104254    0.2132014778
     17  O         2.2432599338    1.7640058112    0.4070722509
     18  C         6.8021229616    1.6936490698    0.3116536762
     19  C         1.8026205868   -1.4360168567    0.1019615136
     20  C         2.2205687008   -2.9006009944   -0.3361581468
     21  C         3.7115048165   -2.9687791869    0.1597891445
     22  C         3.9196611197   -1.4870630429    0.6531306602
     23  O         2.6282353965   -1.1743537055    1.3057411669
     24  H         2.1296834211   -0.5987921852   -1.9762537105
     25  H         4.4056995195   -1.1456930016   -1.4780696681
     26  H         0.7207477716   -1.2896369503    0.3178641146
     27  H         1.5988624129   -3.6525444672    0.1707272016
     28  H         2.1305368810   -3.0440979110   -1.4249868137
     29  H         3.8217231395   -3.6717467908    1.0010863920
     30  H         4.4178453060   -3.2542645409   -0.6358129599
     31  H         4.7648911190   -1.3223979861    1.3487496764
     32  O        -2.1871399695    1.5405907233    2.5109395141
     33  C        -1.2950827622   -3.4927628979   -0.2007366787
     34  C        -4.4616958247   -0.6225025014   -1.0632190271
     35  C        -6.0333451368   -0.5550838055   -0.9342976199
     36  C        -6.2162047931    0.8556742217   -0.2668382751
     37  C        -4.7192498554    1.3572736471   -0.1861534357
     38  O        -4.0855405044    0.7700362188   -1.3902144022
     39  H        -4.4954487981   -1.5608340492    0.9573239432
     40  H        -4.5935331265    0.5899536385    1.9291430959
     41  H        -0.7371504939   -3.4539629665    0.7560639714
     42  H        -4.0796775883   -1.3262015867   -1.8281470840
     43  H        -6.5000918955   -0.5947888989   -1.9315909547
     44  H        -6.4391663979   -1.3753287828   -0.3211245118
     45  H        -6.8156267759    1.5291943763   -0.8996325687
     46  H        -6.6852170864    0.7950796591    0.7281546376
     47  H        -4.5951960343    2.4571492060   -0.1797671455
     48  H        -0.6685944711   -3.0433767952   -0.9967746602
     49  H        -1.5203179843   -4.5439808354   -0.4583502150
     50  H         7.6883954199    1.4114501296    0.9092535237
     51  H         6.2588520635    2.5176505620    0.8177271578
     52  H         7.1267666297    2.0490054660   -0.6878461903
     53  H        -0.5667342148    2.9413730124   -1.6499019719
     54  H         0.9228186603    3.3400440139   -0.6792501273
     55  H        -0.1088328537    1.8761688096    1.2352919254
     56  H        -0.9449332996    3.4372797002    0.9103622017
   Point Group: c1    Number of degrees of freedom:   162


   Energy is  -1510.285230682

 Hessian Updated using BFGS Update

152 Hessian modes will be used to form the next step
  Hessian Eigenvalues:
     0.001835    0.002000    0.002324    0.002690    0.002762    0.003987
     0.004141    0.004482    0.004550    0.004880    0.004961    0.005139
     0.006747    0.006793    0.006896    0.011232    0.011440    0.011554
     0.021588    0.021707    0.025486    0.025702    0.030815    0.030889
     0.034942    0.035339    0.038314    0.039049    0.040671    0.042035
     0.042135    0.044627    0.045349    0.047019    0.047592    0.050004
     0.051104    0.051219    0.053510    0.053943    0.054605    0.054801
     0.055285    0.056026    0.056265    0.057491    0.058167    0.059350
     0.060353    0.060419    0.063193    0.063707    0.064174    0.064642
     0.069448    0.069547    0.072845    0.073012    0.085523    0.092308
     0.092734    0.093062    0.095142    0.096701    0.096812    0.097112
     0.102587    0.102661    0.106395    0.107778    0.110878    0.111224
     0.115030    0.121627    0.128682    0.133656    0.144498    0.157536
     0.159869    0.160000    0.160000    0.162811    0.163949    0.170042
     0.217044    0.218748    0.219595    0.228754    0.230742    0.236261
     0.238856    0.238942    0.239208    0.239320    0.243195    0.244401
     0.249165    0.249618    0.249918    0.249979    0.249984    0.249999
     0.252864    0.253115    0.259832    0.260505    0.260668    0.261677
     0.263287    0.292165    0.293452    0.307156    0.308396    0.322657
     0.322741    0.324677    0.325071    0.326684    0.326887    0.327190
     0.327350    0.327744    0.328797    0.329242    0.329331    0.329506
     0.330743    0.330808    0.330988    0.332538    0.332819    0.334605
     0.334766    0.334820    0.334993    0.335112    0.335119    0.335142
     0.335858    0.342310    0.344815    0.345022    0.346199    0.405098
     0.406396    0.407508    0.410929    0.825924    0.830547    0.835214
     0.835463   16.803053

 Minimum Search - Taking Simple RFO Step
 Searching for Lamda that Minimizes Along All modes
 Value Taken    Lamda =  -0.00499137
 Calculated Step too Large.  Step scaled by  0.445230
 Step Taken.  Stepsize is  0.300000

                             Maximum     Tolerance    Cnvgd?
         Gradient           0.023599      0.000300      NO
         Displacement       0.079439      0.001200      NO
         Energy change     -0.111203      0.000001      NO


 New Cartesian Coordinates Obtained by Inverse Iteration

 Displacement from previous Coordinates is:  2.684639
 Adding empirical dispersion correction 
 ----------------------------------------------------------------
 Doing -D3(op) with
 s6 =   1.00000
 s8 =   0.78311
 a1 =   0.30000
 a2 =   4.25000
 n  =  10.00000
 -D3 energy without 3body term =     -0.0693023345 hartrees
 ----------------------------------------------------------------
             Standard Nuclear Orientation (Angstroms)
    I     Atom           X                Y                Z
 ----------------------------------------------------------------
    1      O      -1.3263170904    -0.9372162478     0.5230416618
    2      C      -2.4242383917    -1.4495793436     0.2089788597
    3      C      -3.8690636036    -0.8548526313     0.3029539063
    4      C      -3.9924240492     0.5637858035     0.9922521515
    5      C      -2.6285838071     1.2464222220     1.3754702414
    6      O      -1.9879140886     1.7234924921     0.1894113100
    7      C      -0.7386143092     2.4378559391     0.5455126634
    8      C       0.1101638243     2.5748338706    -0.7641413925
    9      O       0.6891411684     1.2785229947    -1.1996107263
   10      C       1.8310745050     0.9736861012    -0.3825657416
   11      C       2.3572216127    -0.4524585525    -0.7675171601
   12      C       3.9201054554    -0.6174970316    -0.6127330254
   13      C       4.7410949159     0.7198886263    -0.6257820693
   14      O       4.4626170976     1.7869998021    -1.2126783646
   15      O      -2.5810538432    -2.7646937405    -0.3338987996
   16      O       5.9620091263     0.5013591895     0.0926149352
   17      O       2.2760587029     1.7394981966     0.4988812376
   18      C       6.7866199093     1.7309217674     0.0684277502
   19      C       1.8533039003    -1.4596547076     0.3600242792
   20      C       2.2498912659    -2.9402371734    -0.0421402545
   21      C       3.7777730250    -2.9744983289     0.3307735486
   22      C       4.0100830592    -1.4683320357     0.7311337825
   23      O       2.7745014896    -1.1338496721     1.4752148846
   24      H       1.9968617803    -0.7171601525    -1.7766831867
   25      H       4.3123321244    -1.2274648371    -1.4485133089
   26      H       0.7917315399    -1.3113044512     0.6620605242
   27      H       1.6799543066    -3.6714953003     0.5496972694
   28      H       2.0716530056    -3.1365161106    -1.1117001369
   29      H       3.9646306575    -3.6343886319     1.1931484136
   30      H       4.4186158835    -3.2945679555    -0.5060702717
   31      H       4.9092081822    -1.2626441893     1.3431168019
   32      O      -2.1906107559     1.4222162305     2.5335481618
   33      C      -1.2696335157    -3.4236233814    -0.5001321750
   34      C      -4.4898097861    -0.5536544564    -1.1356749780
   35      C      -6.0602230048    -0.4968937394    -0.9831790661
   36      C      -6.2371954698     0.8768488796    -0.2387652921
   37      C      -4.7399071482     1.3762059826    -0.1504640784
   38      O      -4.1209080614     0.8550771714    -1.3918444185
   39      H      -4.4891456071    -1.6018839837     0.8311631631
   40      H      -4.5921999025     0.4948807377     1.9165459599
   41      H      -0.7023604019    -3.4437552084     0.4519629540
   42      H      -4.1151655086    -1.2136704956    -1.9420553678
   43      H      -6.5396098321    -0.4843189342    -1.9751657502
   44      H      -6.4566281773    -1.3499468954    -0.4099979141
   45      H      -6.8456437467     1.5819212594    -0.8270269617
   46      H      -6.6931171682     0.7626469362     0.7575852353
   47      H      -4.6157808458     2.4742212469    -0.0867362778
   48      H      -0.6554408503    -2.9136563768    -1.2691474122
   49      H      -1.4837545038    -4.4577223873    -0.8271789406
   50      H       7.6964239787     1.5003024330     0.6526456698
   51      H       6.2546352376     2.5873676933     0.5306950928
   52      H       7.0716848026     2.0117839055    -0.9662844067
   53      H      -0.5425645062     2.9079598651    -1.5959499097
   54      H       0.9200727304     3.3155115548    -0.5916543215
   55      H      -0.1635081077     1.8778734281     1.3134148110
   56      H      -0.9723567557     3.4460228007     0.9550588585
 ----------------------------------------------------------------
 Molecular Point Group                 C1    NOp =  1
 Largest Abelian Subgroup              C1    NOp =  1
 Nuclear Repulsion Energy =  3201.7669152148 hartrees
 There are      113 alpha and      113 beta electrons
 Applying Cartesian multipole field
    Component          Value
    ---------          -----
     (2,0,0)        1.00000E-12
     (0,2,0)        2.00000E-11
     (0,0,2)       -3.00000E-11
 Nucleus-field energy     =     0.0000000397 hartrees
 Requested basis set is STO-3G
 There are 86 shells and 176 basis functions
 A cutoff of  1.0D-12 yielded   2291 shell pairs
 There are     10970 function pairs
 Smallest overlap matrix eigenvalue = 2.13E-01
 Guess MOs from SCF MO coefficient file
 Reading MOs from coefficient file
 Reading MOs from coefficient file
 A restricted hybrid HF-DFT SCF calculation will be
 performed using Pulay DIIS extrapolation
 Exchange:     0.2000 Hartree-Fock + 0.0800 Slater + 0.7200 B88
[...]
      7  C        -0.5392131590    2.2980127490   -0.6845870653
      8  C         0.1264959931    1.7134440225   -1.9774511508
      9  O         0.7283526389    0.3770454764   -1.7621626800
     10  C         2.0290257279    0.4881397559   -1.1607225428
     11  C         2.6089505666   -0.9463502738   -0.9564295443
     12  C         4.1041628620   -0.9566210157   -0.4302646325
     13  C         4.7063130066    0.4749753533   -0.1682490162
     14  O         5.4619130191    1.1130400636   -0.9338289174
     15  O        -2.2544524116   -1.7232203807   -1.3404505445
     16  O         4.3371484329    0.9049782782    1.1471646922
     17  O         2.5611453655    1.5858862134   -0.8880457465
     18  C         4.8263308976    2.2819328832    1.3757805414
     19  C         1.8597817010   -1.7382431430    0.2090118749
     20  C         2.1967319784   -3.2702736607    0.0288803863
     21  C         3.6945257375   -3.3147993232    0.5101240175
     22  C         3.9347095243   -1.8025560488    0.9029579590
     23  O         2.6192806164   -1.3625560717    1.4200344261
     24  H         2.5160071279   -1.4858287227   -1.9165739946
     25  H         4.7641655605   -1.4612836059   -1.1578406075
     26  H         0.7769802947   -1.4843322246    0.3198419819
     27  H         1.5478390687   -3.8817471013    0.6763134269
     28  H         2.0740771894   -3.6090342018   -1.0123754261
     29  H         3.8174915586   -3.9649440855    1.3907551074
     30  H         4.3854089092   -3.6537708490   -0.2784170296
     31  H         4.7269439967   -1.6305190563    1.6562928802
     32  O        -1.3096873570    1.9485866320    1.8624191735
     33  C        -0.9454765312   -2.0456785580   -1.9644081874
     34  C        -4.6261581614   -0.5853570790   -0.4949250811
     35  C        -5.9962545928   -0.5697072550    0.2900152688
     36  C        -5.9695694481    0.8721519378    0.9198734367
     37  C        -4.5931787131    1.4196574947    0.3697012636
     38  O        -4.4855246716    0.8092957151   -0.9738498604
     39  H        -3.7088772510   -1.4792510118    1.3385205104
     40  H        -3.6232682631    0.7081339993    2.2703738460
     41  H        -0.4624642702   -2.9020107122   -1.4520103111
     42  H        -4.5644093202   -1.2951021530   -1.3416617859
     43  H        -6.8401082362   -0.6888307179   -0.4080835467
     44  H        -6.0512664324   -1.3661599561    1.0492890595
     45  H        -6.8037002916    1.4900816724    0.5513331523
     46  H        -5.9997551857    0.8578861581    2.0211639585
     47  H        -4.5170527309    2.5221858342    0.3021598598
     48  H        -0.2654982282   -1.1597016796   -1.9387363112
     49  H        -1.1764126484   -2.3292504945   -3.0071962234
     50  H         4.5393012018    2.5405388574    2.4115968568
     51  H         4.3536891343    2.9950331926    0.6695903188
     52  H         5.9279971895    2.3514265820    1.2649710719
     53  H        -0.6437396668    1.5726237883   -2.7627817901
     54  H         0.9015148997    2.4261639800   -2.3326326280
     55  H         0.1363525792    2.2123863805    0.1935707825
     56  H        -0.7579131319    3.3761986316   -0.8527525523
   Point Group: c1    Number of degrees of freedom:   162


   Energy is  -1510.298830483

 Hessian Updated using BFGS Update

161 Hessian modes will be used to form the next step
  Hessian Eigenvalues:
     0.000896    0.001229    0.001883    0.002495    0.003521    0.004783
     0.005280    0.005864    0.006914    0.012837    0.012945    0.015673
     0.017120    0.018656    0.022055    0.022582    0.026272    0.027010
     0.029503    0.032061    0.032754    0.034318    0.035099    0.036616
     0.038235    0.040135    0.042232    0.042876    0.043443    0.044717
     0.046718    0.047056    0.047942    0.050338    0.051527    0.051852
     0.053325    0.054663    0.055112    0.055448    0.055964    0.056365
     0.056897    0.057655    0.058268    0.061666    0.061862    0.062848
     0.063501    0.063768    0.064250    0.064394    0.065754    0.066770
     0.069716    0.070795    0.072980    0.076033    0.081270    0.088319
     0.092983    0.093609    0.096331    0.096889    0.099664    0.101834
     0.102922    0.104317    0.107928    0.109366    0.111373    0.114505
     0.116975    0.123283    0.131127    0.139546    0.143754    0.151128
     0.160159    0.160473    0.160614    0.162161    0.162919    0.164549
     0.167574    0.172106    0.187226    0.203342    0.210438    0.219733
     0.223223    0.234489    0.234906    0.237402    0.237722    0.239150
     0.240697    0.242497    0.243752    0.249652    0.249694    0.252184
     0.252622    0.254046    0.254285    0.255479    0.257251    0.259197
     0.260935    0.263962    0.273339    0.280567    0.287936    0.293252
     0.297019    0.303070    0.305516    0.308977    0.316811    0.324199
     0.324808    0.325488    0.326187    0.327325    0.327958    0.328440
     0.328921    0.329228    0.329422    0.329731    0.330538    0.330855
     0.331618    0.332437    0.332637    0.333565    0.334806    0.334837
     0.335055    0.335102    0.335246    0.335365    0.335749    0.336486
     0.345454    0.356795    0.369454    0.380471    0.394282    0.395373
     0.422950    0.431609    0.447885    0.549116    0.819428    0.830417
     0.835349    0.845964    0.975843    1.871154    3.749408

 Minimum Search - Taking Simple RFO Step
 Searching for Lamda that Minimizes Along All modes
 Value Taken    Lamda =   0.00000000
 Step Taken.  Stepsize is  0.003428

                             Maximum     Tolerance    Cnvgd?
         Gradient           0.000143      0.000300     YES
         Displacement       0.001321      0.001200      NO
         Energy change     -0.000000      0.000001     YES

 Final energy is   -1510.29883048342     


 ******************************
 **  OPTIMIZATION CONVERGED  **
 ******************************

                       Coordinates (Angstroms)
     ATOM                X               Y               Z
      1  O        -0.9643165526   -0.9994204636    0.5169307713
      2  C        -2.0703689172   -1.1476231589   -0.0576201285
      3  C        -3.4542924472   -0.7339195612    0.5619188945
      4  C        -3.4160600448    0.7262734798    1.1862348477
      5  C        -2.0544390944    1.4727903061    0.9790423783
      6  O        -1.8034885706    1.5697933062   -0.4317630217
      7  C        -0.5392131590    2.2980127490   -0.6845870653
      8  C         0.1264959931    1.7134440225   -1.9774511508
      9  O         0.7283526389    0.3770454764   -1.7621626800
     10  C         2.0290257279    0.4881397559   -1.1607225428
     11  C         2.6089505666   -0.9463502738   -0.9564295443
     12  C         4.1041628620   -0.9566210157   -0.4302646325
     13  C         4.7063130066    0.4749753533   -0.1682490162
     14  O         5.4619130191    1.1130400636   -0.9338289174
     15  O        -2.2544524116   -1.7232203807   -1.3404505445
     16  O         4.3371484329    0.9049782782    1.1471646922
     17  O         2.5611453655    1.5858862134   -0.8880457465
     18  C         4.8263308976    2.2819328832    1.3757805414
     19  C         1.8597817010   -1.7382431430    0.2090118749
     20  C         2.1967319784   -3.2702736607    0.0288803863
     21  C         3.6945257375   -3.3147993232    0.5101240175
     22  C         3.9347095243   -1.8025560488    0.9029579590
     23  O         2.6192806164   -1.3625560717    1.4200344261
     24  H         2.5160071279   -1.4858287227   -1.9165739946
     25  H         4.7641655605   -1.4612836059   -1.1578406075
     26  H         0.7769802947   -1.4843322246    0.3198419819
     27  H         1.5478390687   -3.8817471013    0.6763134269
     28  H         2.0740771894   -3.6090342018   -1.0123754261
     29  H         3.8174915586   -3.9649440855    1.3907551074
     30  H         4.3854089092   -3.6537708490   -0.2784170296
     31  H         4.7269439967   -1.6305190563    1.6562928802
     32  O        -1.3096873570    1.9485866320    1.8624191735
     33  C        -0.9454765312   -2.0456785580   -1.9644081874
     34  C        -4.6261581614   -0.5853570790   -0.4949250811
     35  C        -5.9962545928   -0.5697072550    0.2900152688
     36  C        -5.9695694481    0.8721519378    0.9198734367
     37  C        -4.5931787131    1.4196574947    0.3697012636
     38  O        -4.4855246716    0.8092957151   -0.9738498604
     39  H        -3.7088772510   -1.4792510118    1.3385205104
     40  H        -3.6232682631    0.7081339993    2.2703738460
     41  H        -0.4624642702   -2.9020107122   -1.4520103111
     42  H        -4.5644093202   -1.2951021530   -1.3416617859
     43  H        -6.8401082362   -0.6888307179   -0.4080835467
     44  H        -6.0512664324   -1.3661599561    1.0492890595
     45  H        -6.8037002916    1.4900816724    0.5513331523
     46  H        -5.9997551857    0.8578861581    2.0211639585
     47  H        -4.5170527309    2.5221858342    0.3021598598
     48  H        -0.2654982282   -1.1597016796   -1.9387363112
     49  H        -1.1764126484   -2.3292504945   -3.0071962234
     50  H         4.5393012018    2.5405388574    2.4115968568
     51  H         4.3536891343    2.9950331926    0.6695903188
     52  H         5.9279971895    2.3514265820    1.2649710719
     53  H        -0.6437396668    1.5726237883   -2.7627817901
     54  H         0.9015148997    2.4261639800   -2.3326326280
     55  H         0.1363525792    2.2123863805    0.1935707825
     56  H        -0.7579131319    3.3761986316   -0.8527525523

Z-matrix Print:
$molecule
0 1
O 
C  1 1.255159
O  2 1.418045 1 125.199458
C  3 1.485503 2 110.713908 1 -3.995751 0
H  4 1.105057 3 105.540439 2 -171.052834 0
H  4 1.108674 3 110.942557 2 70.780955 0
H  4 1.117132 3 110.765479 2 -51.275546 0
C  2 1.571695 1 124.361206 3 179.123998 0
H  8 1.106093 2 107.581414 1 -74.561038 0
C  8 1.585011 2 114.384116 1 161.413260 0
H  10 1.106578 8 114.131483 2 34.089255 0
O  10 1.481284 8 103.511124 2 -86.136310 0
C  12 1.479615 10 95.042544 8 -56.574406 0
H  13 1.107215 12 110.510175 10 -179.936282 0
C  10 1.579095 8 108.118015 2 164.499291 0
H  15 1.101645 10 110.398389 8 -167.688988 0
H  15 1.101753 10 112.254601 8 -46.263349 0
C  15 1.573655 10 101.146927 8 74.215547 0
H  18 1.101560 15 111.544765 10 117.775067 0
H  18 1.101796 15 112.813943 10 -119.514479 0
C  8 1.588520 2 112.066748 1 47.005774 0
H  21 1.103912 8 111.491029 2 -118.423084 0
C  21 1.566597 8 114.014365 2 3.541806 0
O  23 1.249557 21 127.299135 8 -122.984894 0
O  23 1.436230 21 108.298410 8 58.932528 0
C  25 1.480748 23 110.494564 21 178.667730 0
H  26 1.111253 25 110.257289 23 24.996427 0
H  26 1.112921 25 109.539690 23 -94.054990 0
C  26 1.567286 25 108.667363 23 147.357961 0
H  29 1.108980 26 109.664642 25 43.953481 0
H  29 1.111206 26 108.704598 25 164.061312 0
O  29 1.481399 26 112.902169 25 -73.617568 0
C  32 1.437297 29 111.022921 26 -81.355228 0
O  33 1.250020 32 122.982499 29 -1.050132 0
C  33 1.560708 32 108.662241 29 179.876305 0
H  35 1.105239 33 107.678455 32 50.471732 0
C  35 1.585123 33 113.572368 32 174.285007 0
H  37 1.104380 35 110.365084 33 -119.006677 0
C  37 1.575025 35 114.202129 33 1.894130 0
O  39 1.250668 37 126.360447 35 -99.429701 0
O  39 1.432305 37 109.094103 35 85.053284 0
C  41 1.479043 39 109.645817 37 -176.568479 0
H  42 1.105522 41 106.065049 39 -178.255865 0
H  42 1.109327 41 111.047241 39 62.740291 0
H  42 1.109404 41 111.796673 39 -58.745338 0
C  37 1.588019 35 100.455799 33 122.726500 0
H  46 1.106682 37 114.349221 35 -157.112486 0
O  46 1.480311 37 103.281927 35 -36.848764 0
C  48 1.478024 46 95.443938 37 57.578485 0
H  49 1.117682 48 111.028531 46 -178.845960 0
C  49 1.578955 48 103.323187 46 56.138554 0
H  51 1.101824 49 112.480735 48 -156.022602 0
H  51 1.101876 49 110.227154 48 82.610336 0
C  51 1.573837 49 101.283063 48 -35.440434 0
H  54 1.101508 51 111.555395 49 118.372279 0
H  54 1.101825 51 112.743558 49 -118.988717 0
$end

 
 --------------------------------------------------------------
 
                    Orbital Energies (a.u.)
 --------------------------------------------------------------
 
 Alpha MOs
 -- Occupied --
-18.949 -18.944 -18.930 -18.916 -18.891 -18.889 -18.881 -18.876
-18.876 -18.852 -10.110 -10.110 -10.099 -10.084 -10.083 -10.072
-10.062 -10.060 -10.051 -10.049 -10.048 -10.041 -10.038 -10.037
-10.034 -10.027 -10.022 -10.021 -10.012 -10.011  -1.025  -1.018
 -1.008  -0.992  -0.972  -0.958  -0.949  -0.942  -0.935  -0.918
 -0.765  -0.756  -0.729  -0.720  -0.713  -0.704  -0.692  -0.660
 -0.646  -0.618  -0.598  -0.579  -0.548  -0.539  -0.536  -0.529
 -0.517  -0.506  -0.494  -0.474  -0.470  -0.456  -0.444  -0.437
 -0.435  -0.432  -0.426  -0.415  -0.411  -0.406  -0.403  -0.397
 -0.395  -0.384  -0.374  -0.369  -0.361  -0.358  -0.353  -0.352
 -0.341  -0.333  -0.333  -0.330  -0.323  -0.322  -0.314  -0.312
 -0.306  -0.305  -0.300  -0.299  -0.295  -0.292  -0.277  -0.273
 -0.271  -0.262  -0.249  -0.248  -0.237  -0.235  -0.221  -0.193
 -0.182  -0.172  -0.163  -0.161  -0.158  -0.151  -0.145  -0.135
 -0.132
 -- Virtual --
  0.088   0.090   0.108   0.118   0.226   0.237   0.244   0.256
  0.257   0.271   0.283   0.297   0.309   0.311   0.324   0.335
  0.336   0.342   0.342   0.353   0.358   0.360   0.363   0.374
  0.379   0.380   0.384   0.399   0.401   0.408   0.409   0.411
  0.412   0.418   0.420   0.426   0.430   0.435   0.439   0.443
  0.445   0.448   0.448   0.449   0.454   0.461   0.462   0.466
  0.468   0.484   0.486   0.493   0.503   0.506   0.512   0.533
  0.546   0.552   0.566   0.635   0.645   0.647   0.659
 --------------------------------------------------------------
 
          Ground-State Mulliken Net Atomic Charges

     Atom                 Charge (a.u.)
  ----------------------------------------
      1 O                    -0.218200
      2 C                     0.222520
      3 C                    -0.077200
      4 C                    -0.078962
      5 C                     0.212059
      6 O                    -0.174560
      7 C                    -0.052436
      8 C                    -0.047098
      9 O                    -0.173088
     10 C                     0.219293
     11 C                    -0.081032
     12 C                    -0.081510
     13 C                     0.212188
     14 O                    -0.223177
     15 O                    -0.165495
     16 O                    -0.167357
     17 O                    -0.204211
     18 C                    -0.127115
     19 C                     0.005899
     20 C                    -0.145616
     21 C                    -0.145057
     22 C                     0.026707
     23 O                    -0.187326
     24 H                     0.082820
     25 H                     0.080950
     26 H                     0.113423
     27 H                     0.074714
     28 H                     0.067254
     29 H                     0.075817
     30 H                     0.070724
     31 H                     0.084251
     32 O                    -0.208370
     33 C                    -0.146814
     34 C                     0.023714
     35 C                    -0.144130
     36 C                    -0.144039
     37 C                     0.026191
     38 O                    -0.187054
     39 H                     0.085602
     40 H                     0.086227
     41 H                     0.080135
     42 H                     0.092642
     43 H                     0.077967
     44 H                     0.073252
     45 H                     0.078088
     46 H                     0.074351
     47 H                     0.082660
     48 H                     0.115007
     49 H                     0.084840
     50 H                     0.088011
     51 H                     0.090954
     52 H                     0.084897
     53 H                     0.097711
     54 H                     0.097445
     55 H                     0.106313
     56 H                     0.085223
  ----------------------------------------
  Sum of atomic charges =    -0.000000

 -----------------------------------------------------------------
                    Cartesian Multipole Moments
 -----------------------------------------------------------------
    Charge (ESU x 10^10)
                -0.0000
    Dipole Moment (Debye)
         X      -2.7033      Y      -1.5640      Z      -1.1455
       Tot       3.3266
    Quadrupole Moments (Debye-Ang)
        XX    -156.6591     XY      -4.4688     YY    -150.8906
        XZ      -3.3368     YZ       1.7004     ZZ    -161.7436
    Octopole Moments (Debye-Ang^2)
       XXX    -102.2054    XXY     -20.4018    XYY       4.6763
       YYY      45.3354    XXZ      81.7342    XYZ      16.3748
       YYZ       4.7751    XZZ      -3.4819    YZZ       7.0542
       ZZZ      16.3173
    Hexadecapole Moments (Debye-Ang^3)
      XXXX  -11707.3468   XXXY     227.2813   XXYY   -2349.5876
      XYYY     338.8521   YYYY   -2731.0850   XXXZ     153.4794
      XXYZ      93.2841   XYYZ      39.5713   YYYZ     -82.6925
      XXZZ   -2199.9192   XYZZ     139.9679   YYZZ    -662.5242
      XZZZ      33.2933   YZZZ     -66.5471   ZZZZ   -1265.3128
 -----------------------------------------------------------------
Archival summary:
1\1\vega02.cac.cornell.edu\OPT\ProcedureUnspecified\STO-3G\102026\jj585\TueJan1603:27:482018TueJan1603:27:482018\0\\#,OPT,ProcedureUnspecified,STO-3G,\\0,1\O\C,1,1.25516\O,2,1.41805,1,125.199\C,3,1.4855,2,110.714,1,-3.99575,0\H,4,1.10506,3,105.54,2,-171.053,0\H,4,1.10867,3,110.943,2,70.781,0\H,4,1.11713,3,110.765,2,-51.2755,0\C,2,1.57169,1,124.361,3,179.124,0\H,8,1.10609,2,107.581,1,-74.561,0\C,8,1.58501,2,114.384,1,161.413,0\H,10,1.10658,8,114.131,2,34.0893,0\O,10,1.48128,8,103.511,2,-86.1363,0\C,12,1.47961,10,95.0425,8,-56.5744,0\H,13,1.10722,12,110.51,10,-179.936,0\C,10,1.57909,8,108.118,2,164.499,0\H,15,1.10164,10,110.398,8,-167.689,0\H,15,1.10175,10,112.255,8,-46.2633,0\C,15,1.57366,10,101.147,8,74.2155,0\H,18,1.10156,15,111.545,10,117.775,0\H,18,1.1018,15,112.814,10,-119.514,0\C,8,1.58852,2,112.067,1,47.0058,0\H,21,1.10391,8,111.491,2,-118.423,0\C,21,1.5666,8,114.014,2,3.54181,0\O,23,1.24956,21,127.299,8,-122.985,0\O,23,1.43623,21,108.298,8,58.9325,0\C,25,1.48075,23,110.495,21,178.668,0\H,26,1.11125,25,110.257,23,24.9964,0\H,26,1.11292,25,109.54,23,-94.055,0\C,26,1.56729,25,108.667,23,147.358,0\H,29,1.10898,26,109.665,25,43.9535,0\H,29,1.11121,26,108.705,25,164.061,0\O,29,1.4814,26,112.902,25,-73.6176,0\C,32,1.4373,29,111.023,26,-81.3552,0\O,33,1.25002,32,122.982,29,-1.05013,0\C,33,1.56071,32,108.662,29,179.876,0\H,35,1.10524,33,107.678,32,50.4717,0\C,35,1.58512,33,113.572,32,174.285,0\H,37,1.10438,35,110.365,33,-119.007,0\C,37,1.57503,35,114.202,33,1.89413,0\O,39,1.25067,37,126.36,35,-99.4297,0\O,39,1.43231,37,109.094,35,85.0533,0\C,41,1.47904,39,109.646,37,-176.568,0\H,42,1.10552,41,106.065,39,-178.256,0\H,42,1.10933,41,111.047,39,62.7403,0\H,42,1.1094,41,111.797,39,-58.7453,0\C,37,1.58802,35,100.456,33,122.727,0\H,46,1.10668,37,114.349,35,-157.112,0\O,46,1.48031,37,103.282,35,-36.8488,0\C,48,1.47802,46,95.4439,37,57.5785,0\H,49,1.11768,48,111.029,46,-178.846,0\C,49,1.57896,48,103.323,46,56.1386,0\H,51,1.10182,49,112.481,48,-156.023,0\H,51,1.10188,49,110.227,48,82.6103,0\C,51,1.57384,49,101.283,48,-35.4404,0\H,54,1.10151,51,111.555,49,118.372,0\H,54,1.10182,51,112.744,49,-118.989,0\\\@

 Total job time:  146.42s(wall), 6987.72s(cpu) 
 Tue Jan 16 03:27:48 2018

        *************************************************************
        *                                                           *
        *  Thank you very much for using Q-Chem.  Have a nice day.  *
        *                                                           *
        *************************************************************


0 sent ACK to 0 
now end server 0 ... 
