mFile = /opt/software/qchem/qchem-5.0.1//bin/mpi/machines
Process 0 of 1 is on vega02.cac.cornell.edu - thread support 0
initial socket setup ...start
initial socket setup ...done 
now start server 0 ... 
vega02.cac.cornell.edu 10.84.3
Q-Chem Developer Version! Running on 10.84.3.*
                  Welcome to Q-Chem
     A Quantum Leap Into The Future Of Chemistry


 Q-Chem 5.0, Q-Chem, Inc., Pleasanton, CA (2017)

 Yihan Shao,  Zhengting Gan,  E. Epifanovsky,  A. T. B. Gilbert,  M. Wormit,  
 J. Kussmann,  A. W. Lange,  A. Behn,  Jia Deng,  Xintian Feng,  D. Ghosh,  
 M. Goldey,  P. R. Horn,  L. D. Jacobson,  I. Kaliman,  T. Kus,  A. Landau,  
 Jie Liu,  E. I. Proynov,  R. M. Richard,  R. P. Steele,  E. J. Sundstrom,  
 H. L. Woodcock III,  P. M. Zimmerman,  D. Zuev,  B. Albrecht,  E. Alguire,  
 S. A. Baeppler,  Z. Benda,  Y. A. Bernard,  E. J. Berquist,  K. B. Bravaya,  
 D. Casanova,  Chun-Min Chang,  Yunqing Chen,  A. Chien,  K. D. Closser,  
 M. P. Coons,  S. Dasgupta,  M. Diedenhofen,  Hainam Do,  R. G. Edgar,  
 Po-Tung Fang,  S. Fatehi,  Qingguo Feng,  Qinghui Ge,  A. Ghysels,  
 J. Gomes,  J. Gonthier,  A. Gunina,  M. W. D. Hanson-Heine,  
 P. H. P. Harbach,  A. W. Hauser,  J. E. Herr,  E. G. Hohenstein,  
 Z. C. Holden,  Kerwin Hui,  T.-C. Jagau,  Hyunjun Ji,  B. Kaduk,  
 K. Khistyaev,  Jaehoon Kim,  P. Klunzinger,  K. Koh,  D. Kosenkov,  
 T. Kowalczyk,  C. M. Krauter,  A. Kunitsa,  Ka Un Lao,  A. Laurent,  
 K. V. Lawler,  Joonho Lee,  D. Lefrancois,  S. Lehtola,  D. S. Levine,  
 Yi-Pei Li,  You-Sheng Lin,  Fenglai Liu,  E. Livshits,  A. Luenser,  
 P. Manohar,  E. Mansoor,  S. F. Manzer,  Shan-Ping Mao,  Yuezhi Mao,  
 N. Mardirossian,  A. V. Marenich,  L. A. Martinez-Martinez,  S. A. Maurer,  
 N. J. Mayhall,  S. C. McKenzie,  J.-M. Mewes,  A. F. Morrison,  K. Nanda,  
 T. S. Nguyen-Beck,  R. Olivares-Amaya,  J. A. Parkhill,  T. M. Perrine,  
 F. Plasser,  S. Prager,  A. Prociuk,  D. R. Rehn,  F. Rob,  M. Schneider,  
 N. Sergueev,  S. M. Sharada,  S. Sharma,  D. W. Small,  T. Stauch,  
 T. Stein,  Yu-Chuan Su,  A. J. W. Thom,  T. Tsuchimochi,  L. Vogt,  
 O. Vydrov,  M. A. Watson,  J. Wenzel,  M. de Wergifosse,  T. A. Wesolowski,  
 A. White,  J. Witte,  A. Yamada,  Jun Yang,  K. Yao,  S. Yeganeh,  
 S. R. Yost,  Zhi-Qiang You,  A. Zech,  Igor Ying Zhang,  Xing Zhang,  
 Yan Zhao,  Ying Zhu,  B. R. Brooks,  G. K. L. Chan,  C. J. Cramer,  
 M. S. Gordon,  W. J. Hehre,  A. Klamt,  M. W. Schmidt,  C. D. Sherrill,  
 D. G. Truhlar,  A. Aspuru-Guzik,  R. Baer,  A. T. Bell,  N. A. Besley,  
 Jeng-Da Chai,  A. Dreuw,  B. D. Dunietz,  T. R. Furlani,  Chao-Ping Hsu,  
 Yousung Jung,  Jing Kong,  D. S. Lambrecht,  WanZhen Liang,  C. Ochsenfeld,  
 V. A. Rassolov,  L. V. Slipchenko,  J. E. Subotnik,  T. Van Voorhis,  
 J. M. Herbert,  A. I. Krylov,  P. M. W. Gill,  M. Head-Gordon

 Contributors to earlier versions of Q-Chem not listed above: 
 R. D. Adamson,  B. Austin,  J. Baker,  G. J. O. Beran,  K. Brandhorst,  
 S. T. Brown,  E. F. C. Byrd,  A. K. Chakraborty,  C.-L. Cheng,  
 Siu Hung Chien,  D. M. Chipman,  D. L. Crittenden,  H. Dachsel,  
 R. A. DiStasio Jr.,  R. J. Doerksen,  A. D. Dutoi,  L. Fusti-Molnar,  
 W. A. Goddard III,  A. Golubeva-Zadorozhnaya,  S. R. Gwaltney,  G. Hawkins,  
 A. Heyden,  S. Hirata,  G. Kedziora,  F. J. Keil,  C. Kelley,  Jihan Kim,  
 R. A. King,  R. Z. Khaliullin,  P. P. Korambath,  W. Kurlancheek,  
 A. M. Lee,  M. S. Lee,  S. V. Levchenko,  Ching Yeh Lin,  D. Liotard,  
 R. C. Lochan,  I. Lotan,  P. E. Maslen,  N. Nair,  D. P. O'Neill,  
 D. Neuhauser,  E. Neuscamman,  C. M. Oana,  R. Olson,  B. Peters,  
 R. Peverati,  P. A. Pieniazek,  Y. M. Rhee,  J. Ritchie,  M. A. Rohrdanz,  
 E. Rosta,  N. J. Russ,  H. F. Schaefer III,  N. E. Schultz,  N. Shenvi,  
 A. C. Simmonett,  A. Sodt,  D. Stuck,  K. S. Thanthiriwatte,  V. Vanovschi,  
 Tao Wang,  A. Warshel,  C. F. Williams,  Q. Wu,  X. Xu,  W. Zhang

 Please cite Q-Chem as follows:
 Y. Shao et al., Mol. Phys. 113, 184-215 (2015)
 DOI: 10.1080/00268976.2014.952696

 Q-Chem 5.0.1 for Intel X86 EM64T Linux

 Parts of Q-Chem use Armadillo 5.200.1 (Boston Tea Smuggler).
 http://arma.sourceforge.net/

 Q-Chem begins on Tue Jan 16 03:27:52 2018  

Host: vega02.cac.cornell.edu
0

     Scratch files written to /scratch/jj585/SOT1001/1022c.save//
 Parallel job on  1  processors

Checking the input file for inconsistencies... 	...done.

--------------------------------------------------------------
User input:
--------------------------------------------------------------
$molecule
0  1
O -3.94934 -3.66094 2.70899
C -3.26408 -4.56952 2.26188
C -3.36658 -6.02376 2.66595
C -4.57193 -6.42971 3.52977
C -5.63372 -5.37401 3.74466
O -6.31118 -5.15334 2.57943
C -7.37783 -4.20877 2.71839
C -7.8571 -3.75128 1.34466
O -6.92834 -2.80509 0.79238
C -7.03954 -1.53732 1.26093
C -5.95302 -0.62281 0.7473
C -6.32174 0.86764 0.71781
C -7.54688 1.26123 1.51833
O -8.55528 0.58283 1.65044
O -2.25147 -4.29458 1.4008
O -7.61414 2.56118 1.91745
O -7.5031 -1.35801 2.38059
C -8.6826 3.12068 2.5871
C -4.67443 -0.56146 1.60234
C -3.49876 -0.07606 0.74567
C -3.84541 1.37982 0.57856
C -5.09508 1.45483 1.45126
O -4.8714 0.51929 2.47321
H -5.67998 -0.98466 -0.2706
H -6.43707 1.29503 -0.30229
H -4.43792 -1.51587 2.08208
H -2.58105 -0.14136 1.3715
H -3.34059 -0.61272 -0.21233
H -3.02527 1.99156 1.01706
H -4.04958 1.7065 -0.46425
H -5.23068 2.50613 1.78492
O -5.95511 -4.94143 4.84533
C -1.98856 -3.06055 0.86356
C -3.58588 -6.9673 1.45969
C -3.09747 -8.37346 1.80784
C -4.1715 -8.81389 2.78252
C -5.11991 -7.61225 2.71002
O -4.97883 -7.15132 1.38793
H -2.39499 -6.27985 3.14584
H -4.2348 -6.74142 4.5438
H -1.78159 -2.33096 1.6736
H -3.09325 -6.61529 0.52725
H -3.18726 -8.98804 0.88331
H -2.05502 -8.4366 2.18744
H -4.66335 -9.72527 2.37568
H -3.82273 -9.00117 3.82117
H -6.14724 -7.8995 3.02505
H -2.85375 -2.74665 0.24849
H -1.09641 -3.1312 0.20848
H -8.46482 4.18907 2.79097
H -8.84312 2.5973 3.55393
H -9.60173 3.05503 1.96657
H -7.95333 -4.63336 0.67644
H -8.86842 -3.28796 1.41716
H -7.10662 -3.36167 3.37816
H -8.22068 -4.74389 3.2093
$end

$opt
CONSTRAINT
tors           1           2           3           4     +10.580
tors           3           4           5           6     +70.242
tors           4           5           6           7    +177.235
tors           5           6           7           8    +165.941
tors           6           7           8           9     -76.776
tors           7           8           9          10     -79.716
tors           8           9          10          11    +174.326
tors           9          10          11          12    +154.873
tors          11          12          13          14     -35.707
ENDCONSTRAINT
$end

$rem
JOBTYPE                   OPT
METHOD                    B3LYP
DFT_D                     d3_op
BASIS                     STO-3G
GEOM_OPT_MAX_CYCLES       100
GEOM_OPT_TOL_GRADIENT     300
GEOM_OPT_TOL_DISPLACEMENT 1200
GEOM_OPT_TOL_ENERGY       100
SYMMETRY                  False
THRESH                    12
SCF_CONVERGENCE           8
MAX_SUB_FILE_NUM          128
MEM_STATIC                400
MEM_TOTAL                 4000
$end
--------------------------------------------------------------
 Adding empirical dispersion correction 
 ----------------------------------------------------------------
 Doing -D3(op) with
 s6 =   1.00000
 s8 =   0.78311
 a1 =   0.30000
 a2 =   4.25000
 n  =  10.00000
 -D3 energy without 3body term =     -0.0700091521 hartrees
 ----------------------------------------------------------------
             Standard Nuclear Orientation (Angstroms)
    I     Atom           X                Y                Z
 ----------------------------------------------------------------
    1      O      -1.2924261880    -0.8804031445     0.9269636646
    2      C      -2.3147555378    -1.4112014319     0.5169610858
    3      C      -3.7051914010    -0.8226682900     0.6113519960
    4      C      -3.8176526507     0.6482614839     1.0444421538
    5      C      -2.5205993387     1.4174877920     1.1628558315
    6      O      -1.9940763185     1.6332653022    -0.0787648146
    7      C      -0.7935803761     2.4126531206    -0.0536907292
    8      C      -0.0804867581     2.3229866622    -1.3989001419
    9      O       0.5963910551     1.0611684090    -1.5108598400
   10      C       1.7868882596     0.9788948345    -0.8665828962
   11      C       2.3829210559    -0.4081211382    -0.9066031977
   12      C       3.9108202317    -0.4605244101    -0.7615400851
   13      C       4.5697348684     0.8044992440    -0.2494267831
   14      O       4.2124601480     1.9445906681    -0.5084566870
   15      O      -2.2696282807    -2.6706371527     0.0127637257
   16      O       5.7845952636     0.6527499796     0.3462048695
   17      O       1.9841422747     1.6950827088     0.1075034694
   18      C       6.5674052669     1.6919698026     0.8047992460
   19      C       1.9760883212    -1.3416574783     0.2477999554
   20      C       2.1721142122    -2.8035509844    -0.1718878150
   21      C       3.6742547258    -2.9086996668    -0.1578813589
   22      C       4.0308030606    -1.5177474794     0.3588702222
   23      O       2.9746569946    -1.1763219237     1.2177262717
   24      H       2.0589316618    -0.8718950215    -1.8665778493
   25      H       4.4520259887    -0.7705992036    -1.6821470490
   26      H       0.9519226303    -1.1700417557     0.5922104334
   27      H       1.7750882135    -3.4419135526     0.6484672977
   28      H       1.7103706434    -3.0989658940    -1.1364128859
   29      H       3.9677095921    -3.6873474114     0.5815303184
   30      H       4.1485093321    -3.1181483384    -1.1412794114
   31      H       5.0363696516    -1.5625994762     0.8297971538
   32      O      -2.1232627136     1.9324003704     2.2015473547
   33      C      -1.1228259444    -3.3900559456    -0.2060044817
   34      C      -4.4164027997    -0.7415143190    -0.7601492940
   35      C      -5.9314397982    -0.7249730411    -0.5566106602
   36      C      -6.1266926310     0.6674569876     0.0095475109
   37      C      -4.6963189104     1.2087671131    -0.0888945297
   38      O      -4.1696293068     0.5638199187    -1.2233208945
   39      H      -4.2849567810    -1.5054300759     1.2728443060
   40      H      -4.3143967661     0.7230768438     2.0377822505
   41      H      -0.5718536470    -3.5240186754     0.7478227904
   42      H      -4.1363283747    -1.5644514852    -1.4532383559
   43      H      -6.3967211736    -0.7625505202    -1.5678612307
   44      H      -6.3391314771    -1.5524468637     0.0629532106
   45      H      -6.8054790048     1.2308721346    -0.6685831132
   46      H      -6.5111840040     0.7070588808     1.0517117052
   47      H      -4.6946600588     2.3208669277    -0.1087601503
   48      H      -0.5064281376    -2.8604743181    -0.9576660376
   49      H      -1.3904308332    -4.3883100407    -0.6084088013
   50      H       7.4969271509     1.2791027867     1.2474934878
   51      H       6.0223934715     2.2640850677     1.5858881078
   52      H       6.8399827691     2.3668161716    -0.0345166920
   53      H      -0.8232536974     2.4369240417    -2.2169214466
   54      H       0.6531530755     3.1550164317    -1.5093033670
   55      H      -0.1352488895     2.1443972191     0.7954665896
   56      H      -1.0995979003     3.4716779061     0.0965156078
 ----------------------------------------------------------------
 Molecular Point Group                 C1    NOp =  1
 Largest Abelian Subgroup              C1    NOp =  1
 Nuclear Repulsion Energy =  3284.7825353711 hartrees
 There are      113 alpha and      113 beta electrons
 Requested basis set is STO-3G
 There are 86 shells and 176 basis functions

 Total QAlloc Memory Limit   4000 MB
 Mega-Array Size       392 MB
 MEM_STATIC part       400 MB
 A cutoff of  1.0D-12 yielded   2340 shell pairs
 There are     11166 function pairs
 
 -------------------------------------------------------
 OpenMP Integral Computing Module                       
 Release: version 1.0, May 2013, Q-Chem Inc. Pittsburgh 
 -------------------------------------------------------
 Integral Job Info:
 Integral job number is                      11
 Integral operator is                         1
 short-range coefficients                     0
 long-range coefficients              100000000
 Omega coefficients                           0
 if combine SR and LR in K                    0
 Integral screening is                        0
 Integral computing path is                   2
 max size of driver memory is            800000
 size of driver memory is                 45569
 size of scratch memory is              1046100
 max col of scratch BK array                289
 max len of scratch array in speh3           22
 max len of scratch index in speh4            8
 max int batch size is                      520
 min int batch size is                       52
 fixed nKL is                                52
 max L of basis functions is                  1
 order of int derivative is                   0
 number of shells is                         86
 number of basis is                         176
 number of cartesian basis is               176
 number of contracted shell pairs          2340
 number of primitive shell pairs          11808
 maxK2 (contraction) of shell pair            9
 max number of K2 of shell pair               1
 max number of CS2 of shell pair            350
 max number of PS2 of shell pair           1278
 mem total for path MDJ                   53354
 -------------------------------------------------------
 Smallest overlap matrix eigenvalue = 1.92E-01

 Scale SEOQF with 1.000000e-02/1.000000e-01/1.000000e-01

 Standard Electronic Orientation quadrupole field applied
 Nucleus-field energy     =     0.0000000397 hartrees
 Guess from superposition of atomic densities
 Warning:  Energy on first SCF cycle will be non-variational
 A restricted hybrid HF-DFT SCF calculation will be
 performed using Pulay DIIS extrapolation
 Exchange:     0.2000 Hartree-Fock + 0.0800 Slater + 0.7200 B88
 Correlation:  0.1900 VWN1RPA + 0.8100 LYP
 Using SG-1 standard quadrature grid
 Dispersion:   Grimme D3
 SCF converges when DIIS error is below 1.0E-08
 using 48 threads for integral computing
 -------------------------------------------------------
 OpenMP Integral computing Module                
 Release: version 1.0, May 2013, Q-Chem Inc. Pittsburgh 
 -------------------------------------------------------
 -------------------------------------------------------
 OpenMP BLAS3 based DFT computing Module                
 Release: version 1.0, May 2013, Q-Chem Inc. Pittsburgh 
 -------------------------------------------------------
 ---------------------------------------
  Cycle       Energy         DIIS Error
 ---------------------------------------
    1   -1509.5159209346      8.32E-02
    2   -1509.5815498996      1.05E-02
    3   -1507.4224996885      2.60E-02
    4   -1510.0704063358      3.80E-03
    5   -1510.1254031735      1.43E-03
    6   -1510.1333106974      5.23E-04
    7   -1510.1344307383      1.54E-04
    8   -1510.1345306871      3.28E-05
    9   -1510.1345352744      7.41E-06
   10   -1510.1345354790      3.38E-06
   11   -1510.1345355247      1.16E-06
   12   -1510.1345355307      1.96E-07
   13   -1510.1345355309      6.92E-08
   14   -1510.1345355309      3.82E-08
   15   -1510.1345355309      9.73E-09 Convergence criterion met
 ---------------------------------------
 SCF time:  CPU 111.19 s  wall 2.37 s
 SCF   energy in the final basis set = -1510.13453553
 Total energy in the final basis set = -1510.13453553
 
 --------------------------------------------------------------
 
                    Orbital Energies (a.u.)
 --------------------------------------------------------------
 
 Alpha MOs
 -- Occupied --
-18.938 -18.930 -18.929 -18.919 -18.899 -18.895 -18.868 -18.851
-18.847 -18.846 -10.119 -10.100 -10.098 -10.096 -10.088 -10.079
-10.074 -10.068 -10.067 -10.066 -10.060 -10.059 -10.040 -10.037
-10.032 -10.031 -10.016 -10.015 -10.013 -10.011  -1.052  -1.040
 -1.033  -1.029  -1.021  -1.019  -0.957  -0.943  -0.938  -0.925
 -0.781  -0.778  -0.744  -0.740  -0.734  -0.723  -0.709  -0.687
 -0.672  -0.625  -0.605  -0.583  -0.554  -0.547  -0.538  -0.533
 -0.527  -0.519  -0.503  -0.488  -0.484  -0.472  -0.456  -0.456
 -0.448  -0.446  -0.435  -0.426  -0.423  -0.421  -0.419  -0.416
 -0.403  -0.397  -0.388  -0.385  -0.378  -0.361  -0.357  -0.351
 -0.347  -0.343  -0.340  -0.337  -0.334  -0.328  -0.316  -0.315
 -0.310  -0.307  -0.301  -0.298  -0.296  -0.289  -0.283  -0.279
 -0.269  -0.240  -0.235  -0.235  -0.232  -0.228  -0.215  -0.180
 -0.172  -0.165  -0.159  -0.154  -0.149  -0.148  -0.139  -0.137
 -0.110
 -- Virtual --
  0.104   0.111   0.125   0.126   0.254   0.257   0.265   0.271
  0.277   0.300   0.329   0.338   0.342   0.344   0.362   0.370
  0.380   0.384   0.386   0.387   0.392   0.396   0.398   0.403
  0.405   0.407   0.410   0.414   0.418   0.419   0.424   0.427
  0.433   0.438   0.439   0.445   0.451   0.458   0.462   0.468
  0.471   0.472   0.477   0.481   0.485   0.487   0.492   0.498
  0.500   0.510   0.513   0.522   0.525   0.529   0.559   0.562
  0.573   0.581   0.587   0.686   0.690   0.702   0.706
 --------------------------------------------------------------
 
          Ground-State Mulliken Net Atomic Charges

     Atom                 Charge (a.u.)
  ----------------------------------------
      1 O                    -0.232222
      2 C                     0.245720
      3 C                    -0.081439
      4 C                    -0.082981
      5 C                     0.237956
      6 O                    -0.188911
      7 C                    -0.040340
      8 C                    -0.031033
      9 O                    -0.193998
     10 C                     0.230902
     11 C                    -0.080402
     12 C                    -0.080084
     13 C                     0.240004
     14 O                    -0.228531
     15 O                    -0.214774
     16 O                    -0.217408
     17 O                    -0.221724
     18 C                    -0.096953
     19 C                     0.030008
     20 C                    -0.141675
     21 C                    -0.145107
     22 C                     0.039116
     23 O                    -0.209350
     24 H                     0.080305
     25 H                     0.086765
     26 H                     0.103087
     27 H                     0.073027
     28 H                     0.068635
     29 H                     0.072911
     30 H                     0.069683
     31 H                     0.089384
     32 O                    -0.231519
     33 C                    -0.097497
     34 C                     0.039840
     35 C                    -0.141862
     36 C                    -0.143977
     37 C                     0.041185
     38 O                    -0.207451
     39 H                     0.088485
     40 H                     0.085427
     41 H                     0.088660
     42 H                     0.085967
     43 H                     0.074325
     44 H                     0.071835
     45 H                     0.075244
     46 H                     0.072516
     47 H                     0.083502
     48 H                     0.088970
     49 H                     0.094885
     50 H                     0.091646
     51 H                     0.089309
     52 H                     0.084484
     53 H                     0.097907
     54 H                     0.094680
     55 H                     0.112649
     56 H                     0.080220
  ----------------------------------------
  Sum of atomic charges =    -0.000000

 -----------------------------------------------------------------
                    Cartesian Multipole Moments
 -----------------------------------------------------------------
    Charge (ESU x 10^10)
                -0.0000
    Dipole Moment (Debye)
         X      -0.9645      Y      -2.8491      Z      -2.1749
       Tot       3.7119
    Quadrupole Moments (Debye-Ang)
        XX    -138.2246     XY      -1.5641     YY    -151.5400
        XZ      -3.8849     YZ      -2.0257     ZZ    -164.9544
    Octopole Moments (Debye-Ang^2)
       XXX      44.3957    XXY      13.8303    XYY      -1.3952
       YYY       9.1958    XXZ      23.1662    XYZ      14.1667
       YYZ     -10.0586    XZZ      19.0819    YZZ      -2.9397
       ZZZ      -8.1651
    Hexadecapole Moments (Debye-Ang^3)
      XXXX  -11797.3240   XXXY     196.2574   XXYY   -2617.8269
      XYYY      12.7523   YYYY   -2905.9025   XXXZ      50.9446
      XXYZ      45.6570   XYYZ      36.9050   YYYZ     -37.8469
      XXZZ   -2256.1621   XYZZ      57.7821   YYZZ    -641.2081
      XZZZ      17.1053   YZZZ     -26.8495   ZZZZ    -872.3055
 -----------------------------------------------------------------
 Calculating analytic gradient of the SCF energy
 Gradient of SCF Energy
            1           2           3           4           5           6
    1  -0.0583332  -0.0213484   0.0265122   0.0194067   0.0112236   0.0030475
    2  -0.0411768  -0.0076470   0.0323161   0.0115260   0.0036845   0.0217983
    3  -0.0229938  -0.0083973  -0.0104381  -0.0433721  -0.0103759   0.0539878
            7           8           9          10          11          12
    1  -0.0006644  -0.0098921   0.0433514   0.0051831  -0.0009951  -0.0319544
    2  -0.0405566  -0.0210736   0.0372579   0.0185798   0.0173264   0.0237445
    3  -0.0262144   0.0079179   0.0806635  -0.0507350   0.0735569   0.0121416
           13          14          15          16          17          18
    1  -0.0043979   0.0241605   0.1215656  -0.0220738  -0.0216772  -0.0107945
    2  -0.0384022  -0.0637136   0.0247580   0.1257313  -0.0587313  -0.0549354
    3   0.0166116   0.0190820   0.0224632  -0.0122799  -0.0484615  -0.0099608
           19          20          21          22          23          24
    1   0.0670439   0.0365698  -0.0308855  -0.0771352   0.0018777  -0.0059729
    2  -0.0006132   0.0367791   0.0393267   0.0197421  -0.0239598  -0.0015005
    3   0.0123186   0.0114550   0.0120956   0.0043637  -0.0814599  -0.0045236
           25          26          27          28          29          30
    1   0.0064630   0.0104762   0.0036560  -0.0002605  -0.0059381   0.0046937
    2  -0.0012750  -0.0078867  -0.0035264  -0.0039776  -0.0064230   0.0014126
    3  -0.0022072  -0.0125028   0.0112632  -0.0073151   0.0100468  -0.0078111
           31          32          33          34          35          36
    1   0.0056637  -0.0244671  -0.0578071   0.0011806   0.0369030   0.0410582
    2  -0.0132893  -0.0196983   0.0128239   0.0690162   0.0349240  -0.0207935
    3  -0.0057577  -0.0443601   0.0014065   0.0155030   0.0123194  -0.0171391
           37          38          39          40          41          42
    1   0.0148911  -0.0370345  -0.0020503  -0.0029127  -0.0108138  -0.0086488
    2  -0.0593270  -0.0286201  -0.0065730   0.0002448   0.0022257  -0.0094981
    3  -0.0278373   0.0728680   0.0007273   0.0065481   0.0025227   0.0024003
           43          44          45          46          47          48
    1  -0.0007821  -0.0043948  -0.0044361   0.0001442  -0.0077748  -0.0121485
    2   0.0062048  -0.0056678  -0.0016941   0.0012216   0.0041168   0.0038162
    3  -0.0096005   0.0042966  -0.0118565   0.0087203   0.0097962  -0.0003699
           49          50          51          52          53          54
    1   0.0029122   0.0017176  -0.0042198  -0.0026428  -0.0012527   0.0024629
    2  -0.0007879   0.0031046  -0.0081409  -0.0081642   0.0085533  -0.0011270
    3  -0.0007138   0.0010196  -0.0010081  -0.0028868   0.0016290  -0.0053836
           55          56
    1  -0.0041731  -0.0042818
    2   0.0029814  -0.0044366
    3   0.0008654  -0.0026277
 Max gradient component =       1.257E-01
 RMS gradient           =       2.896E-02
 Gradient time:  CPU 32.04 s  wall 0.68 s
 Geometry Optimization Parameters
   NAtoms,    NIC,     NZ,  NCons,   NDum,   NFix, NCnnct, MaxDiis
       56     458       0       9       0       0       0       0


** CONSTRAINED OPTIMIZATION IN DELOCALIZED INTERNAL COORDINATES **
   Searching for a Minimum

   Optimization Cycle:   1

                       Coordinates (Angstroms)
     ATOM                X               Y               Z
      1  O        -1.2924261880   -0.8804031445    0.9269636646
      2  C        -2.3147555378   -1.4112014319    0.5169610858
      3  C        -3.7051914010   -0.8226682900    0.6113519960
      4  C        -3.8176526507    0.6482614839    1.0444421538
      5  C        -2.5205993387    1.4174877920    1.1628558315
      6  O        -1.9940763185    1.6332653022   -0.0787648146
      7  C        -0.7935803761    2.4126531206   -0.0536907292
      8  C        -0.0804867581    2.3229866622   -1.3989001419
      9  O         0.5963910551    1.0611684090   -1.5108598400
     10  C         1.7868882596    0.9788948345   -0.8665828962
     11  C         2.3829210559   -0.4081211382   -0.9066031977
     12  C         3.9108202317   -0.4605244101   -0.7615400851
     13  C         4.5697348684    0.8044992440   -0.2494267831
     14  O         4.2124601480    1.9445906681   -0.5084566870
     15  O        -2.2696282807   -2.6706371527    0.0127637257
     16  O         5.7845952636    0.6527499796    0.3462048695
     17  O         1.9841422747    1.6950827088    0.1075034694
     18  C         6.5674052669    1.6919698026    0.8047992460
     19  C         1.9760883212   -1.3416574783    0.2477999554
     20  C         2.1721142122   -2.8035509844   -0.1718878150
     21  C         3.6742547258   -2.9086996668   -0.1578813589
     22  C         4.0308030606   -1.5177474794    0.3588702222
     23  O         2.9746569946   -1.1763219237    1.2177262717
     24  H         2.0589316618   -0.8718950215   -1.8665778493
     25  H         4.4520259887   -0.7705992036   -1.6821470490
     26  H         0.9519226303   -1.1700417557    0.5922104334
     27  H         1.7750882135   -3.4419135526    0.6484672977
     28  H         1.7103706434   -3.0989658940   -1.1364128859
     29  H         3.9677095921   -3.6873474114    0.5815303184
     30  H         4.1485093321   -3.1181483384   -1.1412794114
     31  H         5.0363696516   -1.5625994762    0.8297971538
     32  O        -2.1232627136    1.9324003704    2.2015473547
     33  C        -1.1228259444   -3.3900559456   -0.2060044817
     34  C        -4.4164027997   -0.7415143190   -0.7601492940
     35  C        -5.9314397982   -0.7249730411   -0.5566106602
     36  C        -6.1266926310    0.6674569876    0.0095475109
     37  C        -4.6963189104    1.2087671131   -0.0888945297
     38  O        -4.1696293068    0.5638199187   -1.2233208945
     39  H        -4.2849567810   -1.5054300759    1.2728443060
     40  H        -4.3143967661    0.7230768438    2.0377822505
     41  H        -0.5718536470   -3.5240186754    0.7478227904
     42  H        -4.1363283747   -1.5644514852   -1.4532383559
     43  H        -6.3967211736   -0.7625505202   -1.5678612307
     44  H        -6.3391314771   -1.5524468637    0.0629532106
     45  H        -6.8054790048    1.2308721346   -0.6685831132
     46  H        -6.5111840040    0.7070588808    1.0517117052
     47  H        -4.6946600588    2.3208669277   -0.1087601503
     48  H        -0.5064281376   -2.8604743181   -0.9576660376
     49  H        -1.3904308332   -4.3883100407   -0.6084088013
     50  H         7.4969271509    1.2791027867    1.2474934878
     51  H         6.0223934715    2.2640850677    1.5858881078
     52  H         6.8399827691    2.3668161716   -0.0345166920
     53  H        -0.8232536974    2.4369240417   -2.2169214466
     54  H         0.6531530755    3.1550164317   -1.5093033670
     55  H        -0.1352488895    2.1443972191    0.7954665896
     56  H        -1.0995979003    3.4716779061    0.0965156078
   Point Group: c1    Number of degrees of freedom:   162


   Energy is  -1510.134535531

              Constraints and their Current Values
                                        Value     Constraint
   Dihedral:        1   2   3   4       10.580       10.580
   Dihedral:        3   4   5   6       70.241       70.242
   Dihedral:        4   5   6   7      177.235      177.235
   Dihedral:        5   6   7   8      165.941      165.941
   Dihedral:        6   7   8   9      -76.776      -76.776
   Dihedral:        7   8   9  10      -79.717      -79.716
   Dihedral:        8   9  10  11      174.326      174.326
   Dihedral:        9  10  11  12      154.873      154.873
   Dihedral:       11  12  13  14      -35.706      -35.707

 Attempting to Generate Delocalized Internal Coordinates

   Using Lagrange Multiplier Algorithm


171 Hessian modes will be used to form the next step
  Hessian Eigenvalues:
    -0.977753   -0.977753   -0.977753   -0.977753   -0.977753   -0.977753
    -0.977753   -0.977753   -0.977753    0.045000    0.045000    0.045000
     0.045000    0.045102    0.045472    0.045572    0.045577    0.045617
     0.048866    0.048911    0.049865    0.054295    0.059942    0.060052
     0.062423    0.062837    0.066972    0.067073    0.067500    0.067593
     0.069754    0.070762    0.071954    0.073832    0.073900    0.075608
     0.075732    0.076869    0.077083    0.082520    0.082587    0.083413
     0.083979    0.084256    0.084878    0.085402    0.085465    0.085799
     0.085910    0.086635    0.087409    0.088427    0.088665    0.089025
     0.089122    0.089853    0.089888    0.093756    0.094129    0.096571
     0.096629    0.111550    0.111613    0.114641    0.115217    0.115905
     0.116682    0.116785    0.117303    0.118152    0.118174    0.119575
     0.123657    0.124275    0.130189    0.130293    0.131794    0.139952
     0.140741    0.160000    0.160000    0.160000    0.160000    0.160000
     0.160000    0.171073    0.171969    0.173076    0.173266    0.218951
     0.220141    0.220214    0.239972    0.240222    0.246009    0.247533
     0.249559    0.250000    0.250000    0.250000    0.250000    0.250000
     0.250000    0.250000    0.250000    0.258181    0.259471    0.267082
     0.267249    0.278217    0.282586    0.283483    0.284171    0.295045
     0.297796    0.298744    0.308050    0.310698    0.310867    0.313315
     0.321012    0.321517    0.322021    0.322331    0.322671    0.322700
     0.323150    0.323183    0.323327    0.323600    0.323881    0.324130
     0.324216    0.324381    0.324646    0.324724    0.324881    0.325017
     0.325171    0.326381    0.326628    0.326789    0.326979    0.328723
     0.329222    0.343467    0.368668    0.372905    0.383418    0.389806
     0.401009    0.407709    0.491899    0.507196    0.517924    0.526449
     0.534845    0.537332    0.929801    0.931924    0.941950    0.942763
     1.022753    1.022753    1.022753    1.022753    1.022753    1.022753
     1.022753    1.022753    1.022753

 Minimum Search - Taking P-RFO Step
 Searching for Lamda that Maximizes Along the Constraint modes Only
 Value Taken    Lamda =   0.00116295
 Searching for Lamda that Minimizes Along All other modes
 Value Taken    Lamda =  -0.18271321
 Calculated Step too Large.  Step scaled by  0.504055
 Step Taken.  Stepsize is  0.300000

                             Maximum     Tolerance    Cnvgd?
         Gradient            0.110133       0.000300      NO
         Displacement        0.093120       0.001200      NO
         Energy change     *********       0.000001      NO


 New Cartesian Coordinates Obtained by Inverse Iteration

 Displacement from previous Coordinates is:  1.268747
 Adding empirical dispersion correction 
 ----------------------------------------------------------------
 Doing -D3(op) with
 s6 =   1.00000
 s8 =   0.78311
 a1 =   0.30000
 a2 =   4.25000
 n  =  10.00000
 -D3 energy without 3body term =     -0.0691612113 hartrees
 ----------------------------------------------------------------
             Standard Nuclear Orientation (Angstroms)
    I     Atom           X                Y                Z
 ----------------------------------------------------------------
    1      O      -1.3209034849    -0.8826909089     0.9220073789
    2      C      -2.3612457401    -1.4233629414     0.5172765224
    3      C      -3.7726880906    -0.8428406891     0.6141112433
    4      C      -3.8879070662     0.6443937231     1.0433219244
    5      C      -2.5716849601     1.4267141977     1.1593668520
    6      O      -2.0318535599     1.6432234015    -0.0987712601
    7      C      -0.8193846486     2.4335717357    -0.0513443590
    8      C      -0.0830648982     2.3475788653    -1.4019653204
    9      O       0.6116127378     1.0818363939    -1.5357115147
   10      C       1.8190650849     1.0360557446    -0.8613530927
   11      C       2.4417470060    -0.3641869258    -0.9192884781
   12      C       3.9958160441    -0.4368570447    -0.7606896563
   13      C       4.7017057834     0.8331504287    -0.2562223688
   14      O       4.3914337078     2.0033862148    -0.5207563977
   15      O      -2.3662947139    -2.6999779822     0.0063027946
   16      O       5.9163852922     0.5778985445     0.3487530385
   17      O       2.0030864708     1.7820632510     0.1160873716
   18      C       6.7306873636     1.6299642606     0.8007929267
   19      C       2.0056242991    -1.2953128564     0.2550902133
   20      C       2.1878366628    -2.7773063016    -0.1706648090
   21      C       3.7124323814    -2.9057643647    -0.1481676639
   22      C       4.0966162876    -1.5027200980     0.3791393274
   23      O       3.0210235299    -1.1350881946     1.2490034690
   24      H       2.1229441552    -0.8274247379    -1.8774194434
   25      H       4.5330921100    -0.7584845809    -1.6762361554
   26      H       0.9761801826    -1.1044207743     0.5978208245
   27      H       1.7734991618    -3.4089396948     0.6398412194
   28      H       1.7263009647    -3.0605975460    -1.1343951697
   29      H       3.9964838720    -3.6860580211     0.5855491803
   30      H       4.1841969109    -3.1209385725    -1.1263784961
   31      H       5.0977857543    -1.5507107497     0.8551083303
   32      O      -2.1620642527     1.9484344850     2.2051652203
   33      C      -1.1799843670    -3.4112311803    -0.2123306290
   34      C      -4.4970771765    -0.7812421628    -0.7732495732
   35      C      -6.0296661283    -0.7722921363    -0.5471574075
   36      C      -6.2280988328     0.6451732419     0.0174059740
   37      C      -4.7838673884     1.2037027080    -0.1050103049
   38      O      -4.2535664796     0.5432066940    -1.2607769120
   39      H      -4.3459836276    -1.5203813386     1.2816761460
   40      H      -4.3787065821     0.7241652922     2.0350025051
   41      H      -0.6130711635    -3.5422433523     0.7346638105
   42      H      -4.2091578930    -1.6033275009    -1.4612900713
   43      H      -6.5077647869    -0.8275856633    -1.5464117970
   44      H      -6.4207119125    -1.5934091415     0.0837560910
   45      H      -6.9165300733     1.2014806916    -0.6489307072
   46      H      -6.5986565266     0.6898641788     1.0598373102
   47      H      -4.7811889169     2.3134124921    -0.1380455322
   48      H      -0.5550368228    -2.8888112405    -0.9655397589
   49      H      -1.4409299786    -4.4131489472    -0.6095832369
   50      H       7.6447081129     1.1942651122     1.2528627780
   51      H       6.2074928919     2.2372596851     1.5723000639
   52      H       7.0315300755     2.2940001232    -0.0398828894
   53      H      -0.8152599866     2.4598338265    -2.2293348659
   54      H       0.6452024396     3.1861199880    -1.4892000791
   55      H      -0.1656333671     2.1608141479     0.8016319943
   56      H      -1.1244856370     3.4944659913     0.1008034572
 ----------------------------------------------------------------
 Molecular Point Group                 C1    NOp =  1
 Largest Abelian Subgroup              C1    NOp =  1
 Nuclear Repulsion Energy =  3238.6717206508 hartrees
 There are      113 alpha and      113 beta electrons
 Applying Cartesian multipole field
    Component          Value
    ---------          -----
     (2,0,0)        1.00000E-12
     (0,2,0)        2.00000E-11
     (0,0,2)       -3.00000E-11
 Nucleus-field energy     =     0.0000000402 hartrees
 Requested basis set is STO-3G
 There are 86 shells and 176 basis functions
 A cutoff of  1.0D-12 yielded   2305 shell pairs
 There are     11032 function pairs
 Smallest overlap matrix eigenvalue = 2.01E-01
 Guess MOs from SCF MO coefficient file
 Reading MOs from coefficient file
 Reading MOs from coefficient file
 A restricted hybrid HF-DFT SCF calculation will be
 performed using Pulay DIIS extrapolation
 Exchange:     0.2000 Hartree-Fock + 0.0800 Slater + 0.7200 B88
 Correlation:  0.1900 VWN1RPA + 0.8100 LYP
 Using SG-1 standard quadrature grid
 Dispersion:   Grimme D3
 SCF converges when DIIS error is below 1.0E-08
 Geometry optimization detected.  Setting ReadMinima to 0
 Setting SaveMinima to 0
 using 48 threads for integral computing
 -------------------------------------------------------
 OpenMP Integral computing Module                
 Release: version 1.0, May 2013, Q-Chem Inc. Pittsburgh 
 -------------------------------------------------------
 -------------------------------------------------------
 OpenMP BLAS3 based DFT computing Module                
 Release: version 1.0, May 2013, Q-Chem Inc. Pittsburgh 
 -------------------------------------------------------
 ---------------------------------------
  Cycle       Energy         DIIS Error
 ---------------------------------------
    1   -1510.0317170355      3.20E-03
    2   -1510.2042228933      8.69E-04
    3   -1510.1993684829      1.39E-03
    4   -1510.2072120081      3.40E-04
    5   -1510.2077361008      6.07E-05
    6   -1510.2077519317      2.07E-05
    7   -1510.2077532474      1.24E-05
    8   -1510.2077539244      2.27E-06
    9   -1510.2077539504      4.99E-07
   10   -1510.2077539513      2.60E-07
   11   -1510.2077539516      1.26E-07
   12   -1510.2077539516      2.48E-08
   13   -1510.2077539517      7.81E-09 Convergence criterion met
 ---------------------------------------
 SCF time:  CPU 92.21 s  wall 1.93 s
 SCF   energy in the final basis set = -1510.20775395
 Total energy in the final basis set = -1510.20775395
 
 --------------------------------------------------------------
 
                    Orbital Energies (a.u.)
 --------------------------------------------------------------
 
 Alpha MOs
 -- Occupied --
-18.941 -18.929 -18.926 -18.924 -18.897 -18.893 -18.870 -18.852
-18.851 -18.851 -10.114 -10.097 -10.094 -10.092 -10.084 -10.076
-10.071 -10.065 -10.064 -10.064 -10.058 -10.056 -10.040 -10.037
-10.033 -10.032 -10.017 -10.016 -10.014 -10.012  -1.040  -1.027
 -1.023  -1.016  -1.002  -1.000  -0.949  -0.936  -0.931  -0.922
 -0.774  -0.769  -0.736  -0.731  -0.726  -0.716  -0.702  -0.681
 -0.667  -0.620  -0.602  -0.580  -0.550  -0.543  -0.537  -0.532
 -0.524  -0.515  -0.497  -0.482  -0.478  -0.465  -0.451  -0.450
 -0.443  -0.440  -0.428  -0.421  -0.420  -0.416  -0.415  -0.411
 -0.398  -0.392  -0.383  -0.378  -0.373  -0.357  -0.354  -0.348
 -0.342  -0.340  -0.337  -0.336  -0.334  -0.327  -0.315  -0.314
 -0.308  -0.305  -0.299  -0.297  -0.294  -0.287  -0.282  -0.276
 -0.266  -0.242  -0.238  -0.235  -0.234  -0.232  -0.223  -0.181
 -0.171  -0.165  -0.160  -0.155  -0.148  -0.147  -0.141  -0.136
 -0.119
 -- Virtual --
  0.098   0.104   0.119   0.120   0.248   0.254   0.259   0.264
  0.269   0.288   0.317   0.324   0.339   0.341   0.350   0.357
  0.371   0.374   0.375   0.379   0.381   0.384   0.387   0.392
  0.394   0.401   0.402   0.404   0.410   0.413   0.417   0.421
  0.424   0.428   0.431   0.435   0.440   0.443   0.449   0.451
  0.459   0.464   0.466   0.467   0.475   0.477   0.480   0.481
  0.485   0.492   0.496   0.504   0.509   0.519   0.531   0.554
  0.560   0.562   0.569   0.660   0.667   0.676   0.682
 --------------------------------------------------------------
 
          Ground-State Mulliken Net Atomic Charges

     Atom                 Charge (a.u.)
  ----------------------------------------
      1 O                    -0.223991
      2 C                     0.233587
      3 C                    -0.080431
      4 C                    -0.081697
      5 C                     0.227508
      6 O                    -0.183335
      7 C                    -0.042447
      8 C                    -0.035579
      9 O                    -0.186294
     10 C                     0.218425
     11 C                    -0.078747
     12 C                    -0.078380
     13 C                     0.228392
     14 O                    -0.221078
     15 O                    -0.201924
     16 O                    -0.204600
     17 O                    -0.214982
     18 C                    -0.104902
     19 C                     0.027878
     20 C                    -0.142861
     21 C                    -0.145881
     22 C                     0.033513
     23 O                    -0.200495
     24 H                     0.081151
     25 H                     0.085964
     26 H                     0.101018
     27 H                     0.073200
     28 H                     0.069157
     29 H                     0.073686
     30 H                     0.070511
     31 H                     0.090530
     32 O                    -0.226455
     33 C                    -0.105365
     34 C                     0.035245
     35 C                    -0.142948
     36 C                    -0.144681
     37 C                     0.036327
     38 O                    -0.198867
     39 H                     0.088024
     40 H                     0.085258
     41 H                     0.088846
     42 H                     0.086142
     43 H                     0.074800
     44 H                     0.072645
     45 H                     0.075734
     46 H                     0.073147
     47 H                     0.083434
     48 H                     0.088774
     49 H                     0.094572
     50 H                     0.091486
     51 H                     0.089673
     52 H                     0.085242
     53 H                     0.096809
     54 H                     0.094055
     55 H                     0.110831
     56 H                     0.080375
  ----------------------------------------
  Sum of atomic charges =    -0.000000

 -----------------------------------------------------------------
                    Cartesian Multipole Moments
 -----------------------------------------------------------------
    Charge (ESU x 10^10)
                 0.0000
    Dipole Moment (Debye)
         X      -0.8832      Y      -2.9451      Z      -2.0680
       Tot       3.7054
    Quadrupole Moments (Debye-Ang)
        XX    -136.9973     XY      -1.7940     YY    -151.6610
        XZ      -3.9705     YZ      -1.8028     ZZ    -165.1322
    Octopole Moments (Debye-Ang^2)
       XXX      49.0295    XXY      12.1950    XYY      -3.2286
       YYY       5.4628    XXZ      25.8240    XYZ      14.4019
       YYZ     -10.0174    XZZ      19.2073    YZZ      -3.7666
       ZZZ      -6.8895
    Hexadecapole Moments (Debye-Ang^3)
      XXXX  -12182.1422   XXXY     173.5781   XXYY   -2712.2910
      XYYY     -24.3241   YYYY   -2922.4819   XXXZ      53.5303
      XXYZ      53.0541   XYYZ      37.6903   YYYZ     -31.5316
      XXZZ   -2347.9544   XYZZ      49.0153   YYZZ    -646.3841
      XZZZ      12.0007   YZZZ     -21.5738   ZZZZ    -881.2980
 -----------------------------------------------------------------
 Calculating analytic gradient of the SCF energy
 Gradient of SCF Energy
            1           2           3           4           5           6
    1  -0.0272390  -0.0287992   0.0184865   0.0114698   0.0068874   0.0017333
    2  -0.0196361  -0.0141124   0.0202986   0.0073310  -0.0017940   0.0178135
    3  -0.0081825  -0.0133002  -0.0023669  -0.0269695  -0.0124007   0.0364256
            7           8           9          10          11          12
    1   0.0022692  -0.0069921   0.0230086   0.0066502  -0.0080418  -0.0156663
    2  -0.0309841  -0.0153398   0.0264451   0.0100855   0.0092397   0.0157972
    3  -0.0178646   0.0025509   0.0577294  -0.0565617   0.0502184   0.0003165
           13          14          15          16          17          18
    1   0.0022585   0.0138151   0.0847342  -0.0111466  -0.0179054  -0.0092219
    2  -0.0420543  -0.0285516   0.0198609   0.0898975  -0.0336466  -0.0430361
    3   0.0199715   0.0071858   0.0168159  -0.0098780  -0.0153398  -0.0065956
           19          20          21          22          23          24
    1   0.0434888   0.0199222  -0.0154032  -0.0481915   0.0015647  -0.0046222
    2   0.0013574   0.0217507   0.0218608   0.0171546  -0.0146459  -0.0013554
    3   0.0110820   0.0049474   0.0059071   0.0065512  -0.0490600  -0.0025815
           25          26          27          28          29          30
    1   0.0059277   0.0044754   0.0033598   0.0001778  -0.0051848   0.0036218
    2   0.0003259  -0.0063889  -0.0013826  -0.0036488  -0.0037561   0.0010651
    3  -0.0000959  -0.0100428   0.0077427  -0.0037565   0.0065247  -0.0041581
           31          32          33          34          35          36
    1   0.0047553  -0.0144065  -0.0437067   0.0044358   0.0215368   0.0226169
    2  -0.0116355  -0.0085336   0.0074828   0.0458505   0.0176668  -0.0104444
    3  -0.0061556  -0.0226207   0.0002580   0.0059439   0.0085764  -0.0086454
           37          38          39          40          41          42
    1   0.0109491  -0.0227186  -0.0013732  -0.0010801  -0.0059375  -0.0077145
    2  -0.0360698  -0.0175322  -0.0050579   0.0000298   0.0002159  -0.0079733
    3  -0.0212800   0.0454313  -0.0004532   0.0040525   0.0024735   0.0029263
           43          44          45          46          47          48
    1   0.0003225  -0.0036962  -0.0026305   0.0003840  -0.0067438  -0.0069199
    2   0.0046261  -0.0035714  -0.0023880   0.0016954   0.0026788   0.0019900
    3  -0.0062502   0.0014799  -0.0081266   0.0051431   0.0092821  -0.0015509
           49          50          51          52          53          54
    1   0.0030049   0.0021324  -0.0026674  -0.0007662  -0.0009606   0.0021982
    2  -0.0014864   0.0027934  -0.0039405  -0.0039732   0.0074874  -0.0008534
    3  -0.0008953   0.0011758   0.0006398  -0.0024238   0.0010949  -0.0043923
           55          56
    1  -0.0025804  -0.0038707
    2   0.0033421  -0.0023500
    3   0.0012569  -0.0017549
 Max gradient component =       8.990E-02
 RMS gradient           =       1.940E-02
 Gradient time:  CPU 30.45 s  wall 0.64 s
 Geometry Optimization Parameters
   NAtoms,    NIC,     NZ,  NCons,   NDum,   NFix, NCnnct, MaxDiis
       56     458       0       9       0       0       0       0

 Cartesian Hessian Update
 Hessian Updated using BFGS Update


** CONSTRAINED OPTIMIZATION IN DELOCALIZED INTERNAL COORDINATES **
   Searching for a Minimum

   Optimization Cycle:   2

                       Coordinates (Angstroms)
     ATOM                X               Y               Z
      1  O        -1.3209034849   -0.8826909089    0.9220073789
      2  C        -2.3612457401   -1.4233629414    0.5172765224
      3  C        -3.7726880906   -0.8428406891    0.6141112433
      4  C        -3.8879070662    0.6443937231    1.0433219244
      5  C        -2.5716849601    1.4267141977    1.1593668520
      6  O        -2.0318535599    1.6432234015   -0.0987712601
      7  C        -0.8193846486    2.4335717357   -0.0513443590
      8  C        -0.0830648982    2.3475788653   -1.4019653204
      9  O         0.6116127378    1.0818363939   -1.5357115147
     10  C         1.8190650849    1.0360557446   -0.8613530927
     11  C         2.4417470060   -0.3641869258   -0.9192884781
     12  C         3.9958160441   -0.4368570447   -0.7606896563
     13  C         4.7017057834    0.8331504287   -0.2562223688
     14  O         4.3914337078    2.0033862148   -0.5207563977
     15  O        -2.3662947139   -2.6999779822    0.0063027946
     16  O         5.9163852922    0.5778985445    0.3487530385
     17  O         2.0030864708    1.7820632510    0.1160873716
     18  C         6.7306873636    1.6299642606    0.8007929267
     19  C         2.0056242991   -1.2953128564    0.2550902133
     20  C         2.1878366628   -2.7773063016   -0.1706648090
     21  C         3.7124323814   -2.9057643647   -0.1481676639
     22  C         4.0966162876   -1.5027200980    0.3791393274
     23  O         3.0210235299   -1.1350881946    1.2490034690
     24  H         2.1229441552   -0.8274247379   -1.8774194434
     25  H         4.5330921100   -0.7584845809   -1.6762361554
     26  H         0.9761801826   -1.1044207743    0.5978208245
     27  H         1.7734991618   -3.4089396948    0.6398412194
     28  H         1.7263009647   -3.0605975460   -1.1343951697
     29  H         3.9964838720   -3.6860580211    0.5855491803
     30  H         4.1841969109   -3.1209385725   -1.1263784961
     31  H         5.0977857543   -1.5507107497    0.8551083303
     32  O        -2.1620642527    1.9484344850    2.2051652203
     33  C        -1.1799843670   -3.4112311803   -0.2123306290
     34  C        -4.4970771765   -0.7812421628   -0.7732495732
     35  C        -6.0296661283   -0.7722921363   -0.5471574075
     36  C        -6.2280988328    0.6451732419    0.0174059740
     37  C        -4.7838673884    1.2037027080   -0.1050103049
     38  O        -4.2535664796    0.5432066940   -1.2607769120
     39  H        -4.3459836276   -1.5203813386    1.2816761460
     40  H        -4.3787065821    0.7241652922    2.0350025051
     41  H        -0.6130711635   -3.5422433523    0.7346638105
     42  H        -4.2091578930   -1.6033275009   -1.4612900713
     43  H        -6.5077647869   -0.8275856633   -1.5464117970
     44  H        -6.4207119125   -1.5934091415    0.0837560910
     45  H        -6.9165300733    1.2014806916   -0.6489307072
     46  H        -6.5986565266    0.6898641788    1.0598373102
     47  H        -4.7811889169    2.3134124921   -0.1380455322
     48  H        -0.5550368228   -2.8888112405   -0.9655397589
     49  H        -1.4409299786   -4.4131489472   -0.6095832369
     50  H         7.6447081129    1.1942651122    1.2528627780
     51  H         6.2074928919    2.2372596851    1.5723000639
     52  H         7.0315300755    2.2940001232   -0.0398828894
     53  H        -0.8152599866    2.4598338265   -2.2293348659
     54  H         0.6452024396    3.1861199880   -1.4892000791
     55  H        -0.1656333671    2.1608141479    0.8016319943
     56  H        -1.1244856370    3.4944659913    0.1008034572
   Point Group: c1    Number of degrees of freedom:   162


   Energy is  -1510.207753952

              Constraints and their Current Values
                                        Value     Constraint
   Dihedral:        1   2   3   4       10.610       10.580
   Dihedral:        3   4   5   6       70.262       70.242
   Dihedral:        4   5   6   7      177.258      177.235
   Dihedral:        5   6   7   8      165.970      165.941
   Dihedral:        6   7   8   9      -76.788      -76.776
   Dihedral:        7   8   9  10      -79.725      -79.716
   Dihedral:        8   9  10  11      174.307      174.326
   Dihedral:        9  10  11  12      154.961      154.873
   Dihedral:       11  12  13  14      -35.709      -35.707
 Hessian Updated using BFGS Update

   Using Lagrange Multiplier Algorithm


161 Hessian modes will be used to form the next step
  Hessian Eigenvalues:
    -0.977753   -0.977753   -0.977753   -0.977753   -0.977753   -0.977753
    -0.977753   -0.977753   -0.974466    0.044997    0.045001    0.045096
     0.045470    0.045573    0.045597    0.045694    0.048866    0.048947
     0.049356    0.054279    0.059914    0.060128    0.062436    0.062892
     0.066971    0.067094    0.067522    0.067587    0.069747    0.070770
     0.071902    0.073856    0.073903    0.075604    0.075725    0.076923
     0.077132    0.082518    0.082568    0.083431    0.083998    0.084251
     0.085067    0.085409    0.085438    0.085778    0.086193    0.086607
     0.087592    0.088284    0.088721    0.088804    0.089150    0.089852
     0.089918    0.093760    0.094195    0.096593    0.096631    0.111571
     0.111631    0.114651    0.115223    0.115905    0.116669    0.116825
     0.117198    0.117534    0.118222    0.119567    0.123645    0.124271
     0.130029    0.130275    0.131798    0.140524    0.142742    0.159598
     0.160000    0.160000    0.161931    0.169759    0.171623    0.173079
     0.173182    0.218531    0.219095    0.220615    0.229936    0.239980
     0.240265    0.246027    0.247605    0.249581    0.253569    0.258294
     0.265394    0.267156    0.267528    0.279245    0.282935    0.283735
     0.287626    0.295967    0.298286    0.300893    0.308974    0.310256
     0.312110    0.321004    0.321077    0.321613    0.322185    0.322378
     0.322689    0.322916    0.323167    0.323291    0.323573    0.323761
     0.324020    0.324138    0.324315    0.324582    0.324641    0.324755
     0.324960    0.325168    0.326166    0.326523    0.326767    0.326953
     0.328651    0.328955    0.331991    0.344085    0.368672    0.372895
     0.384819    0.400213    0.406668    0.442117    0.481209    0.502863
     0.518242    0.523815    0.532595    0.540632    0.929519    0.935266
     0.942360    0.971818    1.022753    1.022753    1.022753    1.022753
     1.022753    1.022753    1.022753    1.022753    1.049298

 Minimum Search - Taking P-RFO Step
 Searching for Lamda that Maximizes Along the Constraint modes Only
 Value Taken    Lamda =   0.00035650
 Searching for Lamda that Minimizes Along All other modes
 Value Taken    Lamda =  -0.09272557
 Calculated Step too Large.  Step scaled by  0.550015
 Step Taken.  Stepsize is  0.300000

                             Maximum     Tolerance    Cnvgd?
         Gradient            0.066953       0.000300      NO
         Displacement        0.088311       0.001200      NO
         Energy change     -0.073218       0.000001      NO


 New Cartesian Coordinates Obtained by Inverse Iteration

 Displacement from previous Coordinates is:  0.994770
 Adding empirical dispersion correction 
 ----------------------------------------------------------------
 Doing -D3(op) with
 s6 =   1.00000
 s8 =   0.78311
 a1 =   0.30000
 a2 =   4.25000
 n  =  10.00000
 -D3 energy without 3body term =     -0.0697396533 hartrees
 ----------------------------------------------------------------
             Standard Nuclear Orientation (Angstroms)
    I     Atom           X                Y                Z
 ----------------------------------------------------------------
    1      O      -1.2969202903    -0.8273501402     0.9242052113
    2      C      -2.3357311551    -1.3857273884     0.5119876370
    3      C      -3.7789423671    -0.8399486396     0.6044527097
    4      C      -3.9109762801     0.6507278826     1.0470516107
    5      C      -2.5761378557     1.4270394764     1.1738050942
    6      O      -2.0319965612     1.6441026110    -0.1018785258
    7      C      -0.8037276180     2.4323054143    -0.0240592132
    8      C      -0.0606764017     2.3435854568    -1.3834582754
    9      O       0.6276428606     1.0598949357    -1.5294977844
   10      C       1.8506206830     1.0226083162    -0.8350685381
   11      C       2.4470388877    -0.4019076045    -0.9169174688
   12      C       4.0030080403    -0.4894172251    -0.7613811519
   13      C       4.6946486805     0.8126371711    -0.2738046712
   14      O       4.3729266866     1.9832378071    -0.5610957015
   15      O      -2.3453222174    -2.6722444404    -0.0244352650
   16      O       5.9137941249     0.5301619535     0.3549094035
   17      O       2.0762811041     1.8042899680     0.1172445179
   18      C       6.6711842159     1.6711236742     0.7752493070
   19      C       1.9846116790    -1.3271700317     0.2732308432
   20      C       2.1481477182    -2.8202351009    -0.1698963231
   21      C       3.6918964435    -2.9683612467    -0.1522500002
   22      C       4.1026508566    -1.5612351304     0.3913507496
   23      O       3.0184173857    -1.1794082692     1.2803714237
   24      H       2.1168029930    -0.8615492645    -1.8692262894
   25      H       4.5336876826    -0.8192643746    -1.6758015592
   26      H       0.9590177472    -1.1111570063     0.6290989886
   27      H       1.7218712853    -3.4544782857     0.6276114214
   28      H       1.6790375231    -3.0804037187    -1.1335802750
   29      H       3.9765681393    -3.7566465340     0.5668028171
   30      H       4.1522660654    -3.1789873576    -1.1331251367
   31      H       5.1005003896    -1.5981443291     0.8713700394
   32      O      -2.1463428876     1.9375444833     2.2268867804
   33      C      -1.0726184251    -3.2946175811    -0.2142242084
   34      C      -4.5049167644    -0.7847485604    -0.7972364469
   35      C      -6.0499149556    -0.7932301743    -0.5563930920
   36      C      -6.2621504998     0.6354401164     0.0219067450
   37      C      -4.8133920974     1.2197184331    -0.1099854118
   38      O      -4.2715221093     0.5630014318    -1.2891799576
   39      H      -4.3443857594    -1.5257194277     1.2659429045
   40      H      -4.4034207099     0.7231114962     2.0354810968
   41      H      -0.5183330252    -3.3931432936     0.7437883069
   42      H      -4.1939263480    -1.5908225576    -1.4917184002
   43      H      -6.5386959935    -0.8562688230    -1.5459611994
   44      H      -6.4199324689    -1.6184488901     0.0762502418
   45      H      -6.9614073338     1.1904182303    -0.6281086882
   46      H      -6.6233608969     0.6677595337     1.0646755404
   47      H      -4.8094294795     2.3275974697    -0.1476684306
   48      H      -0.4565036912    -2.7238991992    -0.9399966984
   49      H      -1.2567686008    -4.3064155197    -0.6255311421
   50      H       7.5962141066     1.2951486376     1.2543300386
   51      H       6.1095382730     2.2856453054     1.5121869096
   52      H       6.9494167836     2.3183296405    -0.0853556505
   53      H      -0.7855972765     2.4598652447    -2.2158394615
   54      H       0.6731102649     3.1775824190    -1.4521256245
   55      H      -0.1529764289     2.1399755927     0.8257908596
   56      H      -1.0928539019     3.4967771833     0.1373894101
 ----------------------------------------------------------------
 Molecular Point Group                 C1    NOp =  1
 Largest Abelian Subgroup              C1    NOp =  1
 Nuclear Repulsion Energy =  3230.8428966938 hartrees
 There are      113 alpha and      113 beta electrons
 Applying Cartesian multipole field
    Component          Value
    ---------          -----
     (2,0,0)        1.00000E-12
     (0,2,0)        2.00000E-11
     (0,0,2)       -3.00000E-11
 Nucleus-field energy     =     0.0000000399 hartrees
 Requested basis set is STO-3G
 There are 86 shells and 176 basis functions
 A cutoff of  1.0D-12 yielded   2317 shell pairs
 There are     11041 function pairs
 Smallest overlap matrix eigenvalue = 2.06E-01
 Guess MOs from SCF MO coefficient file
 Reading MOs from coefficient file
 Reading MOs from coefficient file
 A restricted hybrid HF-DFT SCF calculation will be
 performed using Pulay DIIS extrapolation
 Exchange:     0.2000 Hartree-Fock + 0.0800 Slater + 0.7200 B88
 Correlation:  0.1900 VWN1RPA + 0.8100 LYP
 Using SG-1 standard quadrature grid
 Dispersion:   Grimme D3
 SCF converges when DIIS error is below 1.0E-08
 Geometry optimization detected.  Setting ReadMinima to 0
 Setting SaveMinima to 0
 using 48 threads for integral computing
 -------------------------------------------------------
 OpenMP Integral computing Module                
 Release: version 1.0, May 2013, Q-Chem Inc. Pittsburgh 
 -------------------------------------------------------
 -------------------------------------------------------
 OpenMP BLAS3 based DFT computing Module                
 Release: version 1.0, May 2013, Q-Chem Inc. Pittsburgh 
 -------------------------------------------------------
 ---------------------------------------
  Cycle       Energy         DIIS Error
 ---------------------------------------
    1   -1510.1028199503      2.86E-03
    2   -1510.2437935056      8.11E-04
    3   -1510.2381093242      1.42E-03
    4   -1510.2464489924      2.95E-04
    5   -1510.2468417776      6.07E-05
    6   -1510.2468561335      2.61E-05
    7   -1510.2468584469      1.34E-05
    8   -1510.2468592417      2.50E-06
    9   -1510.2468592740      6.13E-07
   10   -1510.2468592750      4.33E-07
   11   -1510.2468592758      1.23E-07
   12   -1510.2468592759      2.49E-08
   13   -1510.2468592760      9.86E-09 Convergence criterion met
 ---------------------------------------
 SCF time:  CPU 96.49 s  wall 2.02 s
 SCF   energy in the final basis set = -1510.24685928
 Total energy in the final basis set = -1510.24685928
 
 --------------------------------------------------------------
 
                    Orbital Energies (a.u.)
 --------------------------------------------------------------
 
 Alpha MOs
 -- Occupied --
-18.945 -18.928 -18.926 -18.923 -18.895 -18.891 -18.877 -18.858
-18.855 -18.853 -10.111 -10.093 -10.090 -10.089 -10.078 -10.072
-10.066 -10.063 -10.062 -10.062 -10.055 -10.055 -10.039 -10.035
-10.032 -10.032 -10.018 -10.017 -10.015 -10.013  -1.032  -1.018
 -1.013  -1.006  -0.988  -0.986  -0.947  -0.934  -0.927  -0.918
 -0.769  -0.765  -0.731  -0.726  -0.721  -0.711  -0.697  -0.676
 -0.662  -0.614  -0.600  -0.576  -0.549  -0.542  -0.536  -0.532
 -0.520  -0.511  -0.493  -0.477  -0.472  -0.459  -0.448  -0.446
 -0.440  -0.437  -0.423  -0.418  -0.417  -0.412  -0.411  -0.407
 -0.394  -0.388  -0.377  -0.371  -0.367  -0.355  -0.352  -0.346
 -0.340  -0.337  -0.336  -0.333  -0.332  -0.325  -0.316  -0.314
 -0.308  -0.304  -0.299  -0.296  -0.293  -0.284  -0.279  -0.275
 -0.265  -0.249  -0.242  -0.238  -0.236  -0.235  -0.229  -0.184
 -0.173  -0.165  -0.160  -0.157  -0.148  -0.147  -0.144  -0.137
 -0.120
 -- Virtual --
  0.097   0.098   0.114   0.117   0.246   0.250   0.255   0.261
  0.267   0.282   0.305   0.314   0.332   0.335   0.339   0.347
  0.359   0.361   0.364   0.366   0.369   0.375   0.380   0.382
  0.385   0.392   0.398   0.401   0.408   0.409   0.413   0.417
  0.418   0.424   0.426   0.428   0.431   0.438   0.442   0.444
  0.448   0.450   0.453   0.456   0.464   0.466   0.473   0.474
  0.477   0.480   0.488   0.496   0.508   0.515   0.523   0.547
  0.552   0.553   0.563   0.649   0.651   0.664   0.668
 --------------------------------------------------------------
 
          Ground-State Mulliken Net Atomic Charges

     Atom                 Charge (a.u.)
  ----------------------------------------
      1 O                    -0.216945
      2 C                     0.225551
      3 C                    -0.079869
      4 C                    -0.081685
      5 C                     0.220081
      6 O                    -0.178570
      7 C                    -0.044803
      8 C                    -0.040548
      9 O                    -0.180483
     10 C                     0.212194
     11 C                    -0.079980
     12 C                    -0.078678
     13 C                     0.219805
     14 O                    -0.213523
     15 O                    -0.187615
     16 O                    -0.190576
     17 O                    -0.208990
     18 C                    -0.114466
     19 C                     0.024409
     20 C                    -0.143528
     21 C                    -0.146426
     22 C                     0.029480
     23 O                    -0.194477
     24 H                     0.081410
     25 H                     0.085193
     26 H                     0.099563
     27 H                     0.072981
     28 H                     0.069688
     29 H                     0.074604
     30 H                     0.071313
     31 H                     0.090453
     32 O                    -0.222818
     33 C                    -0.114464
     34 C                     0.031173
     35 C                    -0.143655
     36 C                    -0.145138
     37 C                     0.032261
     38 O                    -0.191923
     39 H                     0.087688
     40 H                     0.084729
     41 H                     0.089741
     42 H                     0.086383
     43 H                     0.075620
     44 H                     0.073364
     45 H                     0.076297
     46 H                     0.073753
     47 H                     0.083542
     48 H                     0.089887
     49 H                     0.093238
     50 H                     0.090254
     51 H                     0.090580
     52 H                     0.086108
     53 H                     0.095713
     54 H                     0.093189
     55 H                     0.108669
     56 H                     0.080246
  ----------------------------------------
  Sum of atomic charges =    -0.000000

 -----------------------------------------------------------------
                    Cartesian Multipole Moments
 -----------------------------------------------------------------
    Charge (ESU x 10^10)
                 0.0000
    Dipole Moment (Debye)
         X      -0.9086      Y      -2.8514      Z      -1.9515
       Tot       3.5728
    Quadrupole Moments (Debye-Ang)
        XX    -137.4938     XY      -1.5759     YY    -151.8591
        XZ      -4.4514     YZ      -1.4268     ZZ    -165.4475
    Octopole Moments (Debye-Ang^2)
       XXX      37.2397    XXY      14.6759    XYY       0.2341
       YYY      10.9016    XXZ      24.6850    XYZ      14.6844
       YYZ      -9.0889    XZZ      18.3983    YZZ      -3.3743
       ZZZ      -6.9943
    Hexadecapole Moments (Debye-Ang^3)
      XXXX  -12204.8856   XXXY     208.3246   XXYY   -2698.1135
      XYYY      -3.6289   YYYY   -2928.5064   XXXZ      37.4305
      XXYZ      54.4043   XYYZ      35.7580   YYYZ     -33.2793
      XXZZ   -2351.8914   XYZZ      57.9839   YYZZ    -647.9740
      XZZZ      12.2713   YZZZ     -24.6365   ZZZZ    -888.2709
 -----------------------------------------------------------------
 Calculating analytic gradient of the SCF energy
 Gradient of SCF Energy
            1           2           3           4           5           6
    1  -0.0110192  -0.0195170   0.0102501   0.0067552   0.0043994  -0.0007436
    2  -0.0085030  -0.0124020   0.0122488   0.0047456  -0.0056024   0.0114553
    3  -0.0016064  -0.0126608   0.0029044  -0.0172068  -0.0110678   0.0197077
            7           8           9          10          11          12
    1   0.0037711  -0.0072232   0.0104278   0.0145769  -0.0050911  -0.0102344
    2  -0.0229631  -0.0091896   0.0136001   0.0070552   0.0048563   0.0107295
    3  -0.0082016  -0.0018411   0.0383090  -0.0508870   0.0333529  -0.0075904
           13          14          15          16          17          18
    1   0.0001721   0.0006580   0.0493951  -0.0064649  -0.0065383  -0.0064920
    2  -0.0296365  -0.0099458   0.0142093   0.0516144  -0.0165720  -0.0277959
    3   0.0213824   0.0021037   0.0121104  -0.0089424   0.0018150  -0.0042008
           19          20          21          22          23          24
    1   0.0268804   0.0061068  -0.0050007  -0.0289235   0.0004645  -0.0028083
    2   0.0016379   0.0117518   0.0096159   0.0120773  -0.0078177  -0.0022527
    3   0.0087767  -0.0000969   0.0014887   0.0071140  -0.0257834  -0.0006914
           25          26          27          28          29          30
    1   0.0047406   0.0010921   0.0020818  -0.0012288  -0.0040868   0.0026657
    2   0.0002594  -0.0050736   0.0002573  -0.0029507  -0.0015991   0.0008627
    3   0.0006340  -0.0072290   0.0051789  -0.0014968   0.0037726  -0.0014877
           31          32          33          34          35          36
    1   0.0034644  -0.0076368  -0.0270341   0.0049671   0.0110778   0.0103989
    2  -0.0082445  -0.0015685   0.0042984   0.0275654   0.0062811  -0.0039518
    3  -0.0057357  -0.0083882  -0.0000097   0.0008342   0.0067023  -0.0024302
           37          38          39          40          41          42
    1   0.0069936  -0.0123192  -0.0013677   0.0001770  -0.0017507  -0.0059353
    2  -0.0188681  -0.0094440  -0.0031042   0.0000063  -0.0008116  -0.0061917
    3  -0.0152921   0.0241882  -0.0014284   0.0023129   0.0019091   0.0029950
           43          44          45          46          47          48
    1   0.0011089  -0.0028599  -0.0009870   0.0005293  -0.0051950  -0.0018834
    2   0.0036382  -0.0020658  -0.0024985   0.0018754   0.0014406   0.0008113
    3  -0.0035073  -0.0005906  -0.0051981   0.0024458   0.0080085  -0.0019693
           49          50          51          52          53          54
    1   0.0019599   0.0012644  -0.0012160   0.0003563  -0.0003828   0.0011309
    2  -0.0009354   0.0018350  -0.0015710  -0.0015043   0.0061211  -0.0004275
    3  -0.0005692   0.0007258   0.0008990  -0.0013330   0.0004972  -0.0026341
           55          56
    1  -0.0010310  -0.0028952
    2   0.0036792  -0.0010377
    3   0.0013902  -0.0014827
 Max gradient component =       5.161E-02
 RMS gradient           =       1.200E-02
 Gradient time:  CPU 30.63 s  wall 0.64 s
 Geometry Optimization Parameters
   NAtoms,    NIC,     NZ,  NCons,   NDum,   NFix, NCnnct, MaxDiis
       56     458       0       9       0       0       0       0

 Cartesian Hessian Update
 Hessian Updated using BFGS Update


** CONSTRAINED OPTIMIZATION IN DELOCALIZED INTERNAL COORDINATES **
   Searching for a Minimum

   Optimization Cycle:   3

                       Coordinates (Angstroms)
     ATOM                X               Y               Z
      1  O        -1.2969202903   -0.8273501402    0.9242052113
      2  C        -2.3357311551   -1.3857273884    0.5119876370
      3  C        -3.7789423671   -0.8399486396    0.6044527097
      4  C        -3.9109762801    0.6507278826    1.0470516107
      5  C        -2.5761378557    1.4270394764    1.1738050942
      6  O        -2.0319965612    1.6441026110   -0.1018785258
      7  C        -0.8037276180    2.4323054143   -0.0240592132
      8  C        -0.0606764017    2.3435854568   -1.3834582754
      9  O         0.6276428606    1.0598949357   -1.5294977844
     10  C         1.8506206830    1.0226083162   -0.8350685381
     11  C         2.4470388877   -0.4019076045   -0.9169174688
     12  C         4.0030080403   -0.4894172251   -0.7613811519
     13  C         4.6946486805    0.8126371711   -0.2738046712
     14  O         4.3729266866    1.9832378071   -0.5610957015
     15  O        -2.3453222174   -2.6722444404   -0.0244352650
     16  O         5.9137941249    0.5301619535    0.3549094035
     17  O         2.0762811041    1.8042899680    0.1172445179
     18  C         6.6711842159    1.6711236742    0.7752493070
     19  C         1.9846116790   -1.3271700317    0.2732308432
     20  C         2.1481477182   -2.8202351009   -0.1698963231
     21  C         3.6918964435   -2.9683612467   -0.1522500002
     22  C         4.1026508566   -1.5612351304    0.3913507496
     23  O         3.0184173857   -1.1794082692    1.2803714237
     24  H         2.1168029930   -0.8615492645   -1.8692262894
     25  H         4.5336876826   -0.8192643746   -1.6758015592
     26  H         0.9590177472   -1.1111570063    0.6290989886
     27  H         1.7218712853   -3.4544782857    0.6276114214
     28  H         1.6790375231   -3.0804037187   -1.1335802750
     29  H         3.9765681393   -3.7566465340    0.5668028171
     30  H         4.1522660654   -3.1789873576   -1.1331251367
     31  H         5.1005003896   -1.5981443291    0.8713700394
     32  O        -2.1463428876    1.9375444833    2.2268867804
     33  C        -1.0726184251   -3.2946175811   -0.2142242084
     34  C        -4.5049167644   -0.7847485604   -0.7972364469
     35  C        -6.0499149556   -0.7932301743   -0.5563930920
     36  C        -6.2621504998    0.6354401164    0.0219067450
     37  C        -4.8133920974    1.2197184331   -0.1099854118
     38  O        -4.2715221093    0.5630014318   -1.2891799576
     39  H        -4.3443857594   -1.5257194277    1.2659429045
     40  H        -4.4034207099    0.7231114962    2.0354810968
     41  H        -0.5183330252   -3.3931432936    0.7437883069
     42  H        -4.1939263480   -1.5908225576   -1.4917184002
     43  H        -6.5386959935   -0.8562688230   -1.5459611994
     44  H        -6.4199324689   -1.6184488901    0.0762502418
     45  H        -6.9614073338    1.1904182303   -0.6281086882
     46  H        -6.6233608969    0.6677595337    1.0646755404
     47  H        -4.8094294795    2.3275974697   -0.1476684306
     48  H        -0.4565036912   -2.7238991992   -0.9399966984
     49  H        -1.2567686008   -4.3064155197   -0.6255311421
     50  H         7.5962141066    1.2951486376    1.2543300386
     51  H         6.1095382730    2.2856453054    1.5121869096
     52  H         6.9494167836    2.3183296405   -0.0853556505
     53  H        -0.7855972765    2.4598652447   -2.2158394615
     54  H         0.6731102649    3.1775824190   -1.4521256245
     55  H        -0.1529764289    2.1399755927    0.8257908596
     56  H        -1.0928539019    3.4967771833    0.1373894101
   Point Group: c1    Number of degrees of freedom:   162


   Energy is  -1510.246859276

              Constraints and their Current Values
                                        Value     Constraint
   Dihedral:        1   2   3   4       10.583       10.580
   Dihedral:        3   4   5   6       70.249       70.242
   Dihedral:        4   5   6   7      177.206      177.235
   Dihedral:        5   6   7   8      165.947      165.941
   Dihedral:        6   7   8   9      -76.822      -76.776
   Dihedral:        7   8   9  10      -79.733      -79.716
   Dihedral:        8   9  10  11      174.331      174.326
   Dihedral:        9  10  11  12      154.884      154.873
   Dihedral:       11  12  13  14      -35.742      -35.707
 Hessian Updated using BFGS Update

   Using Lagrange Multiplier Algorithm


164 Hessian modes will be used to form the next step
  Hessian Eigenvalues:
    -0.977754   -0.977753   -0.977753   -0.977753   -0.977753   -0.977753
    -0.977753   -0.977483   -0.949897    0.044831    0.045000    0.045001
     0.045041    0.045137    0.045497    0.045583    0.045648    0.048568
     0.048871    0.050207    0.054190    0.059045    0.060036    0.062456
     0.063347    0.066958    0.067074    0.067396    0.067585    0.069719
     0.070531    0.071015    0.073608    0.073906    0.075641    0.075748
     0.077106    0.077751    0.082496    0.082534    0.083437    0.084025
     0.084292    0.085165    0.085395    0.085499    0.085865    0.086274
     0.086771    0.087592    0.088520    0.088743    0.089143    0.089809
     0.089903    0.091121    0.093686    0.094088    0.096515    0.096632
     0.111575    0.111629    0.114648    0.115171    0.115905    0.116668
     0.116874    0.117329    0.118102    0.118810    0.120884    0.123723
     0.124297    0.129784    0.130290    0.131800    0.140595    0.146885
     0.158827    0.160000    0.160000    0.160031    0.162099    0.170675
     0.172453    0.173044    0.179884    0.187072    0.219191    0.220524
     0.228004    0.239978    0.240252    0.246029    0.247713    0.249602
     0.252778    0.258285    0.262267    0.267141    0.267175    0.279224
     0.282100    0.283607    0.286023    0.295707    0.298278    0.300372
     0.307717    0.308746    0.311815    0.319036    0.320965    0.321395
     0.322042    0.322273    0.322672    0.322742    0.323111    0.323161
     0.323500    0.323586    0.323915    0.324070    0.324176    0.324332
     0.324608    0.324687    0.324944    0.325165    0.325809    0.326512
     0.326686    0.326912    0.328175    0.328757    0.330464    0.343188
     0.347152    0.368646    0.373092    0.388329    0.400695    0.405975
     0.423409    0.472780    0.502538    0.515141    0.523041    0.531544
     0.538607    0.929320    0.936057    0.942271    0.981008    1.022753
     1.022753    1.022753    1.022753    1.022753    1.022753    1.022753
     1.024937    1.117545

 Minimum Search - Taking P-RFO Step
 Searching for Lamda that Maximizes Along the Constraint modes Only
 Value Taken    Lamda =   0.00247880
 Searching for Lamda that Minimizes Along All other modes
 Value Taken    Lamda =  -0.06022992
 Calculated Step too Large.  Step scaled by  0.545698
 Step Taken.  Stepsize is  0.300000

                             Maximum     Tolerance    Cnvgd?
         Gradient            0.040845       0.000300      NO
         Displacement        0.105889       0.001200      NO
         Energy change     -0.039105       0.000001      NO


 New Cartesian Coordinates Obtained by Inverse Iteration

 Displacement from previous Coordinates is:  3.275608
 Adding empirical dispersion correction 
 ----------------------------------------------------------------
 Doing -D3(op) with
 s6 =   1.00000
 s8 =   0.78311
 a1 =   0.30000
 a2 =   4.25000
 n  =  10.00000
 -D3 energy without 3body term =     -0.0671455659 hartrees
 ----------------------------------------------------------------
             Standard Nuclear Orientation (Angstroms)
    I     Atom           X                Y                Z
 ----------------------------------------------------------------
    1      O      -1.4136568001    -1.0504827526     0.8081335426
    2      C      -2.5263516056    -1.5079451575     0.4569762124
    3      C      -3.9284205048    -0.8557037197     0.6106763763
    4      C      -3.9469497606     0.6513827551     1.0508058877
    5      C      -2.5644202117     1.3790357383     1.1362296344
    6      O      -2.0262317310     1.5816874619    -0.1624284510
    7      C      -0.7563871231     2.3260763287    -0.0585385550
    8      C       0.0211816999     2.2497312755    -1.4115097791
    9      O       0.6954401864     0.9554273576    -1.6356932798
   10      C       1.9068476710     0.9653134155    -0.8823297406
   11      C       2.6023214149    -0.4297949723    -0.9578993169
   12      C       4.1689965578    -0.4431152115    -0.7348491741
   13      C       4.8116229211     0.9083989114    -0.2640463099
   14      O       4.4883387834     2.0716829210    -0.5864232816
   15      O      -2.7239630100    -2.7974887097    -0.0839308367
   16      O       6.0146985579     0.6332551154     0.4365124000
   17      O       2.0613899763     1.7880428869     0.0521121711
   18      C       6.6889294021     1.8635805795     0.8347444117
   19      C       2.1341391926    -1.3652554711     0.2392593411
   20      C       2.3958378949    -2.8599232968    -0.1856474736
   21      C       3.9524656407    -2.9308501175    -0.1075099188
   22      C       4.2795940946    -1.4953773124     0.4431228569
   23      O       3.1322784750    -1.1509954663     1.2953807456
   24      H       2.3319338607    -0.9126350417    -1.9145102793
   25      H       4.7423384468    -0.7649429732    -1.6243696489
   26      H       1.0875951136    -1.1848634457     0.5635986047
   27      H       1.9699692484    -3.5153754452     0.5912005132
   28      H       1.9797368550    -3.1410979721    -1.1650978230
   29      H       4.2559346442    -3.6994977190     0.6217526992
   30      H       4.4526850451    -3.1233422967    -1.0703494230
   31      H       5.2548904775    -1.4621121442     0.9656717152
   32      O      -2.0743707042     1.8638798584     2.1798849520
[...]
     15  O        -2.4163228161   -2.5958129903   -0.6018030501
     16  O         5.8707589477    0.6424150439    0.1513085030
     17  O         2.3268396237    1.7917460905    0.2067180762
     18  C         6.6376434900    1.9037567969    0.0367263073
     19  C         1.8764590441   -1.4167751844    0.4398808541
     20  C         2.2639640893   -2.9325784254    0.2035673021
     21  C         3.7932815247   -2.9313722623    0.5723073804
     22  C         4.0318108121   -1.3915749528    0.8148832092
     23  O         2.7940606992   -0.9770431424    1.5177037133
     24  H         2.0326775322   -0.9103570516   -1.7630913047
     25  H         4.3542945168   -1.3462158083   -1.3828223165
     26  H         0.8111720168   -1.2370820489    0.7087810854
     27  H         1.6870462232   -3.5879729708    0.8750916603
     28  H         2.0822991379   -3.2482015852   -0.8363812129
     29  H         3.9833285645   -3.4986609027    1.4976436170
     30  H         4.4291586785   -3.3373757080   -0.2305450456
     31  H         4.9283871048   -1.1255052054    1.4063485057
     32  O        -2.1072986640    1.4557195467    2.5095111345
     33  C        -1.0561463636   -3.1205376743   -0.8550645441
     34  C        -4.5704712768   -0.6804542820   -0.9714138658
     35  C        -6.1267690451   -0.6561042804   -0.7043633190
     36  C        -6.2870289005    0.7379270670    0.0080287003
     37  C        -4.7984780894    1.2691458789   -0.0173602832
     38  O        -4.2549124449    0.7301106315   -1.2851893586
     39  H        -4.3776236896   -1.6926659348    1.0079306328
     40  H        -4.5153546677    0.4338489623    2.0506245674
     41  H        -0.5703669586   -3.4610061432    0.0811652186
     42  H        -4.2334642123   -1.3521179313   -1.7845395439
     43  H        -6.6788625095   -0.6879850233   -1.6572359113
     44  H        -6.4573596251   -1.4988805690   -0.0766975194
     45  H        -6.9465322480    1.4105808697   -0.5629860051
     46  H        -6.6767802910    0.6481470200    1.0346036452
     47  H        -4.6914166488    2.3705259513    0.0118237854
     48  H        -0.4097278909   -2.3577297721   -1.3341861526
     49  H        -1.1832351859   -3.9809199502   -1.5374670871
     50  H         7.4854999540    1.8101461519    0.7400047811
     51  H         6.0189920965    2.7815055582    0.3141379925
     52  H         7.0231563457    2.0562121425   -0.9922021279
     53  H        -0.7046551914    2.5712675883   -1.8094624508
     54  H         0.7852167660    3.1740820499   -0.9537817757
     55  H        -0.1185292017    1.7903996927    1.1445067311
     56  H        -0.9475026874    3.3381571993    0.7545851920
   Point Group: c1    Number of degrees of freedom:   162


   Energy is  -1510.287272034

              Constraints and their Current Values
                                        Value     Constraint
   Dihedral:        1   2   3   4       10.580       10.580
   Dihedral:        3   4   5   6       70.242       70.242
   Dihedral:        4   5   6   7      177.235      177.235
   Dihedral:        5   6   7   8      165.941      165.941
   Dihedral:        6   7   8   9      -76.776      -76.776
   Dihedral:        7   8   9  10      -79.716      -79.716
   Dihedral:        8   9  10  11      174.326      174.326
   Dihedral:        9  10  11  12      154.873      154.873
   Dihedral:       11  12  13  14      -35.707      -35.707
 Hessian Updated using BFGS Update

153 Hessian modes will be used to form the next step
  Hessian Eigenvalues:
     0.003764    0.007950    0.016525    0.020828    0.045008    0.045058
     0.045198    0.045365    0.045704    0.046242    0.046745    0.047440
     0.051485    0.055023    0.057285    0.060658    0.063536    0.066569
     0.067120    0.067292    0.067721    0.069538    0.071312    0.072101
     0.073520    0.075049    0.075949    0.076629    0.077916    0.078931
     0.082495    0.082744    0.083785    0.084159    0.084736    0.085142
     0.085582    0.086187    0.086503    0.086948    0.087587    0.087930
     0.088805    0.089103    0.089770    0.090124    0.090922    0.093230
     0.094033    0.094958    0.096623    0.096754    0.111540    0.111662
     0.114860    0.115357    0.115909    0.116781    0.117330    0.118053
     0.118827    0.119289    0.121771    0.124185    0.125069    0.129617
     0.130669    0.133922    0.157446    0.159252    0.160013    0.160196
     0.160290    0.160886    0.161627    0.162761    0.172717    0.174034
     0.198734    0.206071    0.222867    0.226517    0.239367    0.239919
     0.245101    0.247544    0.249481    0.250340    0.251039    0.252751
     0.254925    0.266228    0.266548    0.270540    0.274118    0.275665
     0.281075    0.281926    0.286693    0.293710    0.296357    0.297951
     0.302607    0.303508    0.311200    0.317050    0.317954    0.319114
     0.321572    0.322107    0.322678    0.322690    0.322876    0.323185
     0.323277    0.323585    0.323706    0.323894    0.324097    0.324346
     0.324487    0.324610    0.324859    0.324957    0.325290    0.325914
     0.326203    0.326900    0.327374    0.328288    0.329654    0.330438
     0.337698    0.344738    0.345039    0.367559    0.370534    0.387945
     0.399439    0.405427    0.414729    0.475360    0.491315    0.505411
     0.520288    0.527385    0.543055    0.567314    0.929948    0.936589
     0.941800    1.019074    1.219020

 Minimum Search - Taking Simple RFO Step
 Searching for Lamda that Minimizes Along All modes
 Value Taken    Lamda =   0.00000000
 Step Taken.  Stepsize is  0.005751

                             Maximum     Tolerance    Cnvgd?
         Gradient           0.000058      0.000300     YES
         Displacement       0.001541      0.001200      NO
         Energy change     -0.000000      0.000001     YES

 Final energy is   -1510.28727203408     


 ******************************
 **  OPTIMIZATION CONVERGED  **
 ******************************

                       Coordinates (Angstroms)
     ATOM                X               Y               Z
      1  O        -1.3063904417   -0.9641172538    0.7149989736
      2  C        -2.3620172494   -1.4422058355    0.2399350393
      3  C        -3.8358735090   -0.9286915744    0.4193527470
      4  C        -3.9663038435    0.4984640373    1.0951310720
      5  C        -2.5929274337    1.1994078054    1.3865571476
      6  O        -2.0060052358    1.5854817421    0.1396188720
      7  C        -0.7395759698    2.3092772013    0.3836136528
      8  C         0.0138852245    2.3749885441   -0.9887440316
      9  O         0.6340631466    1.0592567292   -1.2842471318
     10  C         1.8554644866    0.9173298599   -0.5517950170
     11  C         2.3877087392   -0.5375979517   -0.7863927823
     12  C         3.9502122482   -0.6729965811   -0.6029165125
     13  C         4.7430993657    0.6776313918   -0.7306641320
     14  O         4.4894721331    1.6316872137   -1.4971676003
     15  O        -2.4163228161   -2.5958129903   -0.6018030501
     16  O         5.8707589477    0.6424150439    0.1513085030
     17  O         2.3268396237    1.7917460905    0.2067180762
     18  C         6.6376434900    1.9037567969    0.0367263073
     19  C         1.8764590441   -1.4167751844    0.4398808541
     20  C         2.2639640893   -2.9325784254    0.2035673021
     21  C         3.7932815247   -2.9313722623    0.5723073804
     22  C         4.0318108121   -1.3915749528    0.8148832092
     23  O         2.7940606992   -0.9770431424    1.5177037133
     24  H         2.0326775322   -0.9103570516   -1.7630913047
     25  H         4.3542945168   -1.3462158083   -1.3828223165
     26  H         0.8111720168   -1.2370820489    0.7087810854
     27  H         1.6870462232   -3.5879729708    0.8750916603
     28  H         2.0822991379   -3.2482015852   -0.8363812129
     29  H         3.9833285645   -3.4986609027    1.4976436170
     30  H         4.4291586785   -3.3373757080   -0.2305450456
     31  H         4.9283871048   -1.1255052054    1.4063485057
     32  O        -2.1072986640    1.4557195467    2.5095111345
     33  C        -1.0561463636   -3.1205376743   -0.8550645441
     34  C        -4.5704712768   -0.6804542820   -0.9714138658
     35  C        -6.1267690451   -0.6561042804   -0.7043633190
     36  C        -6.2870289005    0.7379270670    0.0080287003
     37  C        -4.7984780894    1.2691458789   -0.0173602832
     38  O        -4.2549124449    0.7301106315   -1.2851893586
     39  H        -4.3776236896   -1.6926659348    1.0079306328
     40  H        -4.5153546677    0.4338489623    2.0506245674
     41  H        -0.5703669586   -3.4610061432    0.0811652186
     42  H        -4.2334642123   -1.3521179313   -1.7845395439
     43  H        -6.6788625095   -0.6879850233   -1.6572359113
     44  H        -6.4573596251   -1.4988805690   -0.0766975194
     45  H        -6.9465322480    1.4105808697   -0.5629860051
     46  H        -6.6767802910    0.6481470200    1.0346036452
     47  H        -4.6914166488    2.3705259513    0.0118237854
     48  H        -0.4097278909   -2.3577297721   -1.3341861526
     49  H        -1.1832351859   -3.9809199502   -1.5374670871
     50  H         7.4854999540    1.8101461519    0.7400047811
     51  H         6.0189920965    2.7815055582    0.3141379925
     52  H         7.0231563457    2.0562121425   -0.9922021279
     53  H        -0.7046551914    2.5712675883   -1.8094624508
     54  H         0.7852167660    3.1740820499   -0.9537817757
     55  H        -0.1185292017    1.7903996927    1.1445067311
     56  H        -0.9475026874    3.3381571993    0.7545851920

Z-matrix Print:
$molecule
0 1
O 
C  1 1.252439
O  2 1.429084 1 124.304289
C  3 1.479715 2 110.618041 1 -1.320442 0
H  4 1.105478 3 106.019719 2 -177.974950 0
H  4 1.108344 3 111.545539 2 62.976398 0
H  4 1.108734 3 111.463839 2 -58.751330 0
C  2 1.571031 1 128.508539 3 -179.539853 0
H  8 1.106153 2 107.126492 1 -112.921998 0
C  8 1.584444 2 114.856868 1 10.580015 0
H  10 1.103902 8 110.939944 2 -117.866065 0
C  10 1.569208 8 114.173848 2 3.780482 0
O  12 1.250023 10 126.758321 8 -113.444200 0
O  12 1.431218 10 108.517834 8 70.242022 0
C  14 1.478938 12 109.842784 10 177.234951 0
H  15 1.110807 14 111.294404 12 45.269335 0
H  15 1.113305 14 110.324375 12 -74.514563 0
C  15 1.566968 14 106.725192 12 165.940948 0
H  18 1.108334 15 110.134529 14 39.909958 0
H  18 1.111182 15 109.656374 14 161.393138 0
O  18 1.484282 15 109.761083 14 -76.776030 0
C  21 1.431241 18 110.034627 15 -79.716021 0
O  22 1.249856 21 124.266999 18 -0.963081 0
C  22 1.566887 21 107.778413 18 174.326003 0
H  24 1.104055 22 109.677302 21 27.339431 0
C  24 1.579055 22 113.474765 21 154.872954 0
H  26 1.106689 24 109.364545 22 -139.939913 0
C  26 1.571364 24 114.591672 22 -20.678073 0
O  28 1.249831 26 127.126775 24 -35.706979 0
O  28 1.432038 26 109.033989 24 146.543192 0
C  30 1.480616 28 109.831053 26 179.535421 0
H  31 1.105542 30 106.013235 28 179.888957 0
H  31 1.109112 30 111.464886 28 60.673091 0
H  31 1.109305 30 111.645455 28 -60.833748 0
C  10 1.588742 8 100.451153 2 123.595237 0
H  35 1.106956 10 114.426452 8 -157.041716 0
O  35 1.481018 10 103.334687 8 -36.921900 0
C  37 1.479096 35 95.002180 10 57.591087 0
H  38 1.107194 37 110.964797 35 -178.677204 0
C  38 1.579231 37 103.380465 35 56.688937 0
H  40 1.101602 38 112.351998 37 -156.717568 0
H  40 1.101721 38 110.312518 37 81.852262 0
C  40 1.573693 38 100.985864 37 -36.152949 0
H  43 1.101574 40 111.544830 38 118.935644 0
H  43 1.101736 40 112.683787 38 -118.446761 0
C  26 1.591593 24 101.125011 22 104.569890 0
H  46 1.106559 26 114.149842 24 -148.610122 0
O  46 1.482504 26 104.670718 24 -27.244601 0
C  48 1.482248 46 95.116305 26 53.869018 0
H  49 1.113298 48 111.644524 46 178.994073 0
C  46 1.576932 26 107.221488 24 81.350450 0
H  51 1.101703 46 112.621419 26 49.971663 0
H  51 1.101899 46 110.330633 26 171.788810 0
C  51 1.573144 46 100.594265 26 -70.543869 0
H  54 1.101509 51 111.513439 46 -123.070976 0
H  54 1.101868 51 112.440350 46 114.699870 0
$end

 
 --------------------------------------------------------------
 
                    Orbital Energies (a.u.)
 --------------------------------------------------------------
 
 Alpha MOs
 -- Occupied --
-18.944 -18.929 -18.924 -18.920 -18.889 -18.889 -18.879 -18.866
-18.865 -18.862 -10.110 -10.093 -10.090 -10.090 -10.071 -10.066
-10.062 -10.061 -10.060 -10.059 -10.051 -10.048 -10.041 -10.034
-10.032 -10.030 -10.021 -10.020 -10.017 -10.015  -1.021  -1.007
 -1.003  -0.998  -0.971  -0.962  -0.946  -0.932  -0.927  -0.922
 -0.764  -0.757  -0.725  -0.719  -0.713  -0.703  -0.690  -0.669
 -0.655  -0.610  -0.597  -0.573  -0.546  -0.538  -0.538  -0.532
 -0.516  -0.505  -0.487  -0.468  -0.464  -0.454  -0.447  -0.440
 -0.434  -0.430  -0.419  -0.418  -0.414  -0.408  -0.404  -0.403
 -0.390  -0.383  -0.370  -0.366  -0.360  -0.355  -0.350  -0.343
 -0.341  -0.334  -0.332  -0.329  -0.326  -0.320  -0.316  -0.314
 -0.306  -0.306  -0.302  -0.297  -0.288  -0.284  -0.282  -0.275
 -0.267  -0.261  -0.249  -0.244  -0.239  -0.235  -0.226  -0.187
 -0.173  -0.167  -0.165  -0.161  -0.150  -0.144  -0.141  -0.140
 -0.136
 -- Virtual --
  0.091   0.105   0.111   0.114   0.237   0.246   0.247   0.250
  0.260   0.266   0.285   0.293   0.310   0.315   0.327   0.330
  0.337   0.343   0.345   0.348   0.355   0.365   0.367   0.373
  0.377   0.380   0.394   0.397   0.403   0.406   0.409   0.411
  0.412   0.417   0.421   0.425   0.427   0.428   0.432   0.433
  0.435   0.437   0.439   0.445   0.450   0.453   0.465   0.467
  0.472   0.476   0.481   0.489   0.499   0.505   0.515   0.535
  0.543   0.552   0.559   0.639   0.643   0.654   0.668
 --------------------------------------------------------------
 
          Ground-State Mulliken Net Atomic Charges

     Atom                 Charge (a.u.)
  ----------------------------------------
      1 O                    -0.208289
      2 C                     0.218377
      3 C                    -0.077546
      4 C                    -0.081354
      5 C                     0.212390
      6 O                    -0.172517
      7 C                    -0.047643
      8 C                    -0.047756
      9 O                    -0.172435
     10 C                     0.213556
     11 C                    -0.078365
     12 C                    -0.080024
     13 C                     0.213689
     14 O                    -0.215245
     15 O                    -0.169370
     16 O                    -0.171101
     17 O                    -0.213750
     18 C                    -0.127659
     19 C                     0.014987
     20 C                    -0.145776
     21 C                    -0.142876
     22 C                     0.023819
     23 O                    -0.189251
     24 H                     0.082504
     25 H                     0.081444
     26 H                     0.099868
     27 H                     0.073539
     28 H                     0.069251
     29 H                     0.076862
     30 H                     0.071503
     31 H                     0.092157
     32 O                    -0.216011
     33 C                    -0.128881
     34 C                     0.025346
     35 C                    -0.143529
     36 C                    -0.144546
     37 C                     0.026911
     38 O                    -0.186346
     39 H                     0.085886
     40 H                     0.083961
     41 H                     0.089656
     42 H                     0.088765
     43 H                     0.078099
     44 H                     0.073509
     45 H                     0.077862
     46 H                     0.073922
     47 H                     0.083843
     48 H                     0.092591
     49 H                     0.091922
     50 H                     0.089239
     51 H                     0.092780
     52 H                     0.087189
     53 H                     0.095802
     54 H                     0.095440
     55 H                     0.101303
     56 H                     0.082298
  ----------------------------------------
  Sum of atomic charges =    -0.000000

 -----------------------------------------------------------------
                    Cartesian Multipole Moments
 -----------------------------------------------------------------
    Charge (ESU x 10^10)
                 0.0000
    Dipole Moment (Debye)
         X      -1.3336      Y      -2.5833      Z      -1.5086
       Tot       3.2753
    Quadrupole Moments (Debye-Ang)
        XX    -137.7182     XY      -1.6674     YY    -149.4996
        XZ      -4.0673     YZ       1.6320     ZZ    -168.9416
    Octopole Moments (Debye-Ang^2)
       XXX      20.6930    XXY      16.8826    XYY       9.5862
       YYY      33.1014    XXZ      19.9477    XYZ      11.7373
       YYZ      -0.8782    XZZ       7.7113    YZZ      -7.4982
       ZZZ     -10.5294
    Hexadecapole Moments (Debye-Ang^3)
      XXXX  -12266.0080   XXXY     219.8998   XXYY   -2647.4622
      XYYY       0.7148   YYYY   -2793.0611   XXXZ     -13.1330
      XXYZ      49.8655   XYYZ      31.1228   YYYZ      11.9225
      XXZZ   -2429.7258   XYZZ      21.6236   YYZZ    -640.7577
      XZZZ      69.8104   YZZZ      -1.8912   ZZZZ   -1016.2513
 -----------------------------------------------------------------
Archival summary:
1\1\vega02.cac.cornell.edu\OPT\ProcedureUnspecified\STO-3G\102026\jj585\TueJan1603:28:492018TueJan1603:28:492018\0\\#,OPT,ProcedureUnspecified,STO-3G,\\0,1\O\C,1,1.25244\O,2,1.42908,1,124.304\C,3,1.47972,2,110.618,1,-1.32044,0\H,4,1.10548,3,106.02,2,-177.975,0\H,4,1.10834,3,111.546,2,62.9764,0\H,4,1.10873,3,111.464,2,-58.7513,0\C,2,1.57103,1,128.509,3,-179.54,0\H,8,1.10615,2,107.126,1,-112.922,0\C,8,1.58444,2,114.857,1,10.58,0\H,10,1.1039,8,110.94,2,-117.866,0\C,10,1.56921,8,114.174,2,3.78048,0\O,12,1.25002,10,126.758,8,-113.444,0\O,12,1.43122,10,108.518,8,70.242,0\C,14,1.47894,12,109.843,10,177.235,0\H,15,1.11081,14,111.294,12,45.2693,0\H,15,1.1133,14,110.324,12,-74.5146,0\C,15,1.56697,14,106.725,12,165.941,0\H,18,1.10833,15,110.135,14,39.91,0\H,18,1.11118,15,109.656,14,161.393,0\O,18,1.48428,15,109.761,14,-76.776,0\C,21,1.43124,18,110.035,15,-79.716,0\O,22,1.24986,21,124.267,18,-0.963081,0\C,22,1.56689,21,107.778,18,174.326,0\H,24,1.10405,22,109.677,21,27.3394,0\C,24,1.57905,22,113.475,21,154.873,0\H,26,1.10669,24,109.365,22,-139.94,0\C,26,1.57136,24,114.592,22,-20.6781,0\O,28,1.24983,26,127.127,24,-35.707,0\O,28,1.43204,26,109.034,24,146.543,0\C,30,1.48062,28,109.831,26,179.535,0\H,31,1.10554,30,106.013,28,179.889,0\H,31,1.10911,30,111.465,28,60.6731,0\H,31,1.1093,30,111.645,28,-60.8337,0\C,10,1.58874,8,100.451,2,123.595,0\H,35,1.10696,10,114.426,8,-157.042,0\O,35,1.48102,10,103.335,8,-36.9219,0\C,37,1.4791,35,95.0022,10,57.5911,0\H,38,1.10719,37,110.965,35,-178.677,0\C,38,1.57923,37,103.38,35,56.6889,0\H,40,1.1016,38,112.352,37,-156.718,0\H,40,1.10172,38,110.313,37,81.8523,0\C,40,1.57369,38,100.986,37,-36.1529,0\H,43,1.10157,40,111.545,38,118.936,0\H,43,1.10174,40,112.684,38,-118.447,0\C,26,1.59159,24,101.125,22,104.57,0\H,46,1.10656,26,114.15,24,-148.61,0\O,46,1.4825,26,104.671,24,-27.2446,0\C,48,1.48225,46,95.1163,26,53.869,0\H,49,1.1133,48,111.645,46,178.994,0\C,46,1.57693,26,107.221,24,81.3505,0\H,51,1.1017,46,112.621,26,49.9717,0\H,51,1.1019,46,110.331,26,171.789,0\C,51,1.57314,46,100.594,26,-70.5439,0\H,54,1.10151,51,111.513,46,-123.071,0\H,54,1.10187,51,112.44,46,114.7,0\\\@

 Total job time:  56.79s(wall), 2705.14s(cpu) 
 Tue Jan 16 03:28:49 2018

        *************************************************************
        *                                                           *
        *  Thank you very much for using Q-Chem.  Have a nice day.  *
        *                                                           *
        *************************************************************


0 sent ACK to 0 
now end server 0 ... 
