mFile = /opt/software/qchem/qchem-5.0.1//bin/mpi/machines
Process 0 of 1 is on vega02.cac.cornell.edu - thread support 0
initial socket setup ...start
initial socket setup ...done 
now start server 0 ... 
vega02.cac.cornell.edu 10.84.3
Q-Chem Developer Version! Running on 10.84.3.*
                  Welcome to Q-Chem
     A Quantum Leap Into The Future Of Chemistry


 Q-Chem 5.0, Q-Chem, Inc., Pleasanton, CA (2017)

 Yihan Shao,  Zhengting Gan,  E. Epifanovsky,  A. T. B. Gilbert,  M. Wormit,  
 J. Kussmann,  A. W. Lange,  A. Behn,  Jia Deng,  Xintian Feng,  D. Ghosh,  
 M. Goldey,  P. R. Horn,  L. D. Jacobson,  I. Kaliman,  T. Kus,  A. Landau,  
 Jie Liu,  E. I. Proynov,  R. M. Richard,  R. P. Steele,  E. J. Sundstrom,  
 H. L. Woodcock III,  P. M. Zimmerman,  D. Zuev,  B. Albrecht,  E. Alguire,  
 S. A. Baeppler,  Z. Benda,  Y. A. Bernard,  E. J. Berquist,  K. B. Bravaya,  
 D. Casanova,  Chun-Min Chang,  Yunqing Chen,  A. Chien,  K. D. Closser,  
 M. P. Coons,  S. Dasgupta,  M. Diedenhofen,  Hainam Do,  R. G. Edgar,  
 Po-Tung Fang,  S. Fatehi,  Qingguo Feng,  Qinghui Ge,  A. Ghysels,  
 J. Gomes,  J. Gonthier,  A. Gunina,  M. W. D. Hanson-Heine,  
 P. H. P. Harbach,  A. W. Hauser,  J. E. Herr,  E. G. Hohenstein,  
 Z. C. Holden,  Kerwin Hui,  T.-C. Jagau,  Hyunjun Ji,  B. Kaduk,  
 K. Khistyaev,  Jaehoon Kim,  P. Klunzinger,  K. Koh,  D. Kosenkov,  
 T. Kowalczyk,  C. M. Krauter,  A. Kunitsa,  Ka Un Lao,  A. Laurent,  
 K. V. Lawler,  Joonho Lee,  D. Lefrancois,  S. Lehtola,  D. S. Levine,  
 Yi-Pei Li,  You-Sheng Lin,  Fenglai Liu,  E. Livshits,  A. Luenser,  
 P. Manohar,  E. Mansoor,  S. F. Manzer,  Shan-Ping Mao,  Yuezhi Mao,  
 N. Mardirossian,  A. V. Marenich,  L. A. Martinez-Martinez,  S. A. Maurer,  
 N. J. Mayhall,  S. C. McKenzie,  J.-M. Mewes,  A. F. Morrison,  K. Nanda,  
 T. S. Nguyen-Beck,  R. Olivares-Amaya,  J. A. Parkhill,  T. M. Perrine,  
 F. Plasser,  S. Prager,  A. Prociuk,  D. R. Rehn,  F. Rob,  M. Schneider,  
 N. Sergueev,  S. M. Sharada,  S. Sharma,  D. W. Small,  T. Stauch,  
 T. Stein,  Yu-Chuan Su,  A. J. W. Thom,  T. Tsuchimochi,  L. Vogt,  
 O. Vydrov,  M. A. Watson,  J. Wenzel,  M. de Wergifosse,  T. A. Wesolowski,  
 A. White,  J. Witte,  A. Yamada,  Jun Yang,  K. Yao,  S. Yeganeh,  
 S. R. Yost,  Zhi-Qiang You,  A. Zech,  Igor Ying Zhang,  Xing Zhang,  
 Yan Zhao,  Ying Zhu,  B. R. Brooks,  G. K. L. Chan,  C. J. Cramer,  
 M. S. Gordon,  W. J. Hehre,  A. Klamt,  M. W. Schmidt,  C. D. Sherrill,  
 D. G. Truhlar,  A. Aspuru-Guzik,  R. Baer,  A. T. Bell,  N. A. Besley,  
 Jeng-Da Chai,  A. Dreuw,  B. D. Dunietz,  T. R. Furlani,  Chao-Ping Hsu,  
 Yousung Jung,  Jing Kong,  D. S. Lambrecht,  WanZhen Liang,  C. Ochsenfeld,  
 V. A. Rassolov,  L. V. Slipchenko,  J. E. Subotnik,  T. Van Voorhis,  
 J. M. Herbert,  A. I. Krylov,  P. M. W. Gill,  M. Head-Gordon

 Contributors to earlier versions of Q-Chem not listed above: 
 R. D. Adamson,  B. Austin,  J. Baker,  G. J. O. Beran,  K. Brandhorst,  
 S. T. Brown,  E. F. C. Byrd,  A. K. Chakraborty,  C.-L. Cheng,  
 Siu Hung Chien,  D. M. Chipman,  D. L. Crittenden,  H. Dachsel,  
 R. A. DiStasio Jr.,  R. J. Doerksen,  A. D. Dutoi,  L. Fusti-Molnar,  
 W. A. Goddard III,  A. Golubeva-Zadorozhnaya,  S. R. Gwaltney,  G. Hawkins,  
 A. Heyden,  S. Hirata,  G. Kedziora,  F. J. Keil,  C. Kelley,  Jihan Kim,  
 R. A. King,  R. Z. Khaliullin,  P. P. Korambath,  W. Kurlancheek,  
 A. M. Lee,  M. S. Lee,  S. V. Levchenko,  Ching Yeh Lin,  D. Liotard,  
 R. C. Lochan,  I. Lotan,  P. E. Maslen,  N. Nair,  D. P. O'Neill,  
 D. Neuhauser,  E. Neuscamman,  C. M. Oana,  R. Olson,  B. Peters,  
 R. Peverati,  P. A. Pieniazek,  Y. M. Rhee,  J. Ritchie,  M. A. Rohrdanz,  
 E. Rosta,  N. J. Russ,  H. F. Schaefer III,  N. E. Schultz,  N. Shenvi,  
 A. C. Simmonett,  A. Sodt,  D. Stuck,  K. S. Thanthiriwatte,  V. Vanovschi,  
 Tao Wang,  A. Warshel,  C. F. Williams,  Q. Wu,  X. Xu,  W. Zhang

 Please cite Q-Chem as follows:
 Y. Shao et al., Mol. Phys. 113, 184-215 (2015)
 DOI: 10.1080/00268976.2014.952696

 Q-Chem 5.0.1 for Intel X86 EM64T Linux

 Parts of Q-Chem use Armadillo 5.200.1 (Boston Tea Smuggler).
 http://arma.sourceforge.net/

 Q-Chem begins on Tue Jan 16 03:40:44 2018  

Host: vega02.cac.cornell.edu
0

     Scratch files written to /scratch/jj585/SOT1001/1026r.save//
 Parallel job on  1  processors

Checking the input file for inconsistencies... 	...done.

--------------------------------------------------------------
User input:
--------------------------------------------------------------
$molecule
0  1
O -1.3504916794 -0.9690596702 0.7149105397
C -2.4173259288 -1.4159646553 0.2335828601
C -3.8785779626 -0.8781947705 0.4478442048
C -3.9552724424 0.5314082116 1.1730231296
C -2.5460436523 1.1908000821 1.3791839048
O -2.0226445456 1.5306051983 0.090102184
C -0.747691081 2.2624969351 0.236671907
C -0.0578710541 2.2179826591 -1.1716111686
O 0.6409850918 0.9218418851 -1.3393393137
C 1.8954077329 0.9142937812 -0.6545067614
C 2.4531478678 -0.5459436311 -0.7879500419
C 4.0044430644 -0.6862964057 -0.5367347994
C 4.8286427905 0.6415952304 -0.698149465
O 4.6063989086 1.5805203356 -1.4920355992
O -2.4862516905 -2.5394152294 -0.6458500244
O 5.9460864174 0.6037960149 0.1975323566
O 2.3546843234 1.875645971 -0.0029417702
C 6.7467420641 1.8408402208 0.0534940536
C 1.8830881395 -1.3658565542 0.4542532876
C 2.2579247831 -2.8940956301 0.2955091263
C 3.7726965404 -2.8939809887 0.7212579647
C 4.0220421443 -1.3476270065 0.9116961237
O 2.7637118466 -0.8910367799 1.5480514955
H 2.1366719423 -0.967044609 -1.7579851561
H 4.4268818252 -1.4001313637 -1.2696140753
H 0.8109802934 -1.1657866613 0.6763317245
H 1.647293679 -3.5138745315 0.9711503502
H 2.1088592349 -3.2483599984 -0.7371055965
H 3.9216337972 -3.4259411495 1.6747041059
H 4.4330023659 -3.3384572594 -0.0403522017
H 4.8985997087 -1.0697846972 1.5273789168
O -1.9949194274 1.4653105151 2.4667371057
C -1.1266983128 -3.0601437504 -0.9187509227
C -4.6504580562 -0.5732636383 -0.9095518902
C -6.1960165804 -0.5506854174 -0.5875908621
C -6.3198743594 0.8126551486 0.1893909907
C -4.8311883593 1.3416001396 0.1240392932
O -4.3403329143 0.846801855 -1.1829488079
H -4.423392628 -1.6465453296 1.0281200821
H -4.4456726602 0.452666783 2.1585299229
H -0.6462780957 -3.4473351349 0.0024313603
H -4.3457208229 -1.2153383036 -1.7585238077
H -6.7809396959 -0.5363695593 -1.5211014081
H -6.5121026576 -1.4177601868 0.0138905243
H -6.9999369846 1.5108139617 -0.3238237104
H -6.6663970308 0.6803892909 1.2268938173
H -4.7198854603 2.4412793752 0.1867314271
H -0.4734167877 -2.2782179335 -1.3566627752
H -1.2561077241 -3.8860761362 -1.6419803937
H 7.5777023299 1.752442826 0.7773451188
H 6.1452918014 2.743482231 0.2852490431
H 7.1570056358 1.9455531836 -0.9718763114
H -0.8251644275 2.2645965929 -1.970231156
H 0.6524699946 3.0665519043 -1.2725046169
H -0.0978850952 1.7970428001 1.0080173269
H -0.9404171844 3.3163300454 0.5392003738
$end

$rem
JOBTYPE                   OPT
METHOD                    B3LYP
DFT_D                     d3_op
BASIS                     STO-3G
GEOM_OPT_MAX_CYCLES       100
GEOM_OPT_TOL_GRADIENT     300
GEOM_OPT_TOL_DISPLACEMENT 1200
GEOM_OPT_TOL_ENERGY       100
SYMMETRY                  False
THRESH                    12
SCF_CONVERGENCE           8
MAX_SUB_FILE_NUM          128
MEM_STATIC                400
MEM_TOTAL                 4000
$end
--------------------------------------------------------------
 Adding empirical dispersion correction 
 ----------------------------------------------------------------
 Doing -D3(op) with
 s6 =   1.00000
 s8 =   0.78311
 a1 =   0.30000
 a2 =   4.25000
 n  =  10.00000
 -D3 energy without 3body term =     -0.0702777589 hartrees
 ----------------------------------------------------------------
             Standard Nuclear Orientation (Angstroms)
    I     Atom           X                Y                Z
 ----------------------------------------------------------------
    1      O      -1.3581604593    -0.9901159854     0.6625156897
    2      C      -2.4189546908    -1.4197395768     0.1529326399
    3      C      -3.8835247832    -0.8933525123     0.3727347825
    4      C      -3.9708293510     0.4866657353     1.1516279921
    5      C      -2.5652615621     1.1399838871     1.3981645421
    6      O      -2.0292270966     1.5308822620     0.1289083279
    7      C      -0.7574653934     2.2587378810     0.3173304687
    8      C      -0.0529419490     2.2705694167    -1.0843118331
    9      O       0.6504446507     0.9832221200    -1.2952567986
   10      C       1.8976910765     0.9511127704    -0.5981383695
   11      C       2.4599708252    -0.5017964777    -0.7827207850
   12      C       4.0088719315    -0.6491203401    -0.5209463991
   13      C       4.8318088984     0.6855272822    -0.6216764973
   14      O       4.6157866230     1.6543939328    -1.3805306862
   15      O      -2.4762818156    -2.5080487365    -0.7704258631
   16      O       5.9399572827     0.6146992924     0.2835005682
   17      O       2.3480700662     1.8870532291     0.0952909207
   18      C       6.7393688459     1.8578477182     0.1963340110
   19      C       1.8788125314    -1.3706832924     0.4204355423
   20      C       2.2586104744    -2.8908763644     0.2059980510
   21      C       3.7688689325    -2.9047326996     0.6472722910
   22      C       4.0128489108    -1.3665725924     0.9006254350
   23      O       2.7469765438    -0.9374549882     1.5411277102
   24      H       2.1545185751    -0.8851891049    -1.7717405948
   25      H       4.4404645433    -1.3329904410    -1.2767085240
   26      H       0.8040195632    -1.1813535715     0.6389220639
   27      H       1.6423387090    -3.5376916261     0.8504562915
   28      H       2.1210642360    -3.2047390472    -0.8411830197
   29      H       3.9090421933    -3.4733181203     1.5806990636
   30      H       4.4380267543    -3.3179053862    -0.1241738345
   31      H       4.8823485470    -1.1114748484     1.5358500708
   32      O      -2.0260768055     1.3727170176     2.5013331339
   33      C      -1.1128319720    -3.0152938068    -1.0492186939
   34      C      -4.6419099414    -0.5369238246    -0.9797135809
   35      C      -6.1907786429    -0.5296956650    -0.6733260311
   36      C      -6.3256817138     0.8019856528     0.1550247866
   37      C      -4.8375532516     1.3357188346     0.1260036664
   38      O      -4.3320549308     0.8932967440    -1.1941161949
   39      H      -4.4326681905    -1.6847783520     0.9167865756
   40      H      -4.4712789173     0.3685645946     2.1281107507
   41      H      -0.6411745394    -3.4373721074    -0.1388963739
   42      H      -4.3269613572    -1.1447558591    -1.8499006763
   43      H      -6.7659919864    -0.4799097854    -1.6116398965
   44      H      -6.5112116768    -1.4201942891    -0.1095496629
   45      H      -7.0018908271     1.5184802068    -0.3375978084
   46      H      -6.6826858990     0.6286220437     1.1828756536
   47      H      -4.7293059356     2.4322994213     0.2328053314
   48      H      -0.4567379250    -2.2156799846    -1.4493559971
   49      H      -1.2329123555    -3.8125305271    -1.8055032189
   50      H       7.5629472861     1.7426745228     0.9248414682
   51      H       6.1335746299     2.7496660100     0.4568889851
   52      H       7.1600442289     2.0033178914    -0.8198037942
   53      H      -0.8119884487     2.3470288222    -1.8884935504
   54      H       0.6565583223     3.1236930781    -1.1445035335
   55      H      -0.1147029234     1.7646183028     1.0766534418
   56      H      -0.9556241277     3.2995868972     0.6587942153
 ----------------------------------------------------------------
 Molecular Point Group                 C1    NOp =  1
 Largest Abelian Subgroup              C1    NOp =  1
 Nuclear Repulsion Energy =  3214.0166688273 hartrees
 There are      113 alpha and      113 beta electrons
 Requested basis set is STO-3G
 There are 86 shells and 176 basis functions

 Total QAlloc Memory Limit   4000 MB
 Mega-Array Size       392 MB
 MEM_STATIC part       400 MB
 A cutoff of  1.0D-12 yielded   2314 shell pairs
 There are     11047 function pairs
 
 -------------------------------------------------------
 OpenMP Integral Computing Module                       
 Release: version 1.0, May 2013, Q-Chem Inc. Pittsburgh 
 -------------------------------------------------------
 Integral Job Info:
 Integral job number is                      11
 Integral operator is                         1
 short-range coefficients                     0
 long-range coefficients              100000000
 Omega coefficients                           0
 if combine SR and LR in K                    0
 Integral screening is                        0
 Integral computing path is                   2
 max size of driver memory is            800000
 size of driver memory is                 45569
 size of scratch memory is              1046100
 max col of scratch BK array                289
 max len of scratch array in speh3           22
 max len of scratch index in speh4            8
 max int batch size is                      520
 min int batch size is                       52
 fixed nKL is                                52
 max L of basis functions is                  1
 order of int derivative is                   0
 number of shells is                         86
 number of basis is                         176
 number of cartesian basis is               176
 number of contracted shell pairs          2314
 number of primitive shell pairs          11628
 maxK2 (contraction) of shell pair            9
 max number of K2 of shell pair               1
 max number of CS2 of shell pair            369
 max number of PS2 of shell pair           1288
 mem total for path MDJ                   49782
 -------------------------------------------------------
 Smallest overlap matrix eigenvalue = 2.13E-01

 Scale SEOQF with 1.000000e-02/1.000000e-01/1.000000e-01

 Standard Electronic Orientation quadrupole field applied
 Nucleus-field energy     =     0.0000000324 hartrees
 Guess from superposition of atomic densities
 Warning:  Energy on first SCF cycle will be non-variational
 A restricted hybrid HF-DFT SCF calculation will be
 performed using Pulay DIIS extrapolation
 Exchange:     0.2000 Hartree-Fock + 0.0800 Slater + 0.7200 B88
 Correlation:  0.1900 VWN1RPA + 0.8100 LYP
 Using SG-1 standard quadrature grid
 Dispersion:   Grimme D3
 SCF converges when DIIS error is below 1.0E-08
 using 48 threads for integral computing
 -------------------------------------------------------
 OpenMP Integral computing Module                
 Release: version 1.0, May 2013, Q-Chem Inc. Pittsburgh 
 -------------------------------------------------------
 -------------------------------------------------------
 OpenMP BLAS3 based DFT computing Module                
 Release: version 1.0, May 2013, Q-Chem Inc. Pittsburgh 
 -------------------------------------------------------
 ---------------------------------------
  Cycle       Energy         DIIS Error
 ---------------------------------------
    1   -1507.6453645432      7.47E-02
    2   -1509.7484185121      1.03E-02
    3   -1507.5279938298      2.63E-02
    4   -1510.1926995396      4.53E-03
    5   -1510.2764406240      1.44E-03
    6   -1510.2852631150      3.64E-04
    7   -1510.2857716041      1.55E-04
    8   -1510.2858706799      3.73E-05
    9   -1510.2858765567      8.77E-06
   10   -1510.2858768975      2.27E-06
   11   -1510.2858769205      7.50E-07
   12   -1510.2858769221      4.60E-07
   13   -1510.2858769229      1.00E-07
   14   -1510.2858769230      2.48E-08
   15   -1510.2858769230      9.67E-09 Convergence criterion met
 ---------------------------------------
 SCF time:  CPU 111.91 s  wall 2.39 s
 SCF   energy in the final basis set = -1510.28587692
 Total energy in the final basis set = -1510.28587692
 
 --------------------------------------------------------------
 
                    Orbital Energies (a.u.)
 --------------------------------------------------------------
 
 Alpha MOs
 -- Occupied --
-18.945 -18.928 -18.923 -18.919 -18.889 -18.889 -18.880 -18.867
-18.866 -18.861 -10.109 -10.093 -10.091 -10.090 -10.071 -10.067
-10.061 -10.061 -10.061 -10.059 -10.051 -10.048 -10.041 -10.034
-10.031 -10.030 -10.021 -10.020 -10.017 -10.015  -1.021  -1.007
 -1.003  -0.998  -0.971  -0.962  -0.945  -0.933  -0.927  -0.922
 -0.764  -0.757  -0.725  -0.719  -0.712  -0.703  -0.690  -0.668
 -0.655  -0.611  -0.596  -0.574  -0.546  -0.538  -0.538  -0.532
 -0.516  -0.506  -0.487  -0.467  -0.464  -0.454  -0.446  -0.440
 -0.434  -0.430  -0.418  -0.417  -0.414  -0.408  -0.404  -0.403
 -0.391  -0.383  -0.369  -0.365  -0.360  -0.355  -0.349  -0.344
 -0.341  -0.335  -0.332  -0.330  -0.325  -0.320  -0.316  -0.314
 -0.306  -0.306  -0.301  -0.297  -0.290  -0.284  -0.283  -0.275
 -0.267  -0.261  -0.249  -0.243  -0.238  -0.235  -0.226  -0.187
 -0.173  -0.168  -0.164  -0.160  -0.151  -0.144  -0.141  -0.140
 -0.136
 -- Virtual --
  0.091   0.107   0.112   0.113   0.237   0.246   0.248   0.250
  0.259   0.265   0.284   0.294   0.309   0.316   0.326   0.330
  0.338   0.343   0.344   0.349   0.355   0.364   0.367   0.374
  0.378   0.378   0.394   0.399   0.403   0.405   0.409   0.410
  0.410   0.417   0.421   0.426   0.427   0.428   0.431   0.435
  0.436   0.438   0.439   0.445   0.448   0.452   0.464   0.466
  0.473   0.478   0.481   0.488   0.498   0.504   0.514   0.535
  0.544   0.552   0.559   0.637   0.644   0.656   0.671
 --------------------------------------------------------------
 
          Ground-State Mulliken Net Atomic Charges

     Atom                 Charge (a.u.)
  ----------------------------------------
      1 O                    -0.208401
      2 C                     0.217947
      3 C                    -0.077640
      4 C                    -0.081200
      5 C                     0.212914
      6 O                    -0.173940
      7 C                    -0.047739
      8 C                    -0.047462
      9 O                    -0.176109
     10 C                     0.214229
     11 C                    -0.078183
     12 C                    -0.080469
     13 C                     0.213448
     14 O                    -0.213196
     15 O                    -0.168729
     16 O                    -0.171738
     17 O                    -0.211520
     18 C                    -0.127808
     19 C                     0.015823
     20 C                    -0.145748
     21 C                    -0.142800
     22 C                     0.023934
     23 O                    -0.189764
     24 H                     0.082682
     25 H                     0.081414
     26 H                     0.099633
     27 H                     0.073996
     28 H                     0.069378
     29 H                     0.076926
     30 H                     0.071518
     31 H                     0.091856
     32 O                    -0.216145
     33 C                    -0.129012
     34 C                     0.025377
     35 C                    -0.143280
     36 C                    -0.144599
     37 C                     0.026881
     38 O                    -0.186040
     39 H                     0.085377
     40 H                     0.084267
     41 H                     0.089309
     42 H                     0.088651
     43 H                     0.078068
     44 H                     0.073509
     45 H                     0.077962
     46 H                     0.073991
     47 H                     0.083580
     48 H                     0.093868
     49 H                     0.091808
     50 H                     0.089069
     51 H                     0.092823
     52 H                     0.086930
     53 H                     0.097212
     54 H                     0.093751
     55 H                     0.101470
     56 H                     0.081919
  ----------------------------------------
  Sum of atomic charges =    -0.000000

 -----------------------------------------------------------------
                    Cartesian Multipole Moments
 -----------------------------------------------------------------
    Charge (ESU x 10^10)
                -0.0000
    Dipole Moment (Debye)
         X      -1.4107      Y      -2.6420      Z      -1.5787
       Tot       3.3856
    Quadrupole Moments (Debye-Ang)
        XX    -137.3630     XY      -2.1840     YY    -150.7821
        XZ      -3.7413     YZ       1.9966     ZZ    -167.9970
    Octopole Moments (Debye-Ang^2)
       XXX      23.5906    XXY      10.7180    XYY       7.8807
       YYY      20.3029    XXZ      24.4776    XYZ      11.4306
       YYZ      -1.3659    XZZ       7.8885    YZZ      -9.4938
       ZZZ     -17.8112
    Hexadecapole Moments (Debye-Ang^3)
      XXXX  -12502.8800   XXXY     239.4910   XXYY   -2687.1783
      XYYY      18.8715   YYYY   -2700.2158   XXXZ     -38.1445
      XXYZ      60.1158   XYYZ      14.9215   YYYZ       3.5524
      XXZZ   -2470.6206   XYZZ      29.6390   YYZZ    -623.1588
      XZZZ      30.9644   YZZZ     -12.3780   ZZZZ   -1031.2111
 -----------------------------------------------------------------
 Calculating analytic gradient of the SCF energy
 Gradient of SCF Energy
            1           2           3           4           5           6
    1   0.0002779  -0.0004487   0.0001921  -0.0026956   0.0007982   0.0019423
    2   0.0013951  -0.0023790   0.0021209   0.0046107  -0.0023752  -0.0025981
    3  -0.0016818   0.0031354  -0.0034047   0.0031065  -0.0008737  -0.0025337
            7           8           9          10          11          12
    1   0.0014484  -0.0054275   0.0026999   0.0000911   0.0011094  -0.0008697
    2  -0.0045610   0.0027806  -0.0000626   0.0005570   0.0000490   0.0011194
    3   0.0030253  -0.0069216   0.0085385  -0.0004116  -0.0026773   0.0022603
           13          14          15          16          17          18
    1   0.0023723  -0.0016086   0.0000208   0.0000702   0.0001199  -0.0000520
    2  -0.0016565   0.0010340  -0.0000590   0.0000131   0.0000321  -0.0000165
    3  -0.0032894   0.0017427  -0.0000533  -0.0000212  -0.0000417  -0.0000633
           19          20          21          22          23          24
    1   0.0000662   0.0000398  -0.0000463  -0.0000292   0.0000679   0.0000474
    2   0.0001298  -0.0002126   0.0000126   0.0000880  -0.0000534   0.0001252
    3   0.0000145  -0.0000431  -0.0000043   0.0001418   0.0000227   0.0000721
           25          26          27          28          29          30
    1   0.0000108   0.0000150  -0.0000134  -0.0000341   0.0000560  -0.0000490
    2  -0.0000349  -0.0000261  -0.0000024   0.0000777  -0.0000256   0.0000208
    3   0.0000043   0.0000165  -0.0000484   0.0000524  -0.0000067   0.0000384
           31          32          33          34          35          36
    1  -0.0000051  -0.0000098   0.0000228  -0.0000390  -0.0000969  -0.0000554
    2   0.0000336  -0.0000385   0.0000329   0.0000185   0.0001282  -0.0000458
    3   0.0000120   0.0000224  -0.0000302  -0.0002252  -0.0000712   0.0000984
           37          38          39          40          41          42
    1   0.0001326  -0.0000069  -0.0000641   0.0000298  -0.0000083   0.0000279
    2  -0.0000138  -0.0000614   0.0000480  -0.0000374  -0.0000400   0.0000079
    3   0.0000455   0.0000810  -0.0000287  -0.0000442   0.0000185  -0.0000032
           43          44          45          46          47          48
    1   0.0000139  -0.0000218   0.0000107   0.0000076  -0.0000260  -0.0000127
    2  -0.0000250  -0.0000097   0.0000077  -0.0000415  -0.0000302  -0.0000015
    3   0.0000161   0.0000126  -0.0000261  -0.0000244  -0.0000017   0.0000496
           49          50          51          52          53          54
    1  -0.0000070  -0.0000116  -0.0000085   0.0000044  -0.0000144  -0.0000407
    2  -0.0000093  -0.0000180   0.0000302  -0.0000141  -0.0000119  -0.0000059
    3   0.0000304   0.0000170  -0.0000042  -0.0000245  -0.0000279   0.0000384
           55          56
    1   0.0000129  -0.0000057
    2   0.0000052  -0.0000111
    3  -0.0000052  -0.0000209
 Max gradient component =       8.539E-03
 RMS gradient           =       1.419E-03
 Gradient time:  CPU 31.07 s  wall 0.66 s
 Geometry Optimization Parameters
   NAtoms,    NIC,     NZ,  NCons,   NDum,   NFix, NCnnct, MaxDiis
       56     458       0       0       0       0       0       0


** GEOMETRY OPTIMIZATION IN DELOCALIZED INTERNAL COORDINATES **
   Searching for a Minimum

   Optimization Cycle:   1

                       Coordinates (Angstroms)
     ATOM                X               Y               Z
      1  O        -1.3581604593   -0.9901159854    0.6625156897
      2  C        -2.4189546908   -1.4197395768    0.1529326399
      3  C        -3.8835247832   -0.8933525123    0.3727347825
      4  C        -3.9708293510    0.4866657353    1.1516279921
      5  C        -2.5652615621    1.1399838871    1.3981645421
      6  O        -2.0292270966    1.5308822620    0.1289083279
      7  C        -0.7574653934    2.2587378810    0.3173304687
      8  C        -0.0529419490    2.2705694167   -1.0843118331
      9  O         0.6504446507    0.9832221200   -1.2952567986
     10  C         1.8976910765    0.9511127704   -0.5981383695
     11  C         2.4599708252   -0.5017964777   -0.7827207850
     12  C         4.0088719315   -0.6491203401   -0.5209463991
     13  C         4.8318088984    0.6855272822   -0.6216764973
     14  O         4.6157866230    1.6543939328   -1.3805306862
     15  O        -2.4762818156   -2.5080487365   -0.7704258631
     16  O         5.9399572827    0.6146992924    0.2835005682
     17  O         2.3480700662    1.8870532291    0.0952909207
     18  C         6.7393688459    1.8578477182    0.1963340110
     19  C         1.8788125314   -1.3706832924    0.4204355423
     20  C         2.2586104744   -2.8908763644    0.2059980510
     21  C         3.7688689325   -2.9047326996    0.6472722910
     22  C         4.0128489108   -1.3665725924    0.9006254350
     23  O         2.7469765438   -0.9374549882    1.5411277102
     24  H         2.1545185751   -0.8851891049   -1.7717405948
     25  H         4.4404645433   -1.3329904410   -1.2767085240
     26  H         0.8040195632   -1.1813535715    0.6389220639
     27  H         1.6423387090   -3.5376916261    0.8504562915
     28  H         2.1210642360   -3.2047390472   -0.8411830197
     29  H         3.9090421933   -3.4733181203    1.5806990636
     30  H         4.4380267543   -3.3179053862   -0.1241738345
     31  H         4.8823485470   -1.1114748484    1.5358500708
     32  O        -2.0260768055    1.3727170176    2.5013331339
     33  C        -1.1128319720   -3.0152938068   -1.0492186939
     34  C        -4.6419099414   -0.5369238246   -0.9797135809
     35  C        -6.1907786429   -0.5296956650   -0.6733260311
     36  C        -6.3256817138    0.8019856528    0.1550247866
     37  C        -4.8375532516    1.3357188346    0.1260036664
     38  O        -4.3320549308    0.8932967440   -1.1941161949
     39  H        -4.4326681905   -1.6847783520    0.9167865756
     40  H        -4.4712789173    0.3685645946    2.1281107507
     41  H        -0.6411745394   -3.4373721074   -0.1388963739
     42  H        -4.3269613572   -1.1447558591   -1.8499006763
     43  H        -6.7659919864   -0.4799097854   -1.6116398965
     44  H        -6.5112116768   -1.4201942891   -0.1095496629
     45  H        -7.0018908271    1.5184802068   -0.3375978084
     46  H        -6.6826858990    0.6286220437    1.1828756536
     47  H        -4.7293059356    2.4322994213    0.2328053314
     48  H        -0.4567379250   -2.2156799846   -1.4493559971
     49  H        -1.2329123555   -3.8125305271   -1.8055032189
     50  H         7.5629472861    1.7426745228    0.9248414682
     51  H         6.1335746299    2.7496660100    0.4568889851
     52  H         7.1600442289    2.0033178914   -0.8198037942
     53  H        -0.8119884487    2.3470288222   -1.8884935504
     54  H         0.6565583223    3.1236930781   -1.1445035335
     55  H        -0.1147029234    1.7646183028    1.0766534418
     56  H        -0.9556241277    3.2995868972    0.6587942153
   Point Group: c1    Number of degrees of freedom:   162


   Energy is  -1510.285876923


 Attempting to Generate Delocalized Internal Coordinates

162 Hessian modes will be used to form the next step
  Hessian Eigenvalues:
     0.002000    0.002000    0.002000    0.002000    0.002000    0.002689
     0.002751    0.004225    0.004284    0.004463    0.004568    0.004790
     0.004901    0.004988    0.005409    0.006760    0.006817    0.011332
     0.011388    0.011782    0.011890    0.021648    0.021749    0.025719
     0.025992    0.030826    0.030972    0.035026    0.035435    0.039370
     0.040703    0.041982    0.042003    0.044633    0.046247    0.047498
     0.047822    0.049875    0.050917    0.051075    0.052885    0.053345
     0.054172    0.054491    0.055091    0.055251    0.055914    0.056813
     0.057221    0.058602    0.059146    0.060424    0.060474    0.063276
     0.063756    0.064180    0.064689    0.069412    0.069492    0.072892
     0.072939    0.091829    0.092244    0.092899    0.092998    0.096003
     0.096747    0.096812    0.097391    0.102643    0.102699    0.106616
     0.110237    0.110775    0.111362    0.121533    0.122355    0.133643
     0.136030    0.157121    0.157813    0.160000    0.160000    0.160000
     0.160000    0.160000    0.160000    0.163965    0.164109    0.217537
     0.219281    0.219282    0.220844    0.227166    0.230993    0.238351
     0.238896    0.239254    0.239385    0.243765    0.245333    0.249114
     0.249443    0.249884    0.249992    0.250000    0.250000    0.250000
     0.250000    0.250000    0.250000    0.250000    0.250000    0.252859
     0.253084    0.258826    0.259249    0.260602    0.261116    0.261136
     0.291795    0.293404    0.306754    0.307806    0.322628    0.322848
     0.324701    0.325158    0.326686    0.326901    0.327027    0.327341
     0.327625    0.328989    0.329118    0.329353    0.329602    0.329946
     0.330743    0.330889    0.332616    0.332879    0.334709    0.334812
     0.334828    0.334929    0.335013    0.335065    0.335076    0.335169
     0.343344    0.344301    0.345049    0.348712    0.406174    0.406774
     0.411037    0.412217    0.822068    0.833306    0.834252    0.836567

 Minimum Search - Taking Simple RFO Step
 Searching for Lamda that Minimizes Along All modes
 Value Taken    Lamda =  -0.01726195
 Calculated Step too Large.  Step scaled by  0.367216
 Step Taken.  Stepsize is  0.300000

                             Maximum     Tolerance    Cnvgd?
         Gradient           0.012914      0.000300      NO
         Displacement       0.155200      0.001200      NO
         Energy change     *********      0.000001      NO


 New Cartesian Coordinates Obtained by Inverse Iteration

 Displacement from previous Coordinates is:  6.703122
 Adding empirical dispersion correction 
 ----------------------------------------------------------------
 Doing -D3(op) with
 s6 =   1.00000
 s8 =   0.78311
 a1 =   0.30000
 a2 =   4.25000
 n  =  10.00000
 -D3 energy without 3body term =     -0.0752439654 hartrees
 ----------------------------------------------------------------
             Standard Nuclear Orientation (Angstroms)
    I     Atom           X                Y                Z
 ----------------------------------------------------------------
    1      O      -0.9637952102    -0.5723163782     0.6672799723
    2      C      -1.9520712500    -1.1645676420     0.1752755745
    3      C      -3.4773411377    -0.8807390607     0.4269211213
    4      C      -3.7705787974     0.4812795564     1.1869274041
    5      C      -2.4841589753     1.3570817868     1.3903401006
    6      O      -2.0242652062     1.7788746308     0.1012366350
    7      C      -0.7558905657     2.5245055739     0.2348725295
    8      C      -0.0930116642     2.5114413956    -1.1869927890
    9      O       0.5294221883     1.1886039885    -1.4304079497
   10      C       1.7606945279     1.0532142778    -0.7175247264
   11      C       2.1793825835    -0.4516669358    -0.8633042133
   12      C       3.6932812222    -0.7521933987    -0.5342732009
   13      C       4.6516875023     0.4904480252    -0.6117308940
   14      O       4.5836439085     1.4525495962    -1.4060520931
   15      O      -1.8527979768    -2.2598117890    -0.7362056049
   16      O       5.7023494719     0.3233375550     0.3477443840
   17      O       2.2697996023     1.9448071534    -0.0065273366
   18      C       6.6353978352     1.4706648863     0.2755692750
   19      C       1.4631616584    -1.2378143131     0.3238287288
   20      C       1.6936733062    -2.7919797201     0.1437461175
   21      C       3.1749130364    -2.9524780998     0.6494462259
   22      C       3.5642016075    -1.4432318201     0.8946086280
   23      O       2.3237269368    -0.8771360469     1.4753900217
   24      H       1.8757516406    -0.8175996812    -1.8595482178
   25      H       4.0852816588    -1.4887228354    -1.2615695843
   26      H       0.4053182209    -0.9364485834     0.4939138674
   27      H       0.9882845831    -3.3620897136     0.7689796422
   28      H       1.5681997742    -3.1072972817    -0.9045494723
   29      H       3.2171484081    -3.5170227860     1.5948120513
   30      H       3.8297221249    -3.4441714824    -0.0875397247
   31      H       4.4280915989    -1.2677583029     1.5635678815
   32      O      -1.9402750453     1.6582599685     2.4744721551
   33      C      -0.4314448567    -2.5486965807    -1.0367521047
   34      C      -4.3141162486    -0.6756514389    -0.9107404311
   35      C      -5.8361691195    -0.9142886806    -0.5655037402
   36      C      -6.1672607376     0.3929471061     0.2464972895
   37      C      -4.7868233225     1.1603677168     0.1721904776
   38      O      -4.2460180333     0.7817732705    -1.1536569428
   39      H      -3.8776976920    -1.7418812471     0.9944375800
   40      H      -4.2226165239     0.3004596999     2.1773516758
   41      H       0.1173901906    -2.8787867037    -0.1317148783
   42      H      -3.9243997849    -1.2399464213    -1.7799708097
   43      H      -6.4328534102    -0.9756779543    -1.4896281612
   44      H      -5.9946408694    -1.8344989254     0.0189489697
   45      H      -6.9619804027     0.9810427580    -0.2391509142
   46      H      -6.4679905796     0.1829676945     1.2854754567
   47      H      -4.8557267262     2.2617629279     0.2607137633
   48      H       0.0824538342    -1.6607491393    -1.4579839908
   49      H      -0.4373005474    -3.3647557221    -1.7824046437
   50      H       7.4069429697     1.2854785968     1.0454287198
   51      H       6.1187002252     2.4286234910     0.4889136083
   52      H       7.1160503651     1.5450223651    -0.7214708459
   53      H      -0.8711240574     2.6235658731    -1.9684295031
   54      H       0.6505186714     3.3335275069    -1.2657976723
   55      H      -0.0889771839     2.0285628512     0.9718457019
   56      H      -0.9354980153     3.5674840867     0.5801071396
 ----------------------------------------------------------------
 Molecular Point Group                 C1    NOp =  1
 Largest Abelian Subgroup              C1    NOp =  1
 Nuclear Repulsion Energy =  3309.1208731580 hartrees
 There are      113 alpha and      113 beta electrons
 Applying Cartesian multipole field
    Component          Value
    ---------          -----
     (2,0,0)        1.00000E-12
     (0,2,0)        2.00000E-11
     (0,0,2)       -3.00000E-11
 Nucleus-field energy     =     0.0000000290 hartrees
 Requested basis set is STO-3G
 There are 86 shells and 176 basis functions
 A cutoff of  1.0D-12 yielded   2444 shell pairs
 There are     11585 function pairs
 Smallest overlap matrix eigenvalue = 2.12E-01
 Guess MOs from SCF MO coefficient file
 Reading MOs from coefficient file
 Reading MOs from coefficient file
 A restricted hybrid HF-DFT SCF calculation will be
 performed using Pulay DIIS extrapolation
 Exchange:     0.2000 Hartree-Fock + 0.0800 Slater + 0.7200 B88
 Correlation:  0.1900 VWN1RPA + 0.8100 LYP
 Using SG-1 standard quadrature grid
 Dispersion:   Grimme D3
 SCF converges when DIIS error is below 1.0E-08
 Geometry optimization detected.  Setting ReadMinima to 0
 Setting SaveMinima to 0
 using 48 threads for integral computing
 -------------------------------------------------------
 OpenMP Integral computing Module                
 Release: version 1.0, May 2013, Q-Chem Inc. Pittsburgh 
 -------------------------------------------------------
 -------------------------------------------------------
 OpenMP BLAS3 based DFT computing Module                
 Release: version 1.0, May 2013, Q-Chem Inc. Pittsburgh 
 -------------------------------------------------------
 ---------------------------------------
  Cycle       Energy         DIIS Error
 ---------------------------------------
    1   -1510.1875378179      8.35E-03
    2   -1510.1956395449      1.40E-03
    3   -1510.1853335829      2.14E-03
    4   -1510.2038412011      6.80E-04
    5   -1510.2058857015      1.05E-04
    6   -1510.2059280094      5.11E-05
    7   -1510.2059381310      2.43E-05
    8   -1510.2059405202      7.60E-06
    9   -1510.2059407870      1.42E-06
   10   -1510.2059407975      4.83E-07
   11   -1510.2059407988      2.10E-07
   12   -1510.2059407990      9.93E-08
   13   -1510.2059407990      4.48E-08
   14   -1510.2059407991      5.73E-09 Convergence criterion met
 ---------------------------------------
 SCF time:  CPU 105.40 s  wall 2.20 s
 SCF   energy in the final basis set = -1510.20594080
 Total energy in the final basis set = -1510.20594080
 
 --------------------------------------------------------------
 
                    Orbital Energies (a.u.)
 --------------------------------------------------------------
 
 Alpha MOs
 -- Occupied --
-18.954 -18.924 -18.922 -18.921 -18.920 -18.894 -18.867 -18.864
-18.864 -18.862 -10.131 -10.094 -10.088 -10.088 -10.067 -10.067
-10.065 -10.062 -10.055 -10.051 -10.045 -10.042 -10.040 -10.026
-10.024 -10.024 -10.022 -10.015 -10.007 -10.005  -1.039  -1.007
 -1.001  -0.998  -0.976  -0.963  -0.949  -0.932  -0.926  -0.921
 -0.771  -0.759  -0.733  -0.725  -0.718  -0.705  -0.691  -0.666
 -0.647  -0.610  -0.606  -0.574  -0.559  -0.543  -0.539  -0.534
 -0.514  -0.509  -0.491  -0.472  -0.469  -0.458  -0.449  -0.440
 -0.436  -0.431  -0.425  -0.419  -0.413  -0.409  -0.404  -0.401
 -0.391  -0.386  -0.371  -0.367  -0.365  -0.353  -0.348  -0.345
 -0.343  -0.336  -0.334  -0.331  -0.329  -0.324  -0.316  -0.313
 -0.308  -0.306  -0.298  -0.295  -0.288  -0.282  -0.280  -0.270
 -0.262  -0.249  -0.248  -0.244  -0.240  -0.237  -0.214  -0.194
 -0.172  -0.169  -0.166  -0.162  -0.149  -0.146  -0.145  -0.136
 -0.125
 -- Virtual --
  0.072   0.107   0.110   0.117   0.231   0.240   0.252   0.257
  0.261   0.269   0.279   0.297   0.304   0.319   0.321   0.332
  0.337   0.340   0.341   0.348   0.356   0.360   0.366   0.371
  0.376   0.382   0.393   0.397   0.399   0.400   0.405   0.408
  0.413   0.418   0.422   0.428   0.431   0.431   0.437   0.439
  0.440   0.447   0.448   0.454   0.459   0.462   0.471   0.473
  0.479   0.483   0.484   0.498   0.515   0.525   0.531   0.547
  0.548   0.591   0.609   0.647   0.651   0.663   0.683
 --------------------------------------------------------------
 
          Ground-State Mulliken Net Atomic Charges

     Atom                 Charge (a.u.)
  ----------------------------------------
      1 O                    -0.199248
      2 C                     0.235530
      3 C                    -0.075366
      4 C                    -0.081069
      5 C                     0.211917
      6 O                    -0.174757
      7 C                    -0.048694
      8 C                    -0.047378
      9 O                    -0.179199
     10 C                     0.214740
     11 C                    -0.083210
     12 C                    -0.080902
     13 C                     0.212914
     14 O                    -0.215526
     15 O                    -0.164573
     16 O                    -0.171710
     17 O                    -0.212115
     18 C                    -0.127892
     19 C                    -0.029844
     20 C                    -0.154297
     21 C                    -0.145570
     22 C                     0.022741
     23 O                    -0.197262
     24 H                     0.075239
     25 H                     0.078757
     26 H                     0.140448
     27 H                     0.078456
     28 H                     0.074986
     29 H                     0.073417
     30 H                     0.068577
     31 H                     0.087235
     32 O                    -0.212598
     33 C                    -0.144264
     34 C                     0.026120
     35 C                    -0.143117
     36 C                    -0.144549
     37 C                     0.026914
     38 O                    -0.184583
     39 H                     0.089239
     40 H                     0.085531
     41 H                     0.119785
     42 H                     0.090378
     43 H                     0.079486
     44 H                     0.074018
     45 H                     0.078955
     46 H                     0.074551
     47 H                     0.085244
     48 H                     0.090021
     49 H                     0.079864
     50 H                     0.088302
     51 H                     0.092140
     52 H                     0.086211
     53 H                     0.095717
     54 H                     0.093635
     55 H                     0.103535
     56 H                     0.083118
  ----------------------------------------
  Sum of atomic charges =    -0.000000

 -----------------------------------------------------------------
                    Cartesian Multipole Moments
 -----------------------------------------------------------------
    Charge (ESU x 10^10)
                -0.0000
    Dipole Moment (Debye)
         X      -2.4443      Y      -2.9200      Z      -1.2943
       Tot       4.0220
    Quadrupole Moments (Debye-Ang)
        XX    -141.0041     XY      -1.3625     YY    -151.9937
        XZ      -3.9095     YZ       0.6865     ZZ    -168.1722
    Octopole Moments (Debye-Ang^2)
       XXX      12.3942    XXY       0.8561    XYY       4.2573
       YYY      18.7955    XXZ      31.1419    XYZ      14.1705
       YYZ      -1.5968    XZZ       6.8192    YZZ     -13.5569
       ZZZ     -11.6852
    Hexadecapole Moments (Debye-Ang^3)
      XXXX  -11102.9996   XXXY     246.3319   XXYY   -2452.4050
      XYYY      44.1257   YYYY   -2596.2673   XXXZ      64.9943
      XXYZ      68.9621   XYYZ      32.6816   YYYZ     -11.4237
      XXZZ   -2221.5653   XYZZ      41.2600   YYZZ    -611.1615
      XZZZ     102.2403   YZZZ     -17.1812   ZZZZ   -1039.7183
 -----------------------------------------------------------------
 Calculating analytic gradient of the SCF energy
 Gradient of SCF Energy
            1           2           3           4           5           6
    1   0.0333234   0.0127339  -0.0023477  -0.0015682  -0.0018933   0.0037773
    2  -0.0175104   0.0193108  -0.0013659   0.0010984   0.0009476  -0.0028296
    3  -0.0134750   0.0183175  -0.0050350   0.0017625   0.0001109  -0.0027123
            7           8           9          10          11          12
    1  -0.0004207  -0.0027462   0.0030394   0.0000539  -0.0035383  -0.0014145
    2  -0.0031097   0.0030839  -0.0013744   0.0038903   0.0022854   0.0003679
    3   0.0014853  -0.0049663   0.0083052  -0.0044257  -0.0035159   0.0023498
           13          14          15          16          17          18
    1   0.0017861  -0.0009393   0.0076033  -0.0000823  -0.0006724   0.0000856
    2  -0.0000573   0.0005644  -0.0128747  -0.0006625  -0.0005683   0.0000789
    3  -0.0016899   0.0012077  -0.0045149  -0.0004007   0.0014571  -0.0001494
           19          20          21          22          23          24
    1  -0.0330678  -0.0603828  -0.0048140  -0.0005523  -0.0031109  -0.0021678
    2  -0.0025883  -0.0021003  -0.0001633  -0.0010096   0.0033456  -0.0010980
    3  -0.0071317  -0.0105694  -0.0029232  -0.0028497   0.0052333   0.0010038
           25          26          27          28          29          30
    1  -0.0000840  -0.0118339  -0.0167298  -0.0181767  -0.0002212   0.0003471
    2  -0.0003983   0.0008576   0.0088708   0.0046781   0.0000274   0.0004357
    3   0.0004588  -0.0018618  -0.0134502  -0.0063623   0.0001200  -0.0001344
           31          32          33          34          35          36
    1  -0.0011174   0.0012889   0.0314353   0.0002526   0.0002664  -0.0002379
    2   0.0005002  -0.0010006   0.0034269  -0.0001178  -0.0003391   0.0001984
    3   0.0004242   0.0000301   0.0100446   0.0016436  -0.0001884  -0.0001210
           37          38          39          40          41          42
    1   0.0008235  -0.0003812  -0.0004172   0.0001682   0.0621517  -0.0000921
    2   0.0000785   0.0004016  -0.0000438  -0.0000195  -0.0081824   0.0001853
    3  -0.0002429  -0.0000362   0.0000423   0.0000082   0.0295847  -0.0000631
           43          44          45          46          47          48
    1  -0.0003214  -0.0000246   0.0000200  -0.0000802  -0.0001069   0.0085024
    2  -0.0000198   0.0001583   0.0000845  -0.0000711   0.0000305   0.0045560
    3   0.0001065  -0.0001967   0.0000571   0.0000510  -0.0000769   0.0021016
           49          50          51          52          53          54
    1   0.0018776  -0.0000083  -0.0000379  -0.0000227   0.0000115  -0.0005700
    2  -0.0001643  -0.0000575   0.0000233  -0.0000432  -0.0011577   0.0005341
    3   0.0008143   0.0000139   0.0000004  -0.0000061  -0.0000818   0.0000329
           55          56
    1  -0.0003690   0.0010029
    2  -0.0012610   0.0001680
    3  -0.0005494   0.0009631
 Max gradient component =       6.215E-02
 RMS gradient           =       9.485E-03
 Gradient time:  CPU 30.93 s  wall 0.65 s
 Geometry Optimization Parameters
   NAtoms,    NIC,     NZ,  NCons,   NDum,   NFix, NCnnct, MaxDiis
       56     458       0       0       0       0       0       0

 Cartesian Hessian Update
 Hessian Updated using BFGS Update


** GEOMETRY OPTIMIZATION IN DELOCALIZED INTERNAL COORDINATES **
   Searching for a Minimum

   Optimization Cycle:   2

                       Coordinates (Angstroms)
     ATOM                X               Y               Z
      1  O        -0.9637952102   -0.5723163782    0.6672799723
      2  C        -1.9520712500   -1.1645676420    0.1752755745
      3  C        -3.4773411377   -0.8807390607    0.4269211213
      4  C        -3.7705787974    0.4812795564    1.1869274041
      5  C        -2.4841589753    1.3570817868    1.3903401006
      6  O        -2.0242652062    1.7788746308    0.1012366350
      7  C        -0.7558905657    2.5245055739    0.2348725295
      8  C        -0.0930116642    2.5114413956   -1.1869927890
      9  O         0.5294221883    1.1886039885   -1.4304079497
     10  C         1.7606945279    1.0532142778   -0.7175247264
     11  C         2.1793825835   -0.4516669358   -0.8633042133
     12  C         3.6932812222   -0.7521933987   -0.5342732009
     13  C         4.6516875023    0.4904480252   -0.6117308940
     14  O         4.5836439085    1.4525495962   -1.4060520931
     15  O        -1.8527979768   -2.2598117890   -0.7362056049
     16  O         5.7023494719    0.3233375550    0.3477443840
     17  O         2.2697996023    1.9448071534   -0.0065273366
     18  C         6.6353978352    1.4706648863    0.2755692750
     19  C         1.4631616584   -1.2378143131    0.3238287288
     20  C         1.6936733062   -2.7919797201    0.1437461175
     21  C         3.1749130364   -2.9524780998    0.6494462259
     22  C         3.5642016075   -1.4432318201    0.8946086280
     23  O         2.3237269368   -0.8771360469    1.4753900217
     24  H         1.8757516406   -0.8175996812   -1.8595482178
     25  H         4.0852816588   -1.4887228354   -1.2615695843
     26  H         0.4053182209   -0.9364485834    0.4939138674
     27  H         0.9882845831   -3.3620897136    0.7689796422
     28  H         1.5681997742   -3.1072972817   -0.9045494723
     29  H         3.2171484081   -3.5170227860    1.5948120513
     30  H         3.8297221249   -3.4441714824   -0.0875397247
     31  H         4.4280915989   -1.2677583029    1.5635678815
     32  O        -1.9402750453    1.6582599685    2.4744721551
     33  C        -0.4314448567   -2.5486965807   -1.0367521047
     34  C        -4.3141162486   -0.6756514389   -0.9107404311
     35  C        -5.8361691195   -0.9142886806   -0.5655037402
     36  C        -6.1672607376    0.3929471061    0.2464972895
     37  C        -4.7868233225    1.1603677168    0.1721904776
     38  O        -4.2460180333    0.7817732705   -1.1536569428
     39  H        -3.8776976920   -1.7418812471    0.9944375800
     40  H        -4.2226165239    0.3004596999    2.1773516758
     41  H         0.1173901906   -2.8787867037   -0.1317148783
     42  H        -3.9243997849   -1.2399464213   -1.7799708097
     43  H        -6.4328534102   -0.9756779543   -1.4896281612
     44  H        -5.9946408694   -1.8344989254    0.0189489697
     45  H        -6.9619804027    0.9810427580   -0.2391509142
     46  H        -6.4679905796    0.1829676945    1.2854754567
     47  H        -4.8557267262    2.2617629279    0.2607137633
     48  H         0.0824538342   -1.6607491393   -1.4579839908
     49  H        -0.4373005474   -3.3647557221   -1.7824046437
     50  H         7.4069429697    1.2854785968    1.0454287198
     51  H         6.1187002252    2.4286234910    0.4889136083
     52  H         7.1160503651    1.5450223651   -0.7214708459
     53  H        -0.8711240574    2.6235658731   -1.9684295031
     54  H         0.6505186714    3.3335275069   -1.2657976723
     55  H        -0.0889771839    2.0285628512    0.9718457019
     56  H        -0.9354980153    3.5674840867    0.5801071396
   Point Group: c1    Number of degrees of freedom:   162


   Energy is  -1510.205940799

 Hessian Updated using BFGS Update

149 Hessian modes will be used to form the next step
  Hessian Eigenvalues:
     0.001880    0.002445    0.002685    0.002747    0.004180    0.004287
     0.004436    0.004657    0.004900    0.004923    0.004988    0.006071
     0.006759    0.006811    0.011332    0.011654    0.011886    0.021635
     0.021735    0.025635    0.025899    0.030816    0.030943    0.035022
     0.035291    0.038511    0.039340    0.040668    0.041900    0.042009
     0.044706    0.045959    0.046364    0.047856    0.050610    0.050882
     0.051057    0.053319    0.053898    0.054484    0.054870    0.055217
     0.055839    0.056625    0.057142    0.058402    0.059131    0.060396
     0.060443    0.063275    0.063756    0.064180    0.064641    0.069411
     0.069487    0.072857    0.072930    0.085705    0.092098    0.092758
     0.092911    0.094181    0.096747    0.096810    0.096962    0.102636
     0.102643    0.105625    0.106932    0.110255    0.110803    0.111859
     0.121516    0.127961    0.133646    0.148530    0.157155    0.159858
     0.160000    0.162937    0.164041    0.173525    0.217573    0.219260
     0.219802    0.223808    0.227341    0.230978    0.238441    0.238897
     0.239254    0.239391    0.243769    0.245333    0.249112    0.249374
     0.249872    0.249934    0.249992    0.252857    0.253082    0.258681
     0.259249    0.260493    0.261098    0.261133    0.291776    0.293401
     0.306748    0.307804    0.322628    0.322843    0.324701    0.325158
     0.326686    0.326901    0.327024    0.327204    0.327625    0.328989
     0.329118    0.329353    0.329602    0.329946    0.330743    0.330889
     0.332614    0.332879    0.334709    0.334809    0.334828    0.334929
     0.335012    0.335065    0.335075    0.335169    0.342932    0.343986
     0.345049    0.348010    0.406174    0.406764    0.409369    0.412215
     0.822035    0.833306    0.834252    0.836567   11.083974

 Minimum Search - Taking Simple RFO Step
 Searching for Lamda that Minimizes Along All modes
 Value Taken    Lamda =  -0.31292404
 Step Taken.  Stepsize is  0.169309

                             Maximum     Tolerance    Cnvgd?
         Gradient           1.775456      0.000300      NO
         Displacement       0.153589      0.001200      NO
         Energy change      0.079936      0.000001      NO


 New Cartesian Coordinates Obtained by Inverse Iteration

 Displacement from previous Coordinates is:  5.988856
 Adding empirical dispersion correction 
 ----------------------------------------------------------------
 Doing -D3(op) with
 s6 =   1.00000
 s8 =   0.78311
 a1 =   0.30000
 a2 =   4.25000
 n  =  10.00000
 -D3 energy without 3body term =     -0.0709447315 hartrees
 ----------------------------------------------------------------
             Standard Nuclear Orientation (Angstroms)
    I     Atom           X                Y                Z
 ----------------------------------------------------------------
    1      O      -1.2123056352    -0.9250980826     0.4384291286
    2      C      -2.3001279798    -1.3559004590    -0.0086492718
    3      C      -3.7524631947    -0.8930887478     0.3484833877
    4      C      -3.8415749404     0.4624627109     1.1729502144
    5      C      -2.4632045632     1.2003115906     1.3607372413
    6      O      -1.9873720378     1.6320028518     0.0803612083
    7      C      -0.6790707230     2.3140769633     0.2201731518
    8      C       0.0061996972     2.2895448837    -1.1923472653
    9      O       0.6244509190     0.9650872341    -1.4531825526
   10      C       1.8533893359     0.8986344444    -0.7165576406
   11      C       2.4138813283    -0.5663837583    -0.8029966584
   12      C       3.9477072113    -0.6926438545    -0.4466462488
   13      C       4.7675634046     0.6428862620    -0.5601915196
   14      O       4.6104456375     1.5612981702    -1.3926841031
   15      O      -2.4268339801    -2.4056118073    -0.9692501281
   16      O       5.8157209714     0.6248178717     0.4163066621
   17      O       2.2889748107     1.8429018666    -0.0250257895
   18      C       6.6224038172     1.8618686389     0.3104512667
   19      C       1.7729713650    -1.3830185642     0.4072502965
   20      C       2.1757366279    -2.9093095201     0.2885085697
   21      C       3.6580870641    -2.8894689864     0.8130667823
   22      C       3.8768170438    -1.3399326316     1.0050442310
   23      O       2.5755876848    -0.8911173999     1.5523298699
   24      H       2.1651764136    -0.9966054309    -1.7888105413
   25      H       4.4269219674    -1.4088627303    -1.1412376150
   26      H       0.6875706626    -1.1905993374     0.5581079330
   27      H       1.5304062531    -3.5307539951     0.9296221267
   28      H       2.0999105030    -3.2750870949    -0.7478755224
   29      H       3.7491525028    -3.4113140135     1.7792833725
   30      H       4.3719987525    -3.3333384538     0.1009754708
   31      H       4.7079493678    -1.0476291490     1.6746795542
   32      O      -1.8684617434     1.4089495480     2.4398964859
   33      C      -1.0974779571    -2.8857073752    -1.4012436577
   34      C      -4.6140653378    -0.5323347580    -0.9391450491
   35      C      -6.1374994043    -0.6010045544    -0.5341368717
   36      C      -6.2718023703     0.6989829396     0.3384074085
   37      C      -4.8123457905     1.2970735987     0.2298591459
   38      O      -4.3765678177     0.9147475530    -1.1326945892
   39      H      -4.2297528062    -1.7224871732     0.9036650038
   40      H      -4.2700241946     0.2951404135     2.1761861663
   41      H      -0.5419153710    -3.3400357229    -0.5589431202
   42      H      -4.3344982773    -1.1038572763    -1.8452739202
   43      H      -6.7745698137    -0.5513876241    -1.4316382407
   44      H      -6.3831260264    -1.5191211547     0.0228241180
   45      H      -7.0079004270     1.3986321793    -0.0881224430
   46      H      -6.5529408670     0.4829972738     1.3816405382
   47      H      -4.7462922023     2.3940613837     0.3638645971
   48      H      -0.4879529511    -2.0639157735    -1.8285500389
   49      H      -1.2864271745    -3.6518595702    -2.1754168293
   50      H       7.3977451069     1.7887938849     1.0951500261
   51      H       6.0035747861     2.7662878220     0.4813473701
   52      H       7.1072127072     1.9503868881    -0.6834029972
   53      H      -0.7633234813     2.4314035886    -1.9774285202
   54      H       0.7723890495     3.0919114158    -1.2562244990
   55      H      -0.0318962042     1.7917847674     0.9565369412
   56      H      -0.8297860067     3.3591039089     0.5729496171
 ----------------------------------------------------------------
 Molecular Point Group                 C1    NOp =  1
 Largest Abelian Subgroup              C1    NOp =  1
 Nuclear Repulsion Energy =  3234.1212015821 hartrees
 There are      113 alpha and      113 beta electrons
 Applying Cartesian multipole field
    Component          Value
    ---------          -----
     (2,0,0)        1.00000E-12
     (0,2,0)        2.00000E-11
     (0,0,2)       -3.00000E-11
 Nucleus-field energy     =     0.0000000296 hartrees
 Requested basis set is STO-3G
 There are 86 shells and 176 basis functions
 A cutoff of  1.0D-12 yielded   2338 shell pairs
 There are     11200 function pairs
 Smallest overlap matrix eigenvalue = 2.13E-01
 Guess MOs from SCF MO coefficient file
 Reading MOs from coefficient file
 Reading MOs from coefficient file
 A restricted hybrid HF-DFT SCF calculation will be
 performed using Pulay DIIS extrapolation
 Exchange:     0.2000 Hartree-Fock + 0.0800 Slater + 0.7200 B88
 Correlation:  0.1900 VWN1RPA + 0.8100 LYP
 Using SG-1 standard quadrature grid
 Dispersion:   Grimme D3
 SCF converges when DIIS error is below 1.0E-08
 Geometry optimization detected.  Setting ReadMinima to 0
 Setting SaveMinima to 0
 using 48 threads for integral computing
 -------------------------------------------------------
 OpenMP Integral computing Module                
 Release: version 1.0, May 2013, Q-Chem Inc. Pittsburgh 
 -------------------------------------------------------
 -------------------------------------------------------
 OpenMP BLAS3 based DFT computing Module                
 Release: version 1.0, May 2013, Q-Chem Inc. Pittsburgh 
 -------------------------------------------------------
 ---------------------------------------
  Cycle       Energy         DIIS Error
 ---------------------------------------
    1   -1510.2215795730      8.09E-03
    2   -1510.2720289658      1.61E-03
    3   -1510.2720270785      1.80E-03
    4   -1510.2849871798      7.09E-04
    5   -1510.2871776225      1.39E-04
    6   -1510.2872516939      5.87E-05
    7   -1510.2872651095      2.34E-05
    8   -1510.2872671323      1.01E-05
    9   -1510.2872675931      1.50E-06
   10   -1510.2872676038      6.09E-07
   11   -1510.2872676050      3.87E-07
   12   -1510.2872676057      1.25E-07
   13   -1510.2872676058      3.14E-08
   14   -1510.2872676059      6.63E-09 Convergence criterion met
 ---------------------------------------
 SCF time:  CPU 102.84 s  wall 2.15 s
 SCF   energy in the final basis set = -1510.28726761
 Total energy in the final basis set = -1510.28726761
 
 --------------------------------------------------------------
 
                    Orbital Energies (a.u.)
 --------------------------------------------------------------
 
 Alpha MOs
 -- Occupied --
-18.947 -18.927 -18.925 -18.920 -18.894 -18.890 -18.876 -18.865
-18.865 -18.863 -10.114 -10.092 -10.090 -10.089 -10.072 -10.065
-10.062 -10.061 -10.060 -10.058 -10.049 -10.043 -10.041 -10.036
-10.030 -10.029 -10.022 -10.021 -10.014 -10.013  -1.023  -1.008
 -1.002  -0.998  -0.972  -0.959  -0.949  -0.931  -0.926  -0.922
 -0.765  -0.755  -0.726  -0.718  -0.712  -0.702  -0.689  -0.670
 -0.654  -0.610  -0.596  -0.573  -0.547  -0.539  -0.536  -0.530
 -0.516  -0.504  -0.487  -0.468  -0.463  -0.453  -0.446  -0.440
 -0.435  -0.428  -0.419  -0.418  -0.414  -0.409  -0.404  -0.402
 -0.390  -0.388  -0.368  -0.366  -0.362  -0.354  -0.350  -0.344
 -0.340  -0.334  -0.332  -0.330  -0.325  -0.317  -0.316  -0.312
 -0.307  -0.303  -0.302  -0.296  -0.288  -0.285  -0.282  -0.274
 -0.265  -0.260  -0.249  -0.243  -0.240  -0.236  -0.223  -0.190
 -0.173  -0.168  -0.166  -0.161  -0.150  -0.145  -0.142  -0.139
 -0.133
 -- Virtual --
  0.088   0.106   0.110   0.114   0.236   0.246   0.249   0.253
  0.260   0.263   0.284   0.296   0.309   0.315   0.326   0.333
  0.336   0.342   0.344   0.350   0.356   0.364   0.369   0.372
  0.380   0.383   0.393   0.401   0.404   0.405   0.408   0.410
  0.412   0.418   0.421   0.425   0.427   0.429   0.434   0.436
  0.437   0.438   0.440   0.446   0.451   0.452   0.465   0.466
  0.474   0.478   0.485   0.490   0.499   0.504   0.517   0.535
  0.546   0.552   0.562   0.641   0.645   0.653   0.667
 --------------------------------------------------------------
 
          Ground-State Mulliken Net Atomic Charges

     Atom                 Charge (a.u.)
  ----------------------------------------
      1 O                    -0.206914
      2 C                     0.222091
      3 C                    -0.077812
      4 C                    -0.080314
      5 C                     0.211352
      6 O                    -0.173219
      7 C                    -0.048466
      8 C                    -0.048605
      9 O                    -0.172818
     10 C                     0.212755
     11 C                    -0.078413
     12 C                    -0.080243
     13 C                     0.213900
     14 O                    -0.214736
     15 O                    -0.168584
     16 O                    -0.171733
     17 O                    -0.213137
     18 C                    -0.127792
     19 C                     0.008636
     20 C                    -0.146750
     21 C                    -0.142942
     22 C                     0.023793
     23 O                    -0.191168
     24 H                     0.080623
     25 H                     0.081085
     26 H                     0.106711
     27 H                     0.073169
     28 H                     0.068147
     29 H                     0.076270
     30 H                     0.070764
     31 H                     0.091218
     32 O                    -0.214632
     33 C                    -0.130155
     34 C                     0.025454
     35 C                    -0.143478
     36 C                    -0.144718
     37 C                     0.026653
     38 O                    -0.185820
     39 H                     0.086593
     40 H                     0.084780
     41 H                     0.090172
     42 H                     0.089206
     43 H                     0.078140
     44 H                     0.073482
     45 H                     0.078086
     46 H                     0.073961
     47 H                     0.083612
     48 H                     0.095016
     49 H                     0.092604
     50 H                     0.088866
     51 H                     0.092522
     52 H                     0.086728
     53 H                     0.094455
     54 H                     0.095864
     55 H                     0.102526
     56 H                     0.083213
  ----------------------------------------
  Sum of atomic charges =    -0.000000

 -----------------------------------------------------------------
                    Cartesian Multipole Moments
 -----------------------------------------------------------------
    Charge (ESU x 10^10)
                -0.0000
    Dipole Moment (Debye)
         X      -1.5464      Y      -2.7246      Z      -1.3869
       Tot       3.4261
    Quadrupole Moments (Debye-Ang)
        XX    -138.7529     XY      -1.2302     YY    -150.6770
        XZ      -3.6634     YZ       2.5558     ZZ    -167.2796
    Octopole Moments (Debye-Ang^2)
       XXX      24.0034    XXY       7.7229    XYY       9.5251
       YYY      21.4050    XXZ      33.4507    XYZ      10.5921
       YYZ      -0.7368    XZZ       5.0690    YZZ     -11.0474
       ZZZ     -10.7358
    Hexadecapole Moments (Debye-Ang^3)
      XXXX  -12134.4513   XXXY     221.6352   XXYY   -2599.4119
      XYYY      20.5319   YYYY   -2656.5109   XXXZ     -55.5616
      XXYZ      67.8235   XYYZ       4.4250   YYYZ      -5.4600
      XXZZ   -2403.3772   XYZZ      25.4675   YYZZ    -620.2813
      XZZZ       4.4056   YZZZ     -22.4753   ZZZZ   -1088.3105
 -----------------------------------------------------------------
 Calculating analytic gradient of the SCF energy
 Gradient of SCF Energy
            1           2           3           4           5           6
    1   0.0022404  -0.0007979   0.0002041  -0.0025249  -0.0024762   0.0021640
    2   0.0009043   0.0002482  -0.0017882   0.0000854   0.0037589  -0.0015339
    3  -0.0014467   0.0025685  -0.0037232   0.0045234   0.0009546  -0.0005502
            7           8           9          10          11          12
    1   0.0003485   0.0040674  -0.0010162  -0.0013060   0.0022619  -0.0006956
    2  -0.0005842   0.0009884  -0.0023583   0.0059935  -0.0007564   0.0000569
    3   0.0002827   0.0003937   0.0014114  -0.0028659  -0.0003072   0.0025083
           13          14          15          16          17          18
    1   0.0010255  -0.0015225  -0.0002765   0.0002862  -0.0028367   0.0001179
    2  -0.0006494   0.0006887  -0.0011230  -0.0004180  -0.0006056   0.0000883
    3  -0.0014097   0.0013113  -0.0003339  -0.0003411  -0.0012132  -0.0000426
           19          20          21          22          23          24
    1  -0.0016584   0.0001936  -0.0002073  -0.0002388  -0.0000688  -0.0000215
    2  -0.0002967  -0.0004843   0.0002127  -0.0000760   0.0001796   0.0003835
    3  -0.0009403   0.0006473  -0.0002434  -0.0008442   0.0006264  -0.0000967
           25          26          27          28          29          30
    1   0.0001084   0.0014111   0.0003600   0.0001556  -0.0000072   0.0000178
    2  -0.0004694   0.0002347  -0.0001350  -0.0000109   0.0001013   0.0000503
    3   0.0004614   0.0011798   0.0001458   0.0002135   0.0000905  -0.0001513
           31          32          33          34          35          36
    1  -0.0001039   0.0008270  -0.0010771   0.0007076   0.0002096   0.0004553
    2  -0.0000860  -0.0006420  -0.0000896   0.0001608   0.0008830  -0.0009820
    3   0.0002355  -0.0011208   0.0003694   0.0007562   0.0005379  -0.0009928
           37          38          39          40          41          42
    1   0.0008979   0.0000855  -0.0000063   0.0003894  -0.0013220  -0.0002790
    2  -0.0011369   0.0006201  -0.0004014  -0.0000403   0.0007986   0.0000129
    3  -0.0006212  -0.0007453  -0.0002720   0.0000632  -0.0007227  -0.0002321
           43          44          45          46          47          48
    1  -0.0001007  -0.0001536  -0.0000320  -0.0000236  -0.0002554  -0.0004607
    2   0.0000145   0.0001323  -0.0001353  -0.0001470  -0.0000321  -0.0003036
    3   0.0000257   0.0000263  -0.0001107   0.0000105   0.0001202  -0.0000732
           49          50          51          52          53          54
    1  -0.0000809  -0.0000095  -0.0000099   0.0000047  -0.0005215   0.0010402
    2  -0.0000666  -0.0000279  -0.0000298  -0.0000118  -0.0000560  -0.0002530
    3   0.0000629  -0.0000339  -0.0000230   0.0000318   0.0007417  -0.0007842
           55          56
    1   0.0014108  -0.0008997
    2  -0.0006768  -0.0001896
    3  -0.0015537   0.0014955
 Max gradient component =       5.994E-03
 RMS gradient           =       1.167E-03
 Gradient time:  CPU 29.99 s  wall 0.63 s
 Geometry Optimization Parameters
   NAtoms,    NIC,     NZ,  NCons,   NDum,   NFix, NCnnct, MaxDiis
       56     458       0       0       0       0       0       0

 Cartesian Hessian Update
 Hessian Updated using BFGS Update


** GEOMETRY OPTIMIZATION IN DELOCALIZED INTERNAL COORDINATES **
   Searching for a Minimum

   Optimization Cycle:   3

                       Coordinates (Angstroms)
     ATOM                X               Y               Z
      1  O        -1.2123056352   -0.9250980826    0.4384291286
      2  C        -2.3001279798   -1.3559004590   -0.0086492718
      3  C        -3.7524631947   -0.8930887478    0.3484833877
      4  C        -3.8415749404    0.4624627109    1.1729502144
      5  C        -2.4632045632    1.2003115906    1.3607372413
      6  O        -1.9873720378    1.6320028518    0.0803612083
      7  C        -0.6790707230    2.3140769633    0.2201731518
      8  C         0.0061996972    2.2895448837   -1.1923472653
      9  O         0.6244509190    0.9650872341   -1.4531825526
     10  C         1.8533893359    0.8986344444   -0.7165576406
     11  C         2.4138813283   -0.5663837583   -0.8029966584
     12  C         3.9477072113   -0.6926438545   -0.4466462488
     13  C         4.7675634046    0.6428862620   -0.5601915196
     14  O         4.6104456375    1.5612981702   -1.3926841031
     15  O        -2.4268339801   -2.4056118073   -0.9692501281
     16  O         5.8157209714    0.6248178717    0.4163066621
     17  O         2.2889748107    1.8429018666   -0.0250257895
     18  C         6.6224038172    1.8618686389    0.3104512667
     19  C         1.7729713650   -1.3830185642    0.4072502965
     20  C         2.1757366279   -2.9093095201    0.2885085697
     21  C         3.6580870641   -2.8894689864    0.8130667823
     22  C         3.8768170438   -1.3399326316    1.0050442310
     23  O         2.5755876848   -0.8911173999    1.5523298699
     24  H         2.1651764136   -0.9966054309   -1.7888105413
     25  H         4.4269219674   -1.4088627303   -1.1412376150
     26  H         0.6875706626   -1.1905993374    0.5581079330
     27  H         1.5304062531   -3.5307539951    0.9296221267
     28  H         2.0999105030   -3.2750870949   -0.7478755224
     29  H         3.7491525028   -3.4113140135    1.7792833725
     30  H         4.3719987525   -3.3333384538    0.1009754708
     31  H         4.7079493678   -1.0476291490    1.6746795542
     32  O        -1.8684617434    1.4089495480    2.4398964859
     33  C        -1.0974779571   -2.8857073752   -1.4012436577
     34  C        -4.6140653378   -0.5323347580   -0.9391450491
     35  C        -6.1374994043   -0.6010045544   -0.5341368717
     36  C        -6.2718023703    0.6989829396    0.3384074085
     37  C        -4.8123457905    1.2970735987    0.2298591459
     38  O        -4.3765678177    0.9147475530   -1.1326945892
     39  H        -4.2297528062   -1.7224871732    0.9036650038
     40  H        -4.2700241946    0.2951404135    2.1761861663
     41  H        -0.5419153710   -3.3400357229   -0.5589431202
     42  H        -4.3344982773   -1.1038572763   -1.8452739202
     43  H        -6.7745698137   -0.5513876241   -1.4316382407
     44  H        -6.3831260264   -1.5191211547    0.0228241180
     45  H        -7.0079004270    1.3986321793   -0.0881224430
     46  H        -6.5529408670    0.4829972738    1.3816405382
     47  H        -4.7462922023    2.3940613837    0.3638645971
     48  H        -0.4879529511   -2.0639157735   -1.8285500389
     49  H        -1.2864271745   -3.6518595702   -2.1754168293
     50  H         7.3977451069    1.7887938849    1.0951500261
     51  H         6.0035747861    2.7662878220    0.4813473701
     52  H         7.1072127072    1.9503868881   -0.6834029972
     53  H        -0.7633234813    2.4314035886   -1.9774285202
     54  H         0.7723890495    3.0919114158   -1.2562244990
     55  H        -0.0318962042    1.7917847674    0.9565369412
     56  H        -0.8297860067    3.3591039089    0.5729496171
   Point Group: c1    Number of degrees of freedom:   162


   Energy is  -1510.287267606

 Hessian Updated using BFGS Update

152 Hessian modes will be used to form the next step
  Hessian Eigenvalues:
     0.001881    0.002000    0.002446    0.002685    0.002747    0.004180
     0.004286    0.004437    0.004657    0.004900    0.004925    0.004988
     0.006071    0.006759    0.006811    0.011332    0.011656    0.011886
     0.021635    0.021735    0.025636    0.025899    0.030816    0.030943
     0.035022    0.035290    0.038512    0.039341    0.040668    0.041902
     0.042009    0.044706    0.045972    0.046365    0.047856    0.050613
     0.050882    0.051057    0.053319    0.053898    0.054484    0.054870
     0.055218    0.055839    0.056624    0.057142    0.058402    0.059131
     0.060396    0.060443    0.063275    0.063756    0.064180    0.064641
     0.069411    0.069487    0.072857    0.072930    0.085701    0.092098
     0.092758    0.092911    0.094178    0.096747    0.096810    0.096962
     0.102635    0.102643    0.105611    0.106926    0.110256    0.110802
     0.111856    0.121517    0.127964    0.133662    0.148528    0.157155
     0.159858    0.160000    0.160000    0.162940    0.164041    0.173546
     0.217572    0.219260    0.219808    0.223734    0.227342    0.230978
     0.238442    0.238897    0.239254    0.239391    0.243768    0.245333
     0.249110    0.249377    0.249873    0.249937    0.249989    0.249995
     0.252857    0.253082    0.258682    0.259249    0.260492    0.261098
     0.261132    0.291777    0.293401    0.306748    0.307804    0.322628
     0.322842    0.324701    0.325158    0.326686    0.326901    0.327024
     0.327203    0.327625    0.328989    0.329118    0.329353    0.329602
     0.329946    0.330743    0.330889    0.332614    0.332879    0.334709
     0.334809    0.334828    0.334929    0.335012    0.335065    0.335075
     0.335169    0.342948    0.343980    0.345049    0.348013    0.406174
     0.406764    0.409430    0.412215    0.822041    0.833306    0.834252
     0.836566   11.535446

 Minimum Search - Taking Simple RFO Step
 Searching for Lamda that Minimizes Along All modes
 Value Taken    Lamda =  -0.00756554
 Calculated Step too Large.  Step scaled by  0.489800
 Step Taken.  Stepsize is  0.300000

                             Maximum     Tolerance    Cnvgd?
         Gradient           0.024561      0.000300      NO
         Displacement       0.136197      0.001200      NO
         Energy change     -0.081327      0.000001      NO


 New Cartesian Coordinates Obtained by Inverse Iteration

 Displacement from previous Coordinates is:  4.118361
 Adding empirical dispersion correction 
 ----------------------------------------------------------------
 Doing -D3(op) with
 s6 =   1.00000
 s8 =   0.78311
 a1 =   0.30000
 a2 =   4.25000
 n  =  10.00000
 -D3 energy without 3body term =     -0.0705797021 hartrees
 ----------------------------------------------------------------
             Standard Nuclear Orientation (Angstroms)
    I     Atom           X                Y                Z
 ----------------------------------------------------------------
    1      O      -1.3688316801    -0.8805230705     0.8492569748
    2      C      -2.3934454510    -1.3154535327     0.2761901896
    3      C      -3.8704810457    -0.8204197592     0.4379797201
    4      C      -4.0081686864     0.5926880351     1.1427881142
    5      C      -2.6338713285     1.3131217384     1.3991928295
    6      O      -2.0731876707     1.6898832793     0.1363436388
    7      C      -0.7568484216     2.3415850290     0.3290158169
    8      C      -0.0065662491     2.2822505276    -1.0496463880
    9      O       0.5965500876     0.9459051522    -1.3001648311
   10      C       1.8189326755     0.8205558308    -0.5551047948
   11      C       2.4281353248    -0.6010352945    -0.8234712497
   12      C       3.9852734436    -0.6867291063    -0.5690405452
   13      C       4.7405204853     0.6911265695    -0.5970984381
   14      O       4.5328095598     1.6547548702    -1.3649689568
   15      O      -2.4057528193    -2.4069760796    -0.6440711187
   16      O       5.8153690270     0.6468300111     0.3490321404
   17      O       2.2805209869     1.7222445754     0.1763925796
   18      C       6.5689231194     1.9207672089     0.3126987743
   19      C       1.8974583827    -1.5645782518     0.3282933585
   20      C       2.3643373747    -3.0478562617     0.0332298918
   21      C       3.8706262967    -3.0044746532     0.4835616519
   22      C       4.0282531355    -1.4712077177     0.8153947748
   23      O       2.7411216125    -1.1454006057     1.4724728695
   24      H       2.1402922657    -0.9419643632    -1.8333079926
   25      H       4.4535004641    -1.3093196789    -1.3552468388
   26      H       0.8127983396    -1.4457808466     0.5499786294
   27      H       1.7836977087    -3.7621930273     0.6385070235
   28      H       2.2490056119    -3.3118287730    -1.0301974452
   29      H       4.0380741456    -3.6121473372     1.3873566551
   30      H       4.5640008585    -3.3408272808    -0.3036457321
   31      H       4.8827889126    -1.2014594310     1.4646882436
   32      O      -2.1296958081     1.5890119260     2.5091657413
   33      C      -1.0350865943    -2.9183678456    -0.8633822204
   34      C      -4.5942771600    -0.5465182136    -0.9523799915
   35      C      -6.1512389762    -0.5646545842    -0.6941958906
   36      C      -6.3434512921     0.7999582053     0.0647992664
   37      C      -4.8684728549     1.3692332205     0.0543656850
   38      O      -4.3117834600     0.8790213715    -1.2271012903
   39      H      -4.4165939427    -1.5993407902     1.0025082599
   40      H      -4.5305105238     0.5084444786     2.1114197162
   41      H      -0.6121492281    -3.3491788955     0.0649944811
   42      H      -4.2382374361    -1.1879838101    -1.7814956696
   43      H      -6.6973620745    -0.5743392222    -1.6509681451
   44      H      -6.4671392071    -1.4357411312    -0.0983722326
   45      H      -7.0209817283     1.4756766193    -0.4807951940
   46      H      -6.7271807047     0.6665777000     1.0889604605
   47      H      -4.7911197101     2.4721114124     0.1129386121
   48      H      -0.3565533779    -2.1196057411    -1.2262523343
   49      H      -1.1236794972    -3.7096480558    -1.6302155492
   50      H       7.3683862933     1.8244188911     1.0702328505
   51      H       5.9197446570     2.7841837345     0.5641890739
   52      H       7.0215552395     2.1000557864    -0.6841298494
   53      H      -0.7358431698     2.4425167955    -1.8690463656
   54      H       0.7766664019     3.0693398879    -1.0805389469
   55      H      -0.1644659994     1.8234345665     1.1127630101
   56      H      -0.8980006000     3.3985315923     0.6475392300
 ----------------------------------------------------------------
 Molecular Point Group                 C1    NOp =  1
 Largest Abelian Subgroup              C1    NOp =  1
 Nuclear Repulsion Energy =  3215.8923629047 hartrees
 There are      113 alpha and      113 beta electrons
 Applying Cartesian multipole field
    Component          Value
    ---------          -----
     (2,0,0)        1.00000E-12
     (0,2,0)        2.00000E-11
     (0,0,2)       -3.00000E-11
 Nucleus-field energy     =     0.0000000345 hartrees
 Requested basis set is STO-3G
 There are 86 shells and 176 basis functions
 A cutoff of  1.0D-12 yielded   2303 shell pairs
 There are     10976 function pairs
 Smallest overlap matrix eigenvalue = 2.13E-01
 Guess MOs from SCF MO coefficient file
 Reading MOs from coefficient file
 Reading MOs from coefficient file
 A restricted hybrid HF-DFT SCF calculation will be
 performed using Pulay DIIS extrapolation
 Exchange:     0.2000 Hartree-Fock + 0.0800 Slater + 0.7200 B88
 Correlation:  0.1900 VWN1RPA + 0.8100 LYP
[...]
      7  C        -0.5531276251    2.2971788548   -0.6817678500
      8  C         0.1168738896    1.7022743606   -1.9676734243
      9  O         0.7234724676    0.3703624597   -1.7382852042
     10  C         2.0221132852    0.4924132753   -1.1346306877
     11  C         2.6072077120   -0.9377936190   -0.9154779440
     12  C         4.1007118966   -0.9376185003   -0.3843209344
     13  C         4.6955112122    0.4987777229   -0.1321563572
     14  O         5.4522308276    1.1330306643   -0.8997919120
     15  O        -2.2535989741   -1.7339540583   -1.3037338499
     16  O         4.3174501075    0.9392923830    1.1772316214
     17  O         2.5489597455    1.5948491623   -0.8707505690
     18  C         4.7974373694    2.3212822775    1.3947553414
     19  C         1.8571916734   -1.7225548744    0.2542335707
     20  C         2.2004767917   -3.2547380175    0.0874280129
     21  C         3.6968189063   -3.2897902234    0.5738696797
     22  C         3.9301802990   -1.7735167548    0.9551544103
     23  O         2.6115009425   -1.3342608350    1.4644895305
     24  H         2.5198460949   -1.4862505859   -1.8710318160
     25  H         4.7653309001   -1.4453001003   -1.1055799818
     26  H         0.7731342498   -1.4717080399    0.3596039429
     27  H         1.5517592567   -3.8636470679    0.7374482287
     28  H         2.0823454189   -3.6017808064   -0.9515930451
     29  H         3.8192115257   -3.9321475357    1.4602864949
     30  H         4.3915367411   -3.6327716859   -0.2095471397
     31  H         4.7193892678   -1.5924790186    1.7095753003
     32  O        -1.3246076035    1.9689798807    1.8677479594
     33  C        -0.9423035230   -2.0588342673   -1.9216710030
     34  C        -4.6304274038   -0.5934408302   -0.4726566476
     35  C        -6.0019307716   -0.5768305323    0.3097265768
     36  C        -5.9802074511    0.8689075664    0.9308884938
     37  C        -4.6049121833    1.4173223435    0.3787556005
     38  O        -4.4934320822    0.7983992552   -0.9605970849
     39  H        -3.7150460044   -1.4714970944    1.3691194366
     40  H        -3.6337586048    0.7230047033    2.2852627810
     41  H        -0.4582752146   -2.9090921164   -1.4001972703
     42  H        -4.5648679407   -1.3086307277   -1.3145219407
     43  H        -6.8442061020   -0.7023388810   -0.3891553456
     44  H        -6.0561799929   -1.3688896237    1.0736364654
     45  H        -6.8158886261    1.4820515986    0.5579101795
     46  H        -6.0112918855    0.8610987077    2.0322142477
     47  H        -4.5324098270    2.5196290512    0.3039685042
     48  H        -0.2646177317   -1.1709162905   -1.9026410255
     49  H        -1.1700398137   -2.3527066041   -2.9623092194
     50  H         4.5076568606    2.5867540536    2.4280678270
     51  H         4.3205157926    3.0250759916    0.6820973864
     52  H         5.8986862517    2.3971648659    1.2841843027
     53  H        -0.6515262101    1.5506038978   -2.7527706107
     54  H         0.8896307122    2.4144941105   -2.3287431975
     55  H         0.1216025437    2.2230557039    0.1980898591
     56  H        -0.7758276937    3.3727387278   -0.8611410565
   Point Group: c1    Number of degrees of freedom:   162


   Energy is  -1510.298808353

 Hessian Updated using BFGS Update

162 Hessian modes will be used to form the next step
  Hessian Eigenvalues:
     0.001111    0.002052    0.002475    0.002615    0.003376    0.004861
     0.005090    0.005596    0.006837    0.011182    0.012335    0.013260
     0.014778    0.019021    0.022030    0.022386    0.025881    0.027090
     0.027739    0.029115    0.031663    0.032220    0.033570    0.036024
     0.037174    0.040615    0.040760    0.041993    0.043416    0.043671
     0.046239    0.047152    0.047586    0.049344    0.049751    0.051631
     0.052191    0.053339    0.054240    0.054670    0.055280    0.055596
     0.055705    0.056608    0.057307    0.058574    0.060606    0.062487
     0.063703    0.064049    0.064184    0.064562    0.065115    0.067055
     0.069238    0.070485    0.072785    0.074015    0.076217    0.083370
     0.091730    0.092927    0.093093    0.096740    0.098569    0.100486
     0.102037    0.102567    0.104661    0.107369    0.109797    0.111235
     0.112930    0.117217    0.125992    0.136737    0.141308    0.147508
     0.159456    0.159995    0.160397    0.160450    0.161196    0.162138
     0.165478    0.169866    0.183337    0.192202    0.209976    0.217567
     0.222716    0.227761    0.236294    0.236621    0.239060    0.239233
     0.239988    0.241448    0.245783    0.247006    0.247321    0.249633
     0.250354    0.251423    0.252282    0.253117    0.255445    0.255705
     0.259539    0.260819    0.262542    0.265294    0.275637    0.286699
     0.292535    0.295905    0.297378    0.305621    0.306546    0.321991
     0.322807    0.325220    0.325353    0.325824    0.326689    0.326914
     0.327716    0.328177    0.328965    0.329130    0.329527    0.329865
     0.330350    0.330762    0.331020    0.332905    0.333381    0.334548
     0.334771    0.334864    0.334948    0.335047    0.335060    0.335124
     0.335171    0.336684    0.343732    0.351607    0.354356    0.370296
     0.381416    0.410020    0.413873    0.421008    0.455044    0.753922
     0.830883    0.834797    0.834853    0.842910    1.462951    2.635568

 Minimum Search - Taking Simple RFO Step
 Searching for Lamda that Minimizes Along All modes
 Value Taken    Lamda =   0.00000000
 Step Taken.  Stepsize is  0.003189

                             Maximum     Tolerance    Cnvgd?
         Gradient           0.000217      0.000300     YES
         Displacement       0.001103      0.001200     YES
         Energy change      0.000000      0.000001     YES

 Final energy is   -1510.29880835331     


 ******************************
 **  OPTIMIZATION CONVERGED  **
 ******************************

                       Coordinates (Angstroms)
     ATOM                X               Y               Z
      1  O        -0.9696338393   -0.9907492034    0.5503059530
      2  C        -2.0739393177   -1.1467708885   -0.0255457917
      3  C        -3.4602011617   -0.7314700848    0.5875520532
      4  C        -3.4263680663    0.7334022551    1.2010613825
      5  C        -2.0668489003    1.4822590161    0.9882389155
      6  O        -1.8149424790    1.5667516330   -0.4232008964
      7  C        -0.5531276251    2.2971788548   -0.6817678500
      8  C         0.1168738896    1.7022743606   -1.9676734243
      9  O         0.7234724676    0.3703624597   -1.7382852042
     10  C         2.0221132852    0.4924132753   -1.1346306877
     11  C         2.6072077120   -0.9377936190   -0.9154779440
     12  C         4.1007118966   -0.9376185003   -0.3843209344
     13  C         4.6955112122    0.4987777229   -0.1321563572
     14  O         5.4522308276    1.1330306643   -0.8997919120
     15  O        -2.2535989741   -1.7339540583   -1.3037338499
     16  O         4.3174501075    0.9392923830    1.1772316214
     17  O         2.5489597455    1.5948491623   -0.8707505690
     18  C         4.7974373694    2.3212822775    1.3947553414
     19  C         1.8571916734   -1.7225548744    0.2542335707
     20  C         2.2004767917   -3.2547380175    0.0874280129
     21  C         3.6968189063   -3.2897902234    0.5738696797
     22  C         3.9301802990   -1.7735167548    0.9551544103
     23  O         2.6115009425   -1.3342608350    1.4644895305
     24  H         2.5198460949   -1.4862505859   -1.8710318160
     25  H         4.7653309001   -1.4453001003   -1.1055799818
     26  H         0.7731342498   -1.4717080399    0.3596039429
     27  H         1.5517592567   -3.8636470679    0.7374482287
     28  H         2.0823454189   -3.6017808064   -0.9515930451
     29  H         3.8192115257   -3.9321475357    1.4602864949
     30  H         4.3915367411   -3.6327716859   -0.2095471397
     31  H         4.7193892678   -1.5924790186    1.7095753003
     32  O        -1.3246076035    1.9689798807    1.8677479594
     33  C        -0.9423035230   -2.0588342673   -1.9216710030
     34  C        -4.6304274038   -0.5934408302   -0.4726566476
     35  C        -6.0019307716   -0.5768305323    0.3097265768
     36  C        -5.9802074511    0.8689075664    0.9308884938
     37  C        -4.6049121833    1.4173223435    0.3787556005
     38  O        -4.4934320822    0.7983992552   -0.9605970849
     39  H        -3.7150460044   -1.4714970944    1.3691194366
     40  H        -3.6337586048    0.7230047033    2.2852627810
     41  H        -0.4582752146   -2.9090921164   -1.4001972703
     42  H        -4.5648679407   -1.3086307277   -1.3145219407
     43  H        -6.8442061020   -0.7023388810   -0.3891553456
     44  H        -6.0561799929   -1.3688896237    1.0736364654
     45  H        -6.8158886261    1.4820515986    0.5579101795
     46  H        -6.0112918855    0.8610987077    2.0322142477
     47  H        -4.5324098270    2.5196290512    0.3039685042
     48  H        -0.2646177317   -1.1709162905   -1.9026410255
     49  H        -1.1700398137   -2.3527066041   -2.9623092194
     50  H         4.5076568606    2.5867540536    2.4280678270
     51  H         4.3205157926    3.0250759916    0.6820973864
     52  H         5.8986862517    2.3971648659    1.2841843027
     53  H        -0.6515262101    1.5506038978   -2.7527706107
     54  H         0.8896307122    2.4144941105   -2.3287431975
     55  H         0.1216025437    2.2230557039    0.1980898591
     56  H        -0.7758276937    3.3727387278   -0.8611410565

Z-matrix Print:
$molecule
0 1
O 
C  1 1.255165
O  2 1.418036 1 125.203360
C  3 1.485560 2 110.711481 1 -3.980676 0
H  4 1.105058 3 105.542970 2 -171.090869 0
H  4 1.108673 3 110.942837 2 70.741692 0
H  4 1.117147 3 110.766325 2 -51.310116 0
C  2 1.571651 1 124.347489 3 179.107001 0
H  8 1.106089 2 107.582353 1 -74.620299 0
C  8 1.585094 2 114.410614 1 161.363338 0
H  10 1.106586 8 114.131757 2 34.021574 0
O  10 1.481240 8 103.525354 2 -86.215365 0
C  12 1.479648 10 95.042641 8 -56.542634 0
H  13 1.107217 12 110.509419 10 -179.919284 0
C  10 1.579057 8 108.103939 2 164.425663 0
H  15 1.101642 10 110.398053 8 -167.733202 0
H  15 1.101753 10 112.256067 8 -46.304816 0
C  15 1.573681 10 101.142371 8 74.178838 0
H  18 1.101554 15 111.545618 10 117.830028 0
H  18 1.101792 15 112.808437 10 -119.457771 0
C  8 1.588518 2 112.058460 1 46.940049 0
H  21 1.103907 8 111.508143 2 -118.290573 0
C  21 1.566644 8 114.004688 2 3.687727 0
O  23 1.249542 21 127.304455 8 -123.131249 0
O  23 1.436231 21 108.290030 8 58.806621 0
C  25 1.480729 23 110.492864 21 178.636477 0
H  26 1.111263 25 110.257894 23 24.952985 0
H  26 1.112924 25 109.533159 23 -94.098457 0
C  26 1.567280 25 108.682388 23 147.311118 0
H  29 1.108973 26 109.667290 25 43.961142 0
H  29 1.111207 26 108.699176 25 164.064778 0
O  29 1.481408 26 112.909377 25 -73.604315 0
C  32 1.437276 29 111.018146 26 -81.291235 0
O  33 1.250026 32 122.981510 29 -1.035315 0
C  33 1.560723 32 108.655954 29 179.880266 0
H  35 1.105224 33 107.680426 32 50.529328 0
C  35 1.585144 33 113.588458 32 174.332233 0
H  37 1.104388 35 110.372246 33 -118.949701 0
C  37 1.574994 35 114.177726 33 1.944287 0
O  39 1.250666 37 126.351320 35 -99.533819 0
O  39 1.432299 37 109.097465 35 84.920101 0
C  41 1.479054 39 109.643322 37 -176.456804 0
H  42 1.105524 41 106.067655 39 -178.024071 0
H  42 1.109352 41 111.025910 39 62.985695 0
H  42 1.109384 41 111.801796 39 -58.495882 0
C  37 1.588081 35 100.451100 33 122.779064 0
H  46 1.106696 37 114.348942 35 -157.136677 0
O  46 1.480298 37 103.278373 35 -36.873798 0
C  48 1.477997 46 95.447571 37 57.583564 0
H  49 1.117680 48 111.029336 46 -178.841419 0
C  49 1.579004 48 103.324985 46 56.131692 0
H  51 1.101798 49 112.454519 48 -156.012451 0
H  51 1.101876 49 110.237382 48 82.629113 0
C  51 1.573815 49 101.283523 48 -35.428802 0
H  54 1.101516 51 111.552838 49 118.351072 0
H  54 1.101822 51 112.746053 49 -119.009417 0
$end

 
 --------------------------------------------------------------
 
                    Orbital Energies (a.u.)
 --------------------------------------------------------------
 
 Alpha MOs
 -- Occupied --
-18.949 -18.944 -18.930 -18.916 -18.891 -18.889 -18.881 -18.876
-18.876 -18.852 -10.110 -10.110 -10.099 -10.084 -10.083 -10.072
-10.062 -10.060 -10.051 -10.049 -10.048 -10.041 -10.038 -10.037
-10.034 -10.027 -10.022 -10.021 -10.012 -10.011  -1.025  -1.018
 -1.008  -0.992  -0.972  -0.958  -0.949  -0.942  -0.935  -0.918
 -0.765  -0.756  -0.729  -0.720  -0.713  -0.704  -0.692  -0.660
 -0.646  -0.618  -0.598  -0.579  -0.548  -0.539  -0.536  -0.529
 -0.517  -0.506  -0.494  -0.474  -0.470  -0.456  -0.444  -0.437
 -0.435  -0.432  -0.426  -0.415  -0.411  -0.406  -0.403  -0.397
 -0.395  -0.384  -0.374  -0.369  -0.361  -0.358  -0.353  -0.352
 -0.341  -0.333  -0.333  -0.330  -0.323  -0.322  -0.314  -0.312
 -0.306  -0.305  -0.300  -0.299  -0.295  -0.292  -0.277  -0.273
 -0.271  -0.262  -0.249  -0.248  -0.236  -0.235  -0.221  -0.193
 -0.182  -0.172  -0.163  -0.161  -0.158  -0.151  -0.145  -0.135
 -0.132
 -- Virtual --
  0.088   0.090   0.108   0.118   0.226   0.237   0.244   0.256
  0.257   0.271   0.283   0.297   0.309   0.311   0.324   0.335
  0.336   0.342   0.342   0.353   0.358   0.360   0.363   0.374
  0.379   0.380   0.384   0.399   0.401   0.408   0.409   0.411
  0.412   0.418   0.420   0.426   0.430   0.435   0.439   0.443
  0.445   0.448   0.448   0.449   0.454   0.461   0.462   0.466
  0.468   0.484   0.486   0.493   0.503   0.506   0.512   0.533
  0.546   0.552   0.566   0.635   0.645   0.647   0.659
 --------------------------------------------------------------
 
          Ground-State Mulliken Net Atomic Charges

     Atom                 Charge (a.u.)
  ----------------------------------------
      1 O                    -0.218205
      2 C                     0.222533
      3 C                    -0.077208
      4 C                    -0.078945
      5 C                     0.212086
      6 O                    -0.174550
      7 C                    -0.052452
      8 C                    -0.047100
      9 O                    -0.173084
     10 C                     0.219301
     11 C                    -0.081043
     12 C                    -0.081511
     13 C                     0.212180
     14 O                    -0.223168
     15 O                    -0.165493
     16 O                    -0.167353
     17 O                    -0.204233
     18 C                    -0.127134
     19 C                     0.005881
     20 C                    -0.145616
     21 C                    -0.145058
     22 C                     0.026720
     23 O                    -0.187310
     24 H                     0.082808
     25 H                     0.080946
     26 H                     0.113442
     27 H                     0.074694
     28 H                     0.067249
     29 H                     0.075824
     30 H                     0.070736
     31 H                     0.084222
     32 O                    -0.208365
     33 C                    -0.146840
     34 C                     0.023724
     35 C                    -0.144116
     36 C                    -0.144049
     37 C                     0.026181
     38 O                    -0.187048
     39 H                     0.085598
     40 H                     0.086239
     41 H                     0.080141
     42 H                     0.092630
     43 H                     0.077966
     44 H                     0.073251
     45 H                     0.078095
     46 H                     0.074356
     47 H                     0.082652
     48 H                     0.115016
     49 H                     0.084831
     50 H                     0.087997
     51 H                     0.090925
     52 H                     0.084973
     53 H                     0.097708
     54 H                     0.097426
     55 H                     0.106325
     56 H                     0.085226
  ----------------------------------------
  Sum of atomic charges =    -0.000000

 -----------------------------------------------------------------
                    Cartesian Multipole Moments
 -----------------------------------------------------------------
    Charge (ESU x 10^10)
                -0.0000
    Dipole Moment (Debye)
         X      -2.6991      Y      -1.5843      Z      -1.1407
       Tot       3.3311
    Quadrupole Moments (Debye-Ang)
        XX    -156.6136     XY      -4.5403     YY    -150.9332
        XZ      -3.3759     YZ       1.5391     ZZ    -161.8128
    Octopole Moments (Debye-Ang^2)
       XXX     -99.0110    XXY     -21.5502    XYY       5.7989
       YYY      41.6189    XXZ      77.2492    XYZ      16.2781
       YYZ       0.5572    XZZ      -2.3394    YZZ       5.9273
       ZZZ       2.8150
    Hexadecapole Moments (Debye-Ang^3)
      XXXX  -11701.6999   XXXY     212.0276   XXYY   -2348.1674
      XYYY     326.2310   YYYY   -2728.7192   XXXZ     134.5241
      XXYZ      94.3033   XYYZ      36.7512   YYYZ     -74.2029
      XXZZ   -2195.6253   XYZZ     136.0533   YYZZ    -661.2038
      XZZZ      18.4068   YZZZ     -59.1035   ZZZZ   -1262.7736
 -----------------------------------------------------------------
Archival summary:
1\1\vega02.cac.cornell.edu\OPT\ProcedureUnspecified\STO-3G\102026\jj585\TueJan1603:42:242018TueJan1603:42:242018\0\\#,OPT,ProcedureUnspecified,STO-3G,\\0,1\O\C,1,1.25516\O,2,1.41804,1,125.203\C,3,1.48556,2,110.711,1,-3.98068,0\H,4,1.10506,3,105.543,2,-171.091,0\H,4,1.10867,3,110.943,2,70.7417,0\H,4,1.11715,3,110.766,2,-51.3101,0\C,2,1.57165,1,124.347,3,179.107,0\H,8,1.10609,2,107.582,1,-74.6203,0\C,8,1.58509,2,114.411,1,161.363,0\H,10,1.10659,8,114.132,2,34.0216,0\O,10,1.48124,8,103.525,2,-86.2154,0\C,12,1.47965,10,95.0426,8,-56.5426,0\H,13,1.10722,12,110.509,10,-179.919,0\C,10,1.57906,8,108.104,2,164.426,0\H,15,1.10164,10,110.398,8,-167.733,0\H,15,1.10175,10,112.256,8,-46.3048,0\C,15,1.57368,10,101.142,8,74.1788,0\H,18,1.10155,15,111.546,10,117.83,0\H,18,1.10179,15,112.808,10,-119.458,0\C,8,1.58852,2,112.058,1,46.94,0\H,21,1.10391,8,111.508,2,-118.291,0\C,21,1.56664,8,114.005,2,3.68773,0\O,23,1.24954,21,127.304,8,-123.131,0\O,23,1.43623,21,108.29,8,58.8066,0\C,25,1.48073,23,110.493,21,178.636,0\H,26,1.11126,25,110.258,23,24.953,0\H,26,1.11292,25,109.533,23,-94.0985,0\C,26,1.56728,25,108.682,23,147.311,0\H,29,1.10897,26,109.667,25,43.9611,0\H,29,1.11121,26,108.699,25,164.065,0\O,29,1.48141,26,112.909,25,-73.6043,0\C,32,1.43728,29,111.018,26,-81.2912,0\O,33,1.25003,32,122.982,29,-1.03531,0\C,33,1.56072,32,108.656,29,179.88,0\H,35,1.10522,33,107.68,32,50.5293,0\C,35,1.58514,33,113.588,32,174.332,0\H,37,1.10439,35,110.372,33,-118.95,0\C,37,1.57499,35,114.178,33,1.94429,0\O,39,1.25067,37,126.351,35,-99.5338,0\O,39,1.4323,37,109.097,35,84.9201,0\C,41,1.47905,39,109.643,37,-176.457,0\H,42,1.10552,41,106.068,39,-178.024,0\H,42,1.10935,41,111.026,39,62.9857,0\H,42,1.10938,41,111.802,39,-58.4959,0\C,37,1.58808,35,100.451,33,122.779,0\H,46,1.1067,37,114.349,35,-157.137,0\O,46,1.4803,37,103.278,35,-36.8738,0\C,48,1.478,46,95.4476,37,57.5836,0\H,49,1.11768,48,111.029,46,-178.841,0\C,49,1.579,48,103.325,46,56.1317,0\H,51,1.1018,49,112.455,48,-156.012,0\H,51,1.10188,49,110.237,48,82.6291,0\C,51,1.57382,49,101.284,48,-35.4288,0\H,54,1.10152,51,111.553,49,118.351,0\H,54,1.10182,51,112.746,49,-119.009,0\\\@

 Total job time:  99.91s(wall), 4767.14s(cpu) 
 Tue Jan 16 03:42:24 2018

        *************************************************************
        *                                                           *
        *  Thank you very much for using Q-Chem.  Have a nice day.  *
        *                                                           *
        *************************************************************


0 sent ACK to 0 
now end server 0 ... 
