mFile = /opt/software/qchem/qchem-5.0.1//bin/mpi/machines
Process 0 of 1 is on vega02.cac.cornell.edu - thread support 0
initial socket setup ...start
initial socket setup ...done 
now start server 0 ... 
vega02.cac.cornell.edu 10.84.3
Q-Chem Developer Version! Running on 10.84.3.*
                  Welcome to Q-Chem
     A Quantum Leap Into The Future Of Chemistry


 Q-Chem 5.0, Q-Chem, Inc., Pleasanton, CA (2017)

 Yihan Shao,  Zhengting Gan,  E. Epifanovsky,  A. T. B. Gilbert,  M. Wormit,  
 J. Kussmann,  A. W. Lange,  A. Behn,  Jia Deng,  Xintian Feng,  D. Ghosh,  
 M. Goldey,  P. R. Horn,  L. D. Jacobson,  I. Kaliman,  T. Kus,  A. Landau,  
 Jie Liu,  E. I. Proynov,  R. M. Richard,  R. P. Steele,  E. J. Sundstrom,  
 H. L. Woodcock III,  P. M. Zimmerman,  D. Zuev,  B. Albrecht,  E. Alguire,  
 S. A. Baeppler,  Z. Benda,  Y. A. Bernard,  E. J. Berquist,  K. B. Bravaya,  
 D. Casanova,  Chun-Min Chang,  Yunqing Chen,  A. Chien,  K. D. Closser,  
 M. P. Coons,  S. Dasgupta,  M. Diedenhofen,  Hainam Do,  R. G. Edgar,  
 Po-Tung Fang,  S. Fatehi,  Qingguo Feng,  Qinghui Ge,  A. Ghysels,  
 J. Gomes,  J. Gonthier,  A. Gunina,  M. W. D. Hanson-Heine,  
 P. H. P. Harbach,  A. W. Hauser,  J. E. Herr,  E. G. Hohenstein,  
 Z. C. Holden,  Kerwin Hui,  T.-C. Jagau,  Hyunjun Ji,  B. Kaduk,  
 K. Khistyaev,  Jaehoon Kim,  P. Klunzinger,  K. Koh,  D. Kosenkov,  
 T. Kowalczyk,  C. M. Krauter,  A. Kunitsa,  Ka Un Lao,  A. Laurent,  
 K. V. Lawler,  Joonho Lee,  D. Lefrancois,  S. Lehtola,  D. S. Levine,  
 Yi-Pei Li,  You-Sheng Lin,  Fenglai Liu,  E. Livshits,  A. Luenser,  
 P. Manohar,  E. Mansoor,  S. F. Manzer,  Shan-Ping Mao,  Yuezhi Mao,  
 N. Mardirossian,  A. V. Marenich,  L. A. Martinez-Martinez,  S. A. Maurer,  
 N. J. Mayhall,  S. C. McKenzie,  J.-M. Mewes,  A. F. Morrison,  K. Nanda,  
 T. S. Nguyen-Beck,  R. Olivares-Amaya,  J. A. Parkhill,  T. M. Perrine,  
 F. Plasser,  S. Prager,  A. Prociuk,  D. R. Rehn,  F. Rob,  M. Schneider,  
 N. Sergueev,  S. M. Sharada,  S. Sharma,  D. W. Small,  T. Stauch,  
 T. Stein,  Yu-Chuan Su,  A. J. W. Thom,  T. Tsuchimochi,  L. Vogt,  
 O. Vydrov,  M. A. Watson,  J. Wenzel,  M. de Wergifosse,  T. A. Wesolowski,  
 A. White,  J. Witte,  A. Yamada,  Jun Yang,  K. Yao,  S. Yeganeh,  
 S. R. Yost,  Zhi-Qiang You,  A. Zech,  Igor Ying Zhang,  Xing Zhang,  
 Yan Zhao,  Ying Zhu,  B. R. Brooks,  G. K. L. Chan,  C. J. Cramer,  
 M. S. Gordon,  W. J. Hehre,  A. Klamt,  M. W. Schmidt,  C. D. Sherrill,  
 D. G. Truhlar,  A. Aspuru-Guzik,  R. Baer,  A. T. Bell,  N. A. Besley,  
 Jeng-Da Chai,  A. Dreuw,  B. D. Dunietz,  T. R. Furlani,  Chao-Ping Hsu,  
 Yousung Jung,  Jing Kong,  D. S. Lambrecht,  WanZhen Liang,  C. Ochsenfeld,  
 V. A. Rassolov,  L. V. Slipchenko,  J. E. Subotnik,  T. Van Voorhis,  
 J. M. Herbert,  A. I. Krylov,  P. M. W. Gill,  M. Head-Gordon

 Contributors to earlier versions of Q-Chem not listed above: 
 R. D. Adamson,  B. Austin,  J. Baker,  G. J. O. Beran,  K. Brandhorst,  
 S. T. Brown,  E. F. C. Byrd,  A. K. Chakraborty,  C.-L. Cheng,  
 Siu Hung Chien,  D. M. Chipman,  D. L. Crittenden,  H. Dachsel,  
 R. A. DiStasio Jr.,  R. J. Doerksen,  A. D. Dutoi,  L. Fusti-Molnar,  
 W. A. Goddard III,  A. Golubeva-Zadorozhnaya,  S. R. Gwaltney,  G. Hawkins,  
 A. Heyden,  S. Hirata,  G. Kedziora,  F. J. Keil,  C. Kelley,  Jihan Kim,  
 R. A. King,  R. Z. Khaliullin,  P. P. Korambath,  W. Kurlancheek,  
 A. M. Lee,  M. S. Lee,  S. V. Levchenko,  Ching Yeh Lin,  D. Liotard,  
 R. C. Lochan,  I. Lotan,  P. E. Maslen,  N. Nair,  D. P. O'Neill,  
 D. Neuhauser,  E. Neuscamman,  C. M. Oana,  R. Olson,  B. Peters,  
 R. Peverati,  P. A. Pieniazek,  Y. M. Rhee,  J. Ritchie,  M. A. Rohrdanz,  
 E. Rosta,  N. J. Russ,  H. F. Schaefer III,  N. E. Schultz,  N. Shenvi,  
 A. C. Simmonett,  A. Sodt,  D. Stuck,  K. S. Thanthiriwatte,  V. Vanovschi,  
 Tao Wang,  A. Warshel,  C. F. Williams,  Q. Wu,  X. Xu,  W. Zhang

 Please cite Q-Chem as follows:
 Y. Shao et al., Mol. Phys. 113, 184-215 (2015)
 DOI: 10.1080/00268976.2014.952696

 Q-Chem 5.0.1 for Intel X86 EM64T Linux

 Parts of Q-Chem use Armadillo 5.200.1 (Boston Tea Smuggler).
 http://arma.sourceforge.net/

 Q-Chem begins on Tue Jan 16 08:23:27 2018  

Host: vega02.cac.cornell.edu
0

     Scratch files written to /scratch/jj585/SOT1001/1094r.save//
 Parallel job on  1  processors

Checking the input file for inconsistencies... 	...done.

--------------------------------------------------------------
User input:
--------------------------------------------------------------
$molecule
0  1
O -2.2246145683 -1.0289993776 2.2936945675
C -2.6919137648 -1.3450194 1.1771571364
C -3.625332363 -0.4467930076 0.2827492013
C -3.2260965484 1.0866386831 0.2988798435
C -1.7736593695 1.3359373995 0.8256177871
O -1.7517539591 2.4958696112 1.6706598634
C -0.3758199142 2.6507063357 2.2049375076
C 0.6845498501 3.0256359697 1.0927094832
O 1.8469685025 2.1154368131 1.1866158822
C 2.1533174247 1.5875370083 -0.1208674325
C 3.38907526 0.6458215375 0.0447522657
C 3.0644999255 -0.814265304 0.5745816169
C 1.5938945327 -1.3240371535 0.3372266845
O 0.9869564874 -2.1374180391 1.0746724091
O -2.5263649978 -2.621545916 0.5646414715
O 1.1561894661 -0.842720262 -0.9210113353
O 1.5521293798 1.9195764424 -1.1643304787
C -0.1284928453 -1.4417301723 -1.3600881471
C 4.2015854749 0.3299343505 -1.2844148355
C 5.6932124786 0.0580260519 -0.8467610846
C 5.5253187046 -1.3177083894 -0.0979334344
C 4.0084787958 -1.6552464699 -0.3971908369
O 3.7459176824 -1.014460794 -1.7053737552
H 4.0504040135 1.141404065 0.778728779
H 3.3196544774 -0.9408927526 1.6409027525
H 4.0565676187 1.0621020588 -2.1021731832
H 6.3389961961 -0.0444760455 -1.7338137459
H 6.100145247 0.852223394 -0.200865682
H 6.1852523131 -2.0938286758 -0.5165412917
H 5.7203520675 -1.2357345896 0.9835342946
H 3.769022893 -2.7357469117 -0.4394684665
O -0.7569342701 0.6561118418 0.5676985383
C -1.6462734705 -3.47437475 1.4070479383
C -3.6058245125 -0.76760027 -1.2709935479
C -4.9462211941 -0.2230427088 -1.8945367794
C -4.6997771812 1.3306163824 -1.8210141926
C -3.2227669918 1.3873744469 -1.264721501
O -2.590005144 0.1647926003 -1.8181468044
H -4.6526968749 -0.5659522225 0.6755049997
H -3.9415981472 1.7146401686 0.8564213023
H -2.0243895725 -3.5378770918 2.4464907494
H -3.3438268475 -1.8154525879 -1.5115226137
H -5.0502376908 -0.5639191006 -2.937059375
H -5.8336773062 -0.5432271454 -1.3259047089
H -4.7572475303 1.7993374233 -2.8161345474
H -5.4085284238 1.8408467661 -1.1491195758
H -2.6442389694 2.2854768944 -1.5564600407
H -0.6075671498 -3.0645044276 1.4051765998
H -1.6659635976 -4.4759455532 0.9404553127
H 0.0566834219 -1.943057283 -2.3303425069
H -0.8962075755 -0.641734459 -1.4876705954
H -0.4939416397 -2.1795231288 -0.6234314285
H 0.2569967483 2.9498245879 0.0689394919
H 1.0431544292 4.065736443 1.247837961
H -0.0431453107 1.7119415099 2.699558067
H -0.4515994228 3.4556090629 2.9618354699
$end

$rem
JOBTYPE                   OPT
METHOD                    B3LYP
DFT_D                     d3_op
BASIS                     STO-3G
GEOM_OPT_MAX_CYCLES       100
GEOM_OPT_TOL_GRADIENT     300
GEOM_OPT_TOL_DISPLACEMENT 1200
GEOM_OPT_TOL_ENERGY       100
SYMMETRY                  False
THRESH                    12
SCF_CONVERGENCE           8
MAX_SUB_FILE_NUM          128
MEM_STATIC                400
MEM_TOTAL                 4000
$end
--------------------------------------------------------------
 Adding empirical dispersion correction 
 ----------------------------------------------------------------
 Doing -D3(op) with
 s6 =   1.00000
 s8 =   0.78311
 a1 =   0.30000
 a2 =   4.25000
 n  =  10.00000
 -D3 energy without 3body term =     -0.0762088714 hartrees
 ----------------------------------------------------------------
             Standard Nuclear Orientation (Angstroms)
    I     Atom           X                Y                Z
 ----------------------------------------------------------------
    1      O       2.1928210731     0.9009511533     2.3711825364
    2      C       2.6364612219     1.3308851091     1.2834172857
    3      C       3.5946128808     0.5509865068     0.3078405052
    4      C       3.2546174061    -0.9924538463     0.1927008637
    5      C       1.8181489038    -1.3431450552     0.7052926971
    6      O       1.8491752553    -2.5721428645     1.4459818652
    7      C       0.4856053016    -2.8264706162     1.9738226408
    8      C      -0.5707023117    -3.1443693718     0.8401727597
    9      O      -1.7661497419    -2.2918753092     1.0208862202
   10      C      -2.1055826348    -1.6646309437    -0.2334623363
   11      C      -3.3748013178    -0.7898649132     0.0219269087
   12      C      -3.1011294464     0.6301670002     0.6750233378
   13      C      -1.6535910460     1.2156867724     0.4733203390
   14      O      -1.0709152637     1.9849281248     1.2749094651
   15      O       2.4159882038     2.6484032643     0.7857835460
   16      O      -1.2103846268     0.8630835168    -0.8250068940
   17      O      -1.5025914159    -1.8809316526    -1.3058932074
   18      C       0.0459366038     1.5477183777    -1.2186336629
   19      C      -4.2120905029    -0.3915472242    -1.2691705262
   20      C      -5.7085843502    -0.2171880703    -0.7995631400
   21      C      -5.5860453022     1.0937109484     0.0653671267
   22      C      -4.0863280991     1.5149705426    -0.2133422610
   23      O      -3.8125170564     1.0011291914    -1.5741808800
   24      H      -4.0092685506    -1.3728490122     0.7142130884
   25      H      -3.3502578435     0.6535159265     1.7499972862
   26      H      -4.0473171087    -1.0435966942    -2.1486645081
   27      H      -6.3666728108    -0.0632236233    -1.6699769731
   28      H      -6.0782935528    -1.0798323176    -0.2227749852
   29      H      -6.2793962988     1.8769322232    -0.2795044943
   30      H      -5.7669538099     0.9104391731     1.1368211545
   31      H      -3.8888913719     2.6035772326    -0.1627265984
   32      O       0.7735859178    -0.6836876887     0.5144545309
   33      C       1.5123407632     3.3897160694     1.7052417561
   34      C       3.5472661751     1.0046998936    -1.2118031499
   35      C       4.9012354969     0.5691946037    -1.8893830943
   36      C       4.7152618388    -0.9934058932    -1.9501307640
   37      C       3.2471568766    -1.1559633702    -1.3911271655
   38      O       2.5624965070     0.0844720947    -1.8315060135
   39      H       4.6205378638     0.6755634905     0.7026725967
   40      H       3.9992077950    -1.6381440966     0.6885336332
   41      H       1.8981360085     3.3772941811     2.7437278739
   42      H       3.2429086483     2.0584673809    -1.3582000990
   43      H       4.9816666928     1.0032484820    -2.8988371853
   44      H       5.7814193226     0.8731218164    -1.3008735036
   45      H       4.7806842139    -1.3712021600    -2.9827278148
   46      H       5.4497390298    -1.5320703567    -1.3300585133
   47      H       2.7005791162    -2.0471941706    -1.7563044740
   48      H       0.4901382550     2.9413139454     1.6744916161
   49      H       1.4889597004     4.4280734857     1.3277398951
   50      H      -0.1680232158     2.1239140419    -2.1401717233
   51      H       0.8424293059     0.7924414658    -1.4206546797
   52      H       0.3902014940     2.2323545674    -0.4228262979
   53      H      -0.1566425666    -2.9631700454    -0.1758859725
   54      H      -0.8876123113    -4.2072274938     0.9062919544
   55      H       0.1221689814    -1.9479896894     2.5506992222
   56      H       0.5997514491    -3.6905755132     2.6570494286
 ----------------------------------------------------------------
 Molecular Point Group                 C1    NOp =  1
 Largest Abelian Subgroup              C1    NOp =  1
 Nuclear Repulsion Energy =  3368.3789637218 hartrees
 There are      113 alpha and      113 beta electrons
 Requested basis set is STO-3G
 There are 86 shells and 176 basis functions

 Total QAlloc Memory Limit   4000 MB
 Mega-Array Size       392 MB
 MEM_STATIC part       400 MB
 A cutoff of  1.0D-12 yielded   2497 shell pairs
 There are     12139 function pairs
 
 -------------------------------------------------------
 OpenMP Integral Computing Module                       
 Release: version 1.0, May 2013, Q-Chem Inc. Pittsburgh 
 -------------------------------------------------------
 Integral Job Info:
 Integral job number is                      11
 Integral operator is                         1
 short-range coefficients                     0
 long-range coefficients              100000000
 Omega coefficients                           0
 if combine SR and LR in K                    0
 Integral screening is                        0
 Integral computing path is                   2
 max size of driver memory is            800000
 size of driver memory is                 45569
 size of scratch memory is              1046100
 max col of scratch BK array                289
 max len of scratch array in speh3           22
 max len of scratch index in speh4            8
 max int batch size is                      520
 min int batch size is                       52
 fixed nKL is                                52
 max L of basis functions is                  1
 order of int derivative is                   0
 number of shells is                         86
 number of basis is                         176
 number of cartesian basis is               176
 number of contracted shell pairs          2497
 number of primitive shell pairs          12316
 maxK2 (contraction) of shell pair            9
 max number of K2 of shell pair               1
 max number of CS2 of shell pair            378
 max number of PS2 of shell pair           1320
 mem total for path MDJ                   52746
 -------------------------------------------------------
 Smallest overlap matrix eigenvalue = 2.13E-01

 Scale SEOQF with 1.000000e-02/1.000000e-01/1.000000e-01

 Standard Electronic Orientation quadrupole field applied
 Nucleus-field energy     =     0.0000000140 hartrees
 Guess from superposition of atomic densities
 Warning:  Energy on first SCF cycle will be non-variational
 A restricted hybrid HF-DFT SCF calculation will be
 performed using Pulay DIIS extrapolation
 Exchange:     0.2000 Hartree-Fock + 0.0800 Slater + 0.7200 B88
 Correlation:  0.1900 VWN1RPA + 0.8100 LYP
 Using SG-1 standard quadrature grid
 Dispersion:   Grimme D3
 SCF converges when DIIS error is below 1.0E-08
 using 48 threads for integral computing
 -------------------------------------------------------
 OpenMP Integral computing Module                
 Release: version 1.0, May 2013, Q-Chem Inc. Pittsburgh 
 -------------------------------------------------------
 -------------------------------------------------------
 OpenMP BLAS3 based DFT computing Module                
 Release: version 1.0, May 2013, Q-Chem Inc. Pittsburgh 
 -------------------------------------------------------
 ---------------------------------------
  Cycle       Energy         DIIS Error
 ---------------------------------------
    1   -1507.6541318109      7.47E-02
    2   -1509.7604539897      1.02E-02
    3   -1507.6229912945      2.58E-02
    4   -1510.2034026076      4.33E-03
    5   -1510.2815344825      1.36E-03
    6   -1510.2893597814      4.23E-04
    7   -1510.2900418967      1.66E-04
    8   -1510.2901598110      3.26E-05
    9   -1510.2901643451      8.76E-06
   10   -1510.2901646457      3.65E-06
   11   -1510.2901646917      1.74E-06
   12   -1510.2901647048      3.15E-07
   13   -1510.2901647053      9.55E-08
   14   -1510.2901647053      2.82E-08
   15   -1510.2901647053      9.09E-09 Convergence criterion met
 ---------------------------------------
 SCF time:  CPU 122.26 s  wall 2.61 s
 SCF   energy in the final basis set = -1510.29016471
 Total energy in the final basis set = -1510.29016471
 
 --------------------------------------------------------------
 
                    Orbital Energies (a.u.)
 --------------------------------------------------------------
 
 Alpha MOs
 -- Occupied --
-18.933 -18.926 -18.923 -18.922 -18.901 -18.883 -18.873 -18.871
-18.864 -18.861 -10.097 -10.094 -10.093 -10.091 -10.068 -10.066
-10.062 -10.060 -10.055 -10.054 -10.040 -10.037 -10.037 -10.032
-10.031 -10.025 -10.024 -10.023 -10.017 -10.016  -1.014  -1.003
 -1.001  -0.995  -0.978  -0.964  -0.935  -0.929  -0.926  -0.921
 -0.766  -0.758  -0.727  -0.719  -0.712  -0.703  -0.691  -0.648
 -0.639  -0.615  -0.593  -0.577  -0.548  -0.541  -0.539  -0.532
 -0.510  -0.504  -0.476  -0.469  -0.461  -0.453  -0.451  -0.439
 -0.434  -0.428  -0.426  -0.418  -0.406  -0.397  -0.391  -0.387
 -0.386  -0.373  -0.368  -0.360  -0.359  -0.356  -0.348  -0.341
 -0.338  -0.335  -0.332  -0.326  -0.324  -0.321  -0.318  -0.313
 -0.306  -0.302  -0.300  -0.295  -0.290  -0.285  -0.278  -0.273
 -0.266  -0.258  -0.244  -0.242  -0.240  -0.229  -0.227  -0.181
 -0.167  -0.165  -0.163  -0.152  -0.150  -0.149  -0.142  -0.141
 -0.136
 -- Virtual --
  0.097   0.106   0.111   0.114   0.224   0.239   0.250   0.255
  0.265   0.274   0.285   0.291   0.308   0.314   0.322   0.329
  0.337   0.343   0.346   0.354   0.356   0.363   0.368   0.372
  0.374   0.377   0.387   0.400   0.404   0.406   0.406   0.413
  0.413   0.420   0.420   0.434   0.436   0.437   0.441   0.442
  0.449   0.452   0.456   0.457   0.461   0.465   0.469   0.475
  0.486   0.487   0.491   0.495   0.506   0.507   0.515   0.536
  0.543   0.549   0.557   0.640   0.655   0.658   0.666
 --------------------------------------------------------------
 
          Ground-State Mulliken Net Atomic Charges

     Atom                 Charge (a.u.)
  ----------------------------------------
      1 O                    -0.216108
      2 C                     0.211448
      3 C                    -0.079422
      4 C                    -0.079398
      5 C                     0.211814
      6 O                    -0.169967
      7 C                    -0.050813
      8 C                    -0.056807
      9 O                    -0.175295
     10 C                     0.218363
     11 C                    -0.078301
     12 C                    -0.075078
     13 C                     0.219515
     14 O                    -0.226355
     15 O                    -0.175229
     16 O                    -0.158674
     17 O                    -0.205270
     18 C                    -0.145560
     19 C                     0.026315
     20 C                    -0.142209
     21 C                    -0.145170
     22 C                     0.024801
     23 O                    -0.184846
     24 H                     0.083562
     25 H                     0.085209
     26 H                     0.088277
     27 H                     0.077113
     28 H                     0.072395
     29 H                     0.077335
     30 H                     0.073396
     31 H                     0.081703
     32 O                    -0.212932
     33 C                    -0.146979
     34 C                     0.024120
     35 C                    -0.142534
     36 C                    -0.144106
     37 C                     0.026843
     38 O                    -0.185973
     39 H                     0.084130
     40 H                     0.088171
     41 H                     0.083191
     42 H                     0.095777
     43 H                     0.079560
     44 H                     0.074938
     45 H                     0.079904
     46 H                     0.075345
     47 H                     0.085636
     48 H                     0.118535
     49 H                     0.081009
     50 H                     0.077206
     51 H                     0.113925
     52 H                     0.089304
     53 H                     0.102767
     54 H                     0.078192
     55 H                     0.099130
     56 H                     0.088093
  ----------------------------------------
  Sum of atomic charges =    -0.000000

 -----------------------------------------------------------------
                    Cartesian Multipole Moments
 -----------------------------------------------------------------
    Charge (ESU x 10^10)
                -0.0000
    Dipole Moment (Debye)
         X       0.9332      Y      -1.0887      Z       0.4115
       Tot       1.4918
    Quadrupole Moments (Debye-Ang)
        XX    -135.8499     XY       0.9020     YY    -151.8252
        XZ      -7.4988     YZ      -1.2951     ZZ    -166.6709
    Octopole Moments (Debye-Ang^2)
       XXX       5.3174    XXY      -2.0840    XYY      -1.1006
       YYY      -2.4785    XXZ      -2.1162    XYZ       1.8500
       YYZ      10.4690    XZZ       7.1666    YZZ      -5.2555
       ZZZ       6.1173
    Hexadecapole Moments (Debye-Ang^3)
      XXXX   -8986.8463   XXXY       7.0523   XXYY   -2065.9787
      XYYY      33.8347   YYYY   -2727.4309   XXXZ       3.1312
      XXYZ      43.4566   XYYZ      17.1094   YYYZ     -14.5731
      XXZZ   -1881.7647   XYZZ      26.1817   YYZZ    -730.2321
      XZZZ       8.5038   YZZZ      -8.3323   ZZZZ   -1685.4174
 -----------------------------------------------------------------
 Calculating analytic gradient of the SCF energy
 Gradient of SCF Energy
            1           2           3           4           5           6
    1   0.0004905  -0.0010504  -0.0009122   0.0022285  -0.0025541   0.0014545
    2  -0.0000395  -0.0007721   0.0007407   0.0009660  -0.0032106  -0.0034597
    3   0.0002773  -0.0004181  -0.0032760   0.0074824  -0.0065234   0.0015187
            7           8           9          10          11          12
    1   0.0009507  -0.0001048  -0.0012974   0.0006145  -0.0010139  -0.0000827
    2   0.0016936   0.0062804  -0.0028451   0.0004226   0.0008750  -0.0012698
    3   0.0009537  -0.0033586   0.0038918   0.0016739  -0.0062075   0.0044841
           13          14          15          16          17          18
    1   0.0004141  -0.0007773   0.0002216   0.0000264  -0.0000916   0.0000140
    2  -0.0023050   0.0016357  -0.0000672   0.0000670   0.0001507   0.0001028
    3   0.0009452  -0.0010150  -0.0001636   0.0000250   0.0000403   0.0000332
           19          20          21          22          23          24
    1   0.0001816  -0.0001482   0.0002528  -0.0001638   0.0000560   0.0000938
    2   0.0002151  -0.0003017   0.0003329  -0.0002195   0.0000925   0.0001191
    3  -0.0001408   0.0001480  -0.0000319  -0.0001632   0.0000769   0.0000348
           25          26          27          28          29          30
    1   0.0000662   0.0000917   0.0000039   0.0000314   0.0000420  -0.0000137
    2  -0.0000255   0.0000764  -0.0000034  -0.0000137   0.0000011  -0.0000882
    3  -0.0000045  -0.0000408  -0.0000142  -0.0000081   0.0000654  -0.0000193
           31          32          33          34          35          36
    1   0.0000779  -0.0000710   0.0000620   0.0001645  -0.0000740  -0.0000137
    2   0.0000263  -0.0000745   0.0000701  -0.0001942   0.0002074  -0.0001723
    3  -0.0000043   0.0001684  -0.0000248  -0.0004992   0.0002443  -0.0001975
           37          38          39          40          41          42
    1   0.0001326   0.0000788  -0.0000074   0.0000615  -0.0000090  -0.0000793
    2   0.0001679   0.0001258   0.0001133   0.0000442   0.0000280  -0.0000492
    3  -0.0001322  -0.0000537   0.0000142   0.0000082  -0.0000127   0.0002068
           43          44          45          46          47          48
    1  -0.0000976  -0.0000025   0.0000629   0.0000283   0.0000006   0.0000148
    2   0.0000061  -0.0000617  -0.0000812  -0.0000051  -0.0000092   0.0000941
    3   0.0000653  -0.0000277   0.0000533   0.0000009   0.0000417  -0.0000365
           49          50          51          52          53          54
    1   0.0000080   0.0000743   0.0001033   0.0001206   0.0002255   0.0000324
    2   0.0000236   0.0000134   0.0001011   0.0001255   0.0001786   0.0000740
    3   0.0000270   0.0000231  -0.0000302  -0.0000168  -0.0001141  -0.0000027
           55          56
    1   0.0000808   0.0000015
    2   0.0000780   0.0000194
    3   0.0000187   0.0000148
 Max gradient component =       7.482E-03
 RMS gradient           =       1.359E-03
 Gradient time:  CPU 33.69 s  wall 0.72 s
 Geometry Optimization Parameters
   NAtoms,    NIC,     NZ,  NCons,   NDum,   NFix, NCnnct, MaxDiis
       56     458       0       0       0       0       0       0


** GEOMETRY OPTIMIZATION IN DELOCALIZED INTERNAL COORDINATES **
   Searching for a Minimum

   Optimization Cycle:   1

                       Coordinates (Angstroms)
     ATOM                X               Y               Z
      1  O         2.1928210731    0.9009511533    2.3711825364
      2  C         2.6364612219    1.3308851091    1.2834172857
      3  C         3.5946128808    0.5509865068    0.3078405052
      4  C         3.2546174061   -0.9924538463    0.1927008637
      5  C         1.8181489038   -1.3431450552    0.7052926971
      6  O         1.8491752553   -2.5721428645    1.4459818652
      7  C         0.4856053016   -2.8264706162    1.9738226408
      8  C        -0.5707023117   -3.1443693718    0.8401727597
      9  O        -1.7661497419   -2.2918753092    1.0208862202
     10  C        -2.1055826348   -1.6646309437   -0.2334623363
     11  C        -3.3748013178   -0.7898649132    0.0219269087
     12  C        -3.1011294464    0.6301670002    0.6750233378
     13  C        -1.6535910460    1.2156867724    0.4733203390
     14  O        -1.0709152637    1.9849281248    1.2749094651
     15  O         2.4159882038    2.6484032643    0.7857835460
     16  O        -1.2103846268    0.8630835168   -0.8250068940
     17  O        -1.5025914159   -1.8809316526   -1.3058932074
     18  C         0.0459366038    1.5477183777   -1.2186336629
     19  C        -4.2120905029   -0.3915472242   -1.2691705262
     20  C        -5.7085843502   -0.2171880703   -0.7995631400
     21  C        -5.5860453022    1.0937109484    0.0653671267
     22  C        -4.0863280991    1.5149705426   -0.2133422610
     23  O        -3.8125170564    1.0011291914   -1.5741808800
     24  H        -4.0092685506   -1.3728490122    0.7142130884
     25  H        -3.3502578435    0.6535159265    1.7499972862
     26  H        -4.0473171087   -1.0435966942   -2.1486645081
     27  H        -6.3666728108   -0.0632236233   -1.6699769731
     28  H        -6.0782935528   -1.0798323176   -0.2227749852
     29  H        -6.2793962988    1.8769322232   -0.2795044943
     30  H        -5.7669538099    0.9104391731    1.1368211545
     31  H        -3.8888913719    2.6035772326   -0.1627265984
     32  O         0.7735859178   -0.6836876887    0.5144545309
     33  C         1.5123407632    3.3897160694    1.7052417561
     34  C         3.5472661751    1.0046998936   -1.2118031499
     35  C         4.9012354969    0.5691946037   -1.8893830943
     36  C         4.7152618388   -0.9934058932   -1.9501307640
     37  C         3.2471568766   -1.1559633702   -1.3911271655
     38  O         2.5624965070    0.0844720947   -1.8315060135
     39  H         4.6205378638    0.6755634905    0.7026725967
     40  H         3.9992077950   -1.6381440966    0.6885336332
     41  H         1.8981360085    3.3772941811    2.7437278739
     42  H         3.2429086483    2.0584673809   -1.3582000990
     43  H         4.9816666928    1.0032484820   -2.8988371853
     44  H         5.7814193226    0.8731218164   -1.3008735036
     45  H         4.7806842139   -1.3712021600   -2.9827278148
     46  H         5.4497390298   -1.5320703567   -1.3300585133
     47  H         2.7005791162   -2.0471941706   -1.7563044740
     48  H         0.4901382550    2.9413139454    1.6744916161
     49  H         1.4889597004    4.4280734857    1.3277398951
     50  H        -0.1680232158    2.1239140419   -2.1401717233
     51  H         0.8424293059    0.7924414658   -1.4206546797
     52  H         0.3902014940    2.2323545674   -0.4228262979
     53  H        -0.1566425666   -2.9631700454   -0.1758859725
     54  H        -0.8876123113   -4.2072274938    0.9062919544
     55  H         0.1221689814   -1.9479896894    2.5506992222
     56  H         0.5997514491   -3.6905755132    2.6570494286
   Point Group: c1    Number of degrees of freedom:   162


   Energy is  -1510.290164705


 Attempting to Generate Delocalized Internal Coordinates

162 Hessian modes will be used to form the next step
  Hessian Eigenvalues:
     0.002000    0.002000    0.002000    0.002000    0.002000    0.002719
     0.002803    0.003953    0.004104    0.004121    0.004518    0.004545
     0.004673    0.005148    0.005553    0.006786    0.006829    0.009967
     0.010979    0.012270    0.013465    0.021567    0.021602    0.025717
     0.025968    0.030644    0.030696    0.034990    0.035334    0.038849
     0.039728    0.041759    0.041931    0.043816    0.044980    0.045814
     0.048315    0.048777    0.048918    0.051018    0.051059    0.053511
     0.053873    0.054609    0.055485    0.055612    0.055833    0.055960
     0.056400    0.059131    0.059591    0.060454    0.060842    0.062995
     0.063662    0.064462    0.064485    0.069782    0.070511    0.073266
     0.073312    0.091293    0.091370    0.092840    0.092899    0.096048
     0.097329    0.098144    0.098542    0.102020    0.103671    0.110257
     0.111403    0.112118    0.114717    0.121615    0.121744    0.136543
     0.138793    0.156686    0.157603    0.160000    0.160000    0.160000
     0.160000    0.160000    0.160000    0.164187    0.164330    0.218133
     0.218600    0.220063    0.221064    0.227209    0.228248    0.237890
     0.238105    0.238979    0.240534    0.243363    0.245645    0.248465
     0.249594    0.249594    0.249997    0.250000    0.250000    0.250000
     0.250000    0.250000    0.250000    0.250000    0.250000    0.251170
     0.252485    0.254659    0.256729    0.256934    0.264155    0.266165
     0.290442    0.293398    0.305010    0.307667    0.319059    0.319637
     0.323840    0.323865    0.324873    0.328232    0.328441    0.328637
     0.328686    0.328740    0.329013    0.329662    0.329933    0.331032
     0.331246    0.331582    0.332750    0.333242    0.334618    0.334656
     0.334767    0.334885    0.335057    0.335100    0.335185    0.335265
     0.337670    0.341018    0.341250    0.346433    0.391866    0.402404
     0.416401    0.429950    0.815935    0.828843    0.832494    0.835343

 Minimum Search - Taking Simple RFO Step
 Searching for Lamda that Minimizes Along All modes
 Value Taken    Lamda =  -0.01780357
 Calculated Step too Large.  Step scaled by  0.346191
 Step Taken.  Stepsize is  0.300000

                             Maximum     Tolerance    Cnvgd?
         Gradient           0.016708      0.000300      NO
         Displacement       0.201908      0.001200      NO
         Energy change     *********      0.000001      NO


 New Cartesian Coordinates Obtained by Inverse Iteration

 Displacement from previous Coordinates is:  5.993512
 Adding empirical dispersion correction 
 ----------------------------------------------------------------
 Doing -D3(op) with
 s6 =   1.00000
 s8 =   0.78311
 a1 =   0.30000
 a2 =   4.25000
 n  =  10.00000
 -D3 energy without 3body term =     -0.0740249145 hartrees
 ----------------------------------------------------------------
             Standard Nuclear Orientation (Angstroms)
    I     Atom           X                Y                Z
 ----------------------------------------------------------------
    1      O       2.4691492627     0.7925126648     2.6682230515
    2      C       2.8362328411     1.3139220598     1.5920099528
    3      C       3.6369394164     0.5908468657     0.4453063601
    4      C       3.1808899786    -0.9076645349     0.2070229965
    5      C       1.7831649290    -1.2286386424     0.8330182617
    6      O       1.8187673334    -2.5088356271     1.4812452419
    7      C       0.4726706939    -2.7783486381     2.0456288901
    8      C      -0.6019420709    -3.1560771443     0.9478739876
    9      O      -1.7856145507    -2.2800160567     1.0892952644
   10      C      -2.1777948935    -1.7868054852    -0.2087270872
   11      C      -3.3838931776    -0.8190825009     0.0157899006
   12      C      -2.9935890646     0.6651555244     0.4186456034
   13      C      -1.5441075423     1.1289164834     0.0148143203
   14      O      -0.8501557773     1.9588228714     0.6500136667
   15      O       2.6561241555     2.6881902955     1.2591139814
   16      O      -1.2345807657     0.5630533352    -1.2463083734
   17      O      -1.6645358942    -2.1679975911    -1.2819505253
   18      C       0.0198817612     1.0952364752    -1.8332434810
   19      C      -4.3115735835    -0.5687033540    -1.2510442097
   20      C      -5.7530792059    -0.2437557869    -0.6971468616
   21      C      -5.5000066565     1.1717259447    -0.0538819988
   22      C      -4.0132693118     1.4631935227    -0.5115083210
   23      O      -3.8808872278     0.7391040075    -1.7954426884
   24      H      -3.9814924648    -1.2607164406     0.8340923649
   25      H      -3.1453970266     0.8607152261     1.4942426120
   26      H      -4.2517111189    -1.3516004937    -2.0316332888
   27      H      -6.4765189929    -0.1837782281    -1.5262677122
   28      H      -6.1086289772    -0.9896816050     0.0313440139
   29      H      -6.1863146195     1.9325417794    -0.4579927378
   30      H      -5.5951555756     1.1594643274     1.0438979100
   31      H      -3.7653099819     2.5345514324    -0.6429342750
   32      O       0.7629682390    -0.5074262223     0.7946816882
   33      C       1.8952745106     3.3713420061     2.3388852801
   34      C       3.4715003795     1.2091092093    -1.0067273981
   35      C       4.7190625502     0.7718656797    -1.8640480927
   36      C       4.4208679378    -0.7613441342    -2.0649034790
   37      C       3.0068954756    -0.8988748714    -1.3750561311
   38      O       2.3695953363     0.4201836079    -1.6110445793
   39      H       4.7029430960     0.6106976397     0.7405435794
   40      H       3.9256386344    -1.6427222097     0.5565951036
   41      H       2.3778522450     3.2236415141     3.3251783872
   42      H       3.2277935021     2.2885196448    -1.0122474746
   43      H       4.7298663078     1.3078330658    -2.8266267569
   44      H       5.6716148196     0.9582896015    -1.3431113677
   45      H       4.3586052457    -1.0272642945    -3.1319986832
   46      H       5.1738067325    -1.4060661158    -1.5837564501
   47      H       2.3671832771    -1.7119341468    -1.7701548154
   48      H       0.8480698651     2.9846267777     2.3669022736
   49      H       1.9027380912     4.4447111572     2.0761261579
   50      H      -0.2396375938     1.5458752314    -2.8113112332
   51      H       0.7513526825     0.2652528422    -1.9806246337
   52      H       0.4698014163     1.8618689676    -1.1772820315
   53      H      -0.2054616527    -3.0345048482    -0.0838344750
   54      H      -0.9194711410    -4.2125932783     1.0802257831
   55      H       0.1096451149    -1.8895385729     2.6066758788
   56      H       0.6137287818    -3.6215903486     2.7495878661
 ----------------------------------------------------------------
 Molecular Point Group                 C1    NOp =  1
 Largest Abelian Subgroup              C1    NOp =  1
 Nuclear Repulsion Energy =  3351.4424028939 hartrees
 There are      113 alpha and      113 beta electrons
 Applying Cartesian multipole field
    Component          Value
    ---------          -----
     (2,0,0)        1.00000E-12
     (0,2,0)        2.00000E-11
     (0,0,2)       -3.00000E-11
 Nucleus-field energy     =     0.0000000052 hartrees
 Requested basis set is STO-3G
 There are 86 shells and 176 basis functions
 A cutoff of  1.0D-12 yielded   2475 shell pairs
 There are     12024 function pairs
 Smallest overlap matrix eigenvalue = 2.13E-01
 Guess MOs from SCF MO coefficient file
 Reading MOs from coefficient file
 Reading MOs from coefficient file
 A restricted hybrid HF-DFT SCF calculation will be
 performed using Pulay DIIS extrapolation
 Exchange:     0.2000 Hartree-Fock + 0.0800 Slater + 0.7200 B88
 Correlation:  0.1900 VWN1RPA + 0.8100 LYP
 Using SG-1 standard quadrature grid
 Dispersion:   Grimme D3
 SCF converges when DIIS error is below 1.0E-08
 Geometry optimization detected.  Setting ReadMinima to 0
 Setting SaveMinima to 0
 using 48 threads for integral computing
 -------------------------------------------------------
 OpenMP Integral computing Module                
 Release: version 1.0, May 2013, Q-Chem Inc. Pittsburgh 
 -------------------------------------------------------
 -------------------------------------------------------
 OpenMP BLAS3 based DFT computing Module                
 Release: version 1.0, May 2013, Q-Chem Inc. Pittsburgh 
 -------------------------------------------------------
 ---------------------------------------
  Cycle       Energy         DIIS Error
 ---------------------------------------
    1   -1509.9244118788      8.76E-03
    2   -1510.2561502142      1.38E-03
    3   -1510.2440391775      2.25E-03
    4   -1510.2652784770      6.78E-04
    5   -1510.2673135125      1.40E-04
    6   -1510.2673977546      4.70E-05
    7   -1510.2674070718      1.90E-05
    8   -1510.2674083284      1.04E-05
    9   -1510.2674088055      1.17E-06
   10   -1510.2674088120      7.34E-07
   11   -1510.2674088141      4.11E-07
   12   -1510.2674088149      9.67E-08
   13   -1510.2674088150      3.77E-08
   14   -1510.2674088150      1.31E-08
   15   -1510.2674088149      7.86E-09 Convergence criterion met
 ---------------------------------------
 SCF time:  CPU 112.80 s  wall 2.36 s
 SCF   energy in the final basis set = -1510.26740881
 Total energy in the final basis set = -1510.26740881
 
 --------------------------------------------------------------
 
                    Orbital Energies (a.u.)
 --------------------------------------------------------------
 
 Alpha MOs
 -- Occupied --
-18.932 -18.932 -18.922 -18.909 -18.899 -18.879 -18.871 -18.871
-18.867 -18.844 -10.097 -10.096 -10.092 -10.077 -10.067 -10.066
-10.064 -10.061 -10.056 -10.051 -10.051 -10.040 -10.039 -10.028
-10.025 -10.024 -10.024 -10.016 -10.014 -10.013  -1.013  -1.006
 -1.002  -0.984  -0.980  -0.960  -0.935  -0.929  -0.928  -0.909
 -0.768  -0.754  -0.727  -0.717  -0.712  -0.700  -0.690  -0.656
 -0.633  -0.615  -0.593  -0.574  -0.550  -0.542  -0.536  -0.529
 -0.512  -0.500  -0.476  -0.467  -0.462  -0.453  -0.448  -0.440
 -0.434  -0.424  -0.423  -0.410  -0.405  -0.396  -0.394  -0.390
 -0.384  -0.375  -0.366  -0.360  -0.360  -0.353  -0.346  -0.341
 -0.338  -0.336  -0.330  -0.324  -0.323  -0.319  -0.317  -0.313
 -0.306  -0.299  -0.297  -0.293  -0.290  -0.286  -0.276  -0.271
 -0.262  -0.255  -0.248  -0.241  -0.228  -0.225  -0.215  -0.182
 -0.171  -0.163  -0.161  -0.150  -0.149  -0.146  -0.143  -0.130
 -0.130
 -- Virtual --
  0.096   0.107   0.112   0.124   0.225   0.238   0.247   0.257
  0.268   0.276   0.284   0.295   0.307   0.317   0.322   0.331
  0.337   0.341   0.351   0.352   0.359   0.366   0.369   0.372
  0.374   0.381   0.390   0.399   0.404   0.405   0.410   0.412
  0.417   0.420   0.423   0.431   0.434   0.436   0.438   0.438
  0.442   0.445   0.454   0.457   0.460   0.465   0.471   0.476
  0.482   0.485   0.488   0.498   0.502   0.508   0.526   0.535
  0.546   0.549   0.560   0.638   0.656   0.657   0.670
 --------------------------------------------------------------
 
          Ground-State Mulliken Net Atomic Charges

     Atom                 Charge (a.u.)
  ----------------------------------------
      1 O                    -0.216323
      2 C                     0.214070
      3 C                    -0.078306
      4 C                    -0.078755
      5 C                     0.210294
      6 O                    -0.170133
      7 C                    -0.051642
      8 C                    -0.057111
      9 O                    -0.174481
     10 C                     0.217137
     11 C                    -0.078436
     12 C                    -0.076012
     13 C                     0.212234
     14 O                    -0.227267
     15 O                    -0.169396
     16 O                    -0.168670
     17 O                    -0.208383
     18 C                    -0.137237
     19 C                     0.026266
     20 C                    -0.142328
     21 C                    -0.145383
     22 C                     0.024675
     23 O                    -0.185357
     24 H                     0.082744
     25 H                     0.083055
     26 H                     0.086773
     27 H                     0.076416
     28 H                     0.071805
     29 H                     0.076360
     30 H                     0.072833
     31 H                     0.081256
     32 O                    -0.211251
     33 C                    -0.127856
     34 C                     0.025094
     35 C                    -0.142550
     36 C                    -0.144211
     37 C                     0.023877
     38 O                    -0.183877
     39 H                     0.084202
     40 H                     0.088040
     41 H                     0.088573
     42 H                     0.096061
     43 H                     0.079427
     44 H                     0.074983
     45 H                     0.079631
     46 H                     0.075360
     47 H                     0.084513
     48 H                     0.103648
     49 H                     0.089220
     50 H                     0.072548
     51 H                     0.116915
     52 H                     0.088627
     53 H                     0.099930
     54 H                     0.079556
     55 H                     0.101247
     56 H                     0.087594
  ----------------------------------------
  Sum of atomic charges =    -0.000000

 -----------------------------------------------------------------
                    Cartesian Multipole Moments
 -----------------------------------------------------------------
    Charge (ESU x 10^10)
                -0.0000
    Dipole Moment (Debye)
         X       1.5538      Y      -0.6019      Z       0.6801
       Tot       1.7997
    Quadrupole Moments (Debye-Ang)
        XX    -137.9224     XY       1.5898     YY    -151.9545
        XZ      -8.8338     YZ       0.0614     ZZ    -164.1089
    Octopole Moments (Debye-Ang^2)
       XXX       8.9180    XXY       4.8457    XYY       1.1418
       YYY       4.7385    XXZ       0.4926    XYZ       6.9094
       YYZ      20.7869    XZZ      12.4159    YZZ       5.8945
       ZZZ       9.6780
    Hexadecapole Moments (Debye-Ang^3)
      XXXX   -8911.2161   XXXY    -168.8843   XXYY   -2019.0805
      XYYY    -143.2214   YYYY   -2643.7674   XXXZ    -217.2250
      XXYZ      41.5794   XYYZ     -40.7180   YYYZ      -3.7274
      XXZZ   -1930.0017   XYZZ     -30.6634   YYZZ    -737.4832
      XZZZ    -233.2638   YZZZ      12.6707   ZZZZ   -1975.0399
 -----------------------------------------------------------------
 Calculating analytic gradient of the SCF energy
 Gradient of SCF Energy
            1           2           3           4           5           6
    1   0.0006479  -0.0003627  -0.0007712   0.0026743  -0.0014971   0.0022499
    2  -0.0004908   0.0012939   0.0002942   0.0001261  -0.0028776  -0.0017797
    3   0.0002932   0.0002750  -0.0021736   0.0051215  -0.0061912   0.0027324
            7           8           9          10          11          12
    1   0.0005353  -0.0012035  -0.0017172   0.0036177  -0.0011318   0.0011250
    2   0.0018596   0.0028140  -0.0032986   0.0014295  -0.0000197  -0.0005196
    3  -0.0017541  -0.0028422   0.0032125   0.0009824  -0.0049640   0.0049000
           13          14          15          16          17          18
    1  -0.0011479  -0.0012385   0.0004109   0.0011728  -0.0014216   0.0213529
    2  -0.0057604   0.0028056  -0.0016108  -0.0009768  -0.0002990   0.0049818
    3  -0.0059286   0.0027933  -0.0008921   0.0019538  -0.0003075   0.0046963
           19          20          21          22          23          24
    1  -0.0002864   0.0002685   0.0001157  -0.0002594   0.0005810  -0.0003258
    2   0.0003034  -0.0001344  -0.0001873   0.0008366   0.0003464  -0.0001240
    3  -0.0000844   0.0000365   0.0002404  -0.0006964   0.0004555  -0.0000759
           25          26          27          28          29          30
    1   0.0000914   0.0001920  -0.0000244  -0.0000134   0.0001502  -0.0000253
    2  -0.0000106   0.0000558  -0.0000946   0.0000992   0.0000770  -0.0000616
    3  -0.0000047   0.0000774   0.0000283  -0.0002038  -0.0000169  -0.0000273
           31          32          33          34          35          36
    1   0.0000644   0.0006049   0.0029398   0.0005214  -0.0002405  -0.0004300
    2   0.0000356   0.0002553   0.0044250  -0.0008842   0.0003539   0.0005088
    3  -0.0000521   0.0030409   0.0048416  -0.0004501   0.0000506  -0.0004456
           37          38          39          40          41          42
    1  -0.0032667  -0.0367414  -0.0001524  -0.0001019   0.0009933   0.0001424
    2  -0.0007795   0.0115950  -0.0000179   0.0003994   0.0005180  -0.0000920
    3   0.0009172  -0.0048870  -0.0001564   0.0003056  -0.0009885   0.0001699
           43          44          45          46          47          48
    1   0.0000348  -0.0001648   0.0000305  -0.0000458  -0.0000276  -0.0042091
    2  -0.0000203  -0.0001064   0.0000310  -0.0000015   0.0000352  -0.0031010
    3  -0.0000007   0.0000585  -0.0000097   0.0001263   0.0000082  -0.0009465
           49          50          51          52          53          54
    1   0.0014291   0.0002798   0.0149790   0.0005216  -0.0013015   0.0001397
    2  -0.0001496  -0.0011878  -0.0130791   0.0004339   0.0012848  -0.0001063
    3   0.0000548   0.0005022  -0.0028429  -0.0025809   0.0003683   0.0005011
           55          56
    1   0.0010415  -0.0007998
    2   0.0004944   0.0000772
    3   0.0006049   0.0001745
 Max gradient component =       3.674E-02
 RMS gradient           =       4.127E-03
 Gradient time:  CPU 31.37 s  wall 0.66 s
 Geometry Optimization Parameters
   NAtoms,    NIC,     NZ,  NCons,   NDum,   NFix, NCnnct, MaxDiis
       56     458       0       0       0       0       0       0

 Cartesian Hessian Update
 Hessian Updated using BFGS Update


** GEOMETRY OPTIMIZATION IN DELOCALIZED INTERNAL COORDINATES **
   Searching for a Minimum

   Optimization Cycle:   2

                       Coordinates (Angstroms)
     ATOM                X               Y               Z
      1  O         2.4691492627    0.7925126648    2.6682230515
      2  C         2.8362328411    1.3139220598    1.5920099528
      3  C         3.6369394164    0.5908468657    0.4453063601
      4  C         3.1808899786   -0.9076645349    0.2070229965
      5  C         1.7831649290   -1.2286386424    0.8330182617
      6  O         1.8187673334   -2.5088356271    1.4812452419
      7  C         0.4726706939   -2.7783486381    2.0456288901
      8  C        -0.6019420709   -3.1560771443    0.9478739876
      9  O        -1.7856145507   -2.2800160567    1.0892952644
     10  C        -2.1777948935   -1.7868054852   -0.2087270872
     11  C        -3.3838931776   -0.8190825009    0.0157899006
     12  C        -2.9935890646    0.6651555244    0.4186456034
     13  C        -1.5441075423    1.1289164834    0.0148143203
     14  O        -0.8501557773    1.9588228714    0.6500136667
     15  O         2.6561241555    2.6881902955    1.2591139814
     16  O        -1.2345807657    0.5630533352   -1.2463083734
     17  O        -1.6645358942   -2.1679975911   -1.2819505253
     18  C         0.0198817612    1.0952364752   -1.8332434810
     19  C        -4.3115735835   -0.5687033540   -1.2510442097
     20  C        -5.7530792059   -0.2437557869   -0.6971468616
     21  C        -5.5000066565    1.1717259447   -0.0538819988
     22  C        -4.0132693118    1.4631935227   -0.5115083210
     23  O        -3.8808872278    0.7391040075   -1.7954426884
     24  H        -3.9814924648   -1.2607164406    0.8340923649
     25  H        -3.1453970266    0.8607152261    1.4942426120
     26  H        -4.2517111189   -1.3516004937   -2.0316332888
     27  H        -6.4765189929   -0.1837782281   -1.5262677122
     28  H        -6.1086289772   -0.9896816050    0.0313440139
     29  H        -6.1863146195    1.9325417794   -0.4579927378
     30  H        -5.5951555756    1.1594643274    1.0438979100
     31  H        -3.7653099819    2.5345514324   -0.6429342750
     32  O         0.7629682390   -0.5074262223    0.7946816882
     33  C         1.8952745106    3.3713420061    2.3388852801
     34  C         3.4715003795    1.2091092093   -1.0067273981
     35  C         4.7190625502    0.7718656797   -1.8640480927
     36  C         4.4208679378   -0.7613441342   -2.0649034790
     37  C         3.0068954756   -0.8988748714   -1.3750561311
     38  O         2.3695953363    0.4201836079   -1.6110445793
     39  H         4.7029430960    0.6106976397    0.7405435794
     40  H         3.9256386344   -1.6427222097    0.5565951036
     41  H         2.3778522450    3.2236415141    3.3251783872
     42  H         3.2277935021    2.2885196448   -1.0122474746
     43  H         4.7298663078    1.3078330658   -2.8266267569
     44  H         5.6716148196    0.9582896015   -1.3431113677
     45  H         4.3586052457   -1.0272642945   -3.1319986832
     46  H         5.1738067325   -1.4060661158   -1.5837564501
     47  H         2.3671832771   -1.7119341468   -1.7701548154
     48  H         0.8480698651    2.9846267777    2.3669022736
     49  H         1.9027380912    4.4447111572    2.0761261579
     50  H        -0.2396375938    1.5458752314   -2.8113112332
     51  H         0.7513526825    0.2652528422   -1.9806246337
     52  H         0.4698014163    1.8618689676   -1.1772820315
     53  H        -0.2054616527   -3.0345048482   -0.0838344750
     54  H        -0.9194711410   -4.2125932783    1.0802257831
     55  H         0.1096451149   -1.8895385729    2.6066758788
     56  H         0.6137287818   -3.6215903486    2.7495878661
   Point Group: c1    Number of degrees of freedom:   162


   Energy is  -1510.267408815

 Hessian Updated using BFGS Update

148 Hessian modes will be used to form the next step
  Hessian Eigenvalues:
     0.000684    0.002408    0.002612    0.002734    0.002986    0.004094
     0.004121    0.004543    0.004648    0.004698    0.005246    0.006201
     0.006791    0.006967    0.010410    0.012263    0.013194    0.021437
     0.021558    0.024400    0.025767    0.027533    0.030685    0.031287
     0.035096    0.035381    0.039162    0.039732    0.041771    0.041881
     0.043727    0.044348    0.046552    0.048025    0.048742    0.051004
     0.051057    0.053502    0.053849    0.054594    0.055239    0.055458
     0.055630    0.055951    0.056198    0.058943    0.060362    0.060836
     0.062989    0.063661    0.064461    0.064485    0.069777    0.070232
     0.073247    0.073284    0.084534    0.091303    0.091485    0.092839
     0.092876    0.096016    0.097572    0.098143    0.098551    0.102020
     0.103673    0.110396    0.112117    0.113011    0.114879    0.121005
     0.123107    0.125765    0.137662    0.156780    0.157759    0.159993
     0.160015    0.164073    0.165631    0.218102    0.218367    0.220036
     0.225388    0.227321    0.228266    0.237872    0.238107    0.238963
     0.240526    0.243348    0.245636    0.248459    0.249147    0.249594
     0.249654    0.249997    0.251162    0.252484    0.254656    0.256695
     0.256910    0.264070    0.266068    0.290430    0.293397    0.304866
     0.307626    0.319050    0.319521    0.323831    0.323864    0.324871
     0.328232    0.328441    0.328636    0.328686    0.328740    0.329013
     0.329661    0.329933    0.331030    0.331246    0.331580    0.332750
     0.333242    0.334618    0.334656    0.334767    0.334884    0.335057
     0.335099    0.335185    0.335264    0.337668    0.340379    0.341159
     0.345951    0.391771    0.402325    0.416394    0.429873    0.815922
     0.828842    0.832494    0.835341   10.849639

 Minimum Search - Taking Simple RFO Step
 Searching for Lamda that Minimizes Along All modes
 Value Taken    Lamda =  -0.03954979
 Calculated Step too Large.  Step scaled by  0.643739
 Step Taken.  Stepsize is  0.300000

                             Maximum     Tolerance    Cnvgd?
         Gradient           0.535418      0.000300      NO
         Displacement       0.223441      0.001200      NO
         Energy change      0.022756      0.000001      NO


 New Cartesian Coordinates Obtained by Inverse Iteration

 Displacement from previous Coordinates is:  6.662058
 Adding empirical dispersion correction 
 ----------------------------------------------------------------
 Doing -D3(op) with
 s6 =   1.00000
 s8 =   0.78311
 a1 =   0.30000
 a2 =   4.25000
 n  =  10.00000
 -D3 energy without 3body term =     -0.0692593357 hartrees
 ----------------------------------------------------------------
             Standard Nuclear Orientation (Angstroms)
    I     Atom           X                Y                Z
 ----------------------------------------------------------------
    1      O       2.8084786546     0.6621067610     2.9128589911
    2      C       3.1984848450     1.2552986908     1.8829319321
    3      C       3.8684231239     0.5776403117     0.6287829767
    4      C       3.2343732156    -0.8249120816     0.2553001217
    5      C       1.8404301092    -1.0639351655     0.9265040428
    6      O       1.7962376557    -2.3893336465     1.4759059694
    7      C       0.4466119604    -2.6509289682     2.0394352397
    8      C      -0.6419391606    -3.0719020079     0.9696000146
    9      O      -1.8203278159    -2.1823653896     1.0810782150
   10      C      -2.3094679801    -1.8243048872    -0.2285891603
   11      C      -3.4945821335    -0.8285664422    -0.0035348144
   12      C      -3.0831735756     0.6986025844     0.1237267436
   13      C      -1.7039022880     1.0924527349    -0.5231726017
   14      O      -0.9368970341     1.9916564389    -0.1026437954
   15      O       3.1594452075     2.6690156621     1.7063722200
   16      O      -1.5660249720     0.3563249495    -1.7251761624
   17      O      -1.9098970599    -2.3495610071    -1.2893296694
   18      C      -0.4153263815     0.7942587857    -2.5504884105
   19      C      -4.5684049382    -0.7600918899    -1.1758684761
   20      C      -5.9400397022    -0.3559314127    -0.5079157365
   21      C      -5.6362453930     1.1372627014    -0.1092454228
   22      C      -4.2191711622     1.3570288986    -0.7791496465
   23      O      -4.2277985145     0.4540370355    -1.9512823769
   24      H      -3.9899273679    -1.1505606066     0.9308121148
   25      H      -3.1045549562     1.0473695974     1.1707010101
   26      H      -4.5890387118    -1.6479234002    -1.8370579826
   27      H      -6.7568517908    -0.4155541835    -1.2452503932
   28      H      -6.1956213265    -0.9881376887     0.3572517035
   29      H      -6.3777203353     1.8322969911    -0.5340537137
   30      H      -5.6007143712     1.2844864647     0.9822554884
   31      H      -4.0053110623     2.3973131183    -1.0930261838
   32      O       0.8939345238    -0.2511642842     1.0039147360
   33      C       2.5115043792     3.3016260294     2.8858455665
   34      C       3.7229803504     1.3622841274    -0.7431778694
   35      C       4.8811254947     0.8843533019    -1.6993491781
   36      C       4.4025765167    -0.5762483930    -2.0423930356
   37      C       3.0065072434    -0.6316924787    -1.3062051165
   38      O       2.5180254356     0.7674885933    -1.3741116680
   39      H       4.9396252233     0.4466823033     0.8722655009
   40      H       3.9071113483    -1.6654740318     0.4961414417
   41      H       3.0063789546     2.9945650763     3.8283895377
   42      H       3.6047626068     2.4565424609    -0.6276844323
   43      H       4.9197048575     1.5155911792    -2.6016584197
   44      H       5.8664490099     0.9081126612    -1.2072218837
   45      H       4.2734407558    -0.7174282065    -3.1271587640
   46      H       5.0932915622    -1.3475209138    -1.6654555895
   47      H       2.2654230989    -1.3231238357    -1.7524499508
   48      H       1.4303374614     3.0244416502     2.9175349334
   49      H       2.6259269671     4.3911595976     2.7409404506
   50      H      -0.8161907900     1.1077546024    -3.5344709088
   51      H       0.2976846426    -0.0530629896    -2.6837430767
   52      H       0.1120231712     1.6404889938    -2.0750918486
   53      H      -0.2707257208    -3.0022712716    -0.0759258394
   54      H      -0.9513040057    -4.1215246710     1.1629965948
   55      H       0.0981199444    -1.7518570297     2.5931406173
   56      H       0.5822359755    -3.4866568307     2.7533671807
 ----------------------------------------------------------------
 Molecular Point Group                 C1    NOp =  1
 Largest Abelian Subgroup              C1    NOp =  1
 Nuclear Repulsion Energy =  3267.8130238548 hartrees
 There are      113 alpha and      113 beta electrons
 Applying Cartesian multipole field
    Component          Value
    ---------          -----
     (2,0,0)        1.00000E-12
     (0,2,0)        2.00000E-11
     (0,0,2)       -3.00000E-11
 Nucleus-field energy     =    -0.0000000052 hartrees
 Requested basis set is STO-3G
 There are 86 shells and 176 basis functions
 A cutoff of  1.0D-12 yielded   2373 shell pairs
 There are     11481 function pairs
 Smallest overlap matrix eigenvalue = 2.13E-01
 Guess MOs from SCF MO coefficient file
 Reading MOs from coefficient file
 Reading MOs from coefficient file
 A restricted hybrid HF-DFT SCF calculation will be
 performed using Pulay DIIS extrapolation
 Exchange:     0.2000 Hartree-Fock + 0.0800 Slater + 0.7200 B88
 Correlation:  0.1900 VWN1RPA + 0.8100 LYP
 Using SG-1 standard quadrature grid
 Dispersion:   Grimme D3
 SCF converges when DIIS error is below 1.0E-08
 Geometry optimization detected.  Setting ReadMinima to 0
 Setting SaveMinima to 0
 using 48 threads for integral computing
 -------------------------------------------------------
 OpenMP Integral computing Module                
 Release: version 1.0, May 2013, Q-Chem Inc. Pittsburgh 
 -------------------------------------------------------
 -------------------------------------------------------
 OpenMP BLAS3 based DFT computing Module                
 Release: version 1.0, May 2013, Q-Chem Inc. Pittsburgh 
 -------------------------------------------------------
 ---------------------------------------
  Cycle       Energy         DIIS Error
 ---------------------------------------
    1   -1509.9117563399      9.11E-03
    2   -1510.2644752713      1.39E-03
    3   -1510.2509762970      2.32E-03
    4   -1510.2735968341      6.09E-04
    5   -1510.2752837368      1.25E-04
    6   -1510.2753513408      4.73E-05
    7   -1510.2753619179      1.20E-05
    8   -1510.2753623744      7.69E-06
    9   -1510.2753626281      1.66E-06
   10   -1510.2753626420      5.36E-07
   11   -1510.2753626434      3.08E-07
   12   -1510.2753626437      1.28E-07
   13   -1510.2753626439      4.09E-08
   14   -1510.2753626439      7.89E-09 Convergence criterion met
 ---------------------------------------
 SCF time:  CPU 99.50 s  wall 2.08 s
 SCF   energy in the final basis set = -1510.27536264
 Total energy in the final basis set = -1510.27536264
 
 --------------------------------------------------------------
 
                    Orbital Energies (a.u.)
 --------------------------------------------------------------
 
 Alpha MOs
 -- Occupied --
-18.933 -18.929 -18.924 -18.922 -18.885 -18.882 -18.874 -18.868
-18.867 -18.856 -10.096 -10.095 -10.093 -10.084 -10.067 -10.064
-10.060 -10.060 -10.056 -10.054 -10.053 -10.045 -10.036 -10.035
-10.031 -10.029 -10.021 -10.019 -10.016 -10.015  -1.010  -1.006
 -1.002  -0.994  -0.968  -0.964  -0.934  -0.931  -0.927  -0.919
 -0.761  -0.757  -0.723  -0.718  -0.709  -0.702  -0.691  -0.658
 -0.647  -0.615  -0.593  -0.575  -0.544  -0.539  -0.536  -0.532
 -0.509  -0.504  -0.478  -0.468  -0.461  -0.450  -0.447  -0.436
 -0.433  -0.429  -0.426  -0.409  -0.408  -0.402  -0.396  -0.394
 -0.391  -0.374  -0.368  -0.363  -0.356  -0.356  -0.346  -0.342
 -0.339  -0.333  -0.330  -0.327  -0.325  -0.320  -0.319  -0.310
 -0.302  -0.302  -0.300  -0.296  -0.289  -0.284  -0.277  -0.272
 -0.265  -0.253  -0.248  -0.242  -0.234  -0.228  -0.225  -0.181
 -0.172  -0.163  -0.159  -0.153  -0.151  -0.144  -0.140  -0.137
 -0.135
 -- Virtual --
  0.099   0.103   0.113   0.116   0.221   0.243   0.247   0.254
  0.262   0.276   0.287   0.292   0.310   0.314   0.326   0.331
  0.338   0.344   0.348   0.355   0.361   0.364   0.368   0.374
  0.375   0.378   0.386   0.401   0.405   0.407   0.410   0.414
  0.415   0.421   0.423   0.427   0.428   0.433   0.434   0.435
  0.439   0.442   0.446   0.451   0.453   0.459   0.467   0.469
  0.474   0.479   0.489   0.489   0.495   0.505   0.509   0.539
  0.543   0.554   0.557   0.640   0.652   0.659   0.663
 --------------------------------------------------------------
 
          Ground-State Mulliken Net Atomic Charges

     Atom                 Charge (a.u.)
  ----------------------------------------
      1 O                    -0.217392
      2 C                     0.213732
      3 C                    -0.078232
      4 C                    -0.078489
      5 C                     0.210202
      6 O                    -0.171158
      7 C                    -0.052825
      8 C                    -0.056280
      9 O                    -0.174903
     10 C                     0.213880
     11 C                    -0.078574
     12 C                    -0.075724
     13 C                     0.210654
     14 O                    -0.213048
     15 O                    -0.168135
     16 O                    -0.165923
     17 O                    -0.207998
     18 C                    -0.128429
     19 C                     0.026222
     20 C                    -0.142259
     21 C                    -0.145200
     22 C                     0.024585
     23 O                    -0.185750
     24 H                     0.084256
     25 H                     0.085370
     26 H                     0.086790
     27 H                     0.076912
     28 H                     0.072265
     29 H                     0.076966
     30 H                     0.073481
     31 H                     0.081762
     32 O                    -0.210140
     33 C                    -0.126030
     34 C                     0.023425
     35 C                    -0.142942
     36 C                    -0.144563
     37 C                     0.024319
     38 O                    -0.189001
     39 H                     0.082920
     40 H                     0.086406
     41 H                     0.090367
     42 H                     0.094118
     43 H                     0.077925
     44 H                     0.072967
     45 H                     0.077835
     46 H                     0.073837
     47 H                     0.080911
     48 H                     0.094906
     49 H                     0.090573
     50 H                     0.084973
     51 H                     0.085477
     52 H                     0.106198
     53 H                     0.098050
     54 H                     0.081117
     55 H                     0.102316
     56 H                     0.087278
  ----------------------------------------
  Sum of atomic charges =    -0.000000

 -----------------------------------------------------------------
                    Cartesian Multipole Moments
 -----------------------------------------------------------------
    Charge (ESU x 10^10)
                -0.0000
    Dipole Moment (Debye)
         X       1.0292      Y      -0.3990      Z       0.8367
       Tot       1.3851
    Quadrupole Moments (Debye-Ang)
        XX    -139.4169     XY       0.8691     YY    -153.5891
        XZ      -8.5572     YZ       0.3761     ZZ    -161.5410
    Octopole Moments (Debye-Ang^2)
       XXX       7.3967    XXY       9.0245    XYY       1.7037
       YYY       2.5865    XXZ      12.3955    XYZ      15.5687
       YYZ      28.1631    XZZ      16.6476    YZZ      16.4140
       ZZZ      11.9009
    Hexadecapole Moments (Debye-Ang^3)
      XXXX   -9869.9673   XXXY    -359.7242   XXYY   -2144.8305
      XYYY    -326.6429   YYYY   -2533.3069   XXXZ    -510.1602
      XXYZ      34.9706   XYYZ    -119.3068   YYYZ     -21.0430
      XXZZ   -2180.1674   XYZZ     -86.0564   YYZZ    -754.3326
      XZZZ    -518.5198   YZZZ       2.1596   ZZZZ   -2310.2980
 -----------------------------------------------------------------
 Calculating analytic gradient of the SCF energy
 Gradient of SCF Energy
            1           2           3           4           5           6
    1   0.0005607  -0.0005673  -0.0015521   0.0016347   0.0004771   0.0035576
    2  -0.0006024   0.0032380  -0.0003774   0.0014511  -0.0027326   0.0028556
    3  -0.0001761   0.0018417  -0.0015209   0.0012347  -0.0062221   0.0048556
            7           8           9          10          11          12
    1  -0.0018513  -0.0011450  -0.0015371   0.0061111  -0.0013988   0.0017900
    2   0.0004325  -0.0015945  -0.0047973   0.0067866  -0.0018505   0.0003517
    3  -0.0034752   0.0014087   0.0008696  -0.0018565  -0.0020031   0.0027720
           13          14          15          16          17          18
    1  -0.0015353   0.0000528   0.0002176  -0.0028846  -0.0033676  -0.0006468
    2  -0.0099056   0.0054891  -0.0024363   0.0046731  -0.0020514   0.0023712
    3  -0.0111191   0.0053303  -0.0015152   0.0067061  -0.0003679  -0.0021403
           19          20          21          22          23          24
    1   0.0010448  -0.0003029  -0.0000456   0.0000279   0.0004139  -0.0012439
    2   0.0011459  -0.0000001   0.0001275   0.0005774   0.0006204  -0.0008905
    3   0.0005627  -0.0002455   0.0005466  -0.0007912   0.0006664  -0.0004939
           25          26          27          28          29          30
    1  -0.0003892   0.0002876  -0.0000187   0.0002510   0.0000225  -0.0000782
    2  -0.0006246   0.0000280   0.0000123   0.0000114   0.0000408   0.0000602
    3   0.0000935  -0.0000472   0.0000559  -0.0000711  -0.0000901  -0.0000100
           31          32          33          34          35          36
    1  -0.0000956   0.0017246   0.0026785   0.0034179  -0.0013487  -0.0006976
    2  -0.0000392   0.0006632   0.0035087   0.0012877   0.0001375   0.0012604
    3  -0.0002394   0.0035475   0.0059910   0.0012557  -0.0005559  -0.0002080
           37          38          39          40          41          42
    1  -0.0016354   0.0006839  -0.0000675   0.0000374   0.0014685   0.0001111
    2  -0.0051093  -0.0004604   0.0003178   0.0008483   0.0005540  -0.0000287
    3  -0.0002624  -0.0004233  -0.0002979   0.0006616  -0.0010977   0.0002663
           43          44          45          46          47          48
    1   0.0002116  -0.0002523  -0.0000061  -0.0001881  -0.0000944  -0.0053955
    2   0.0000062   0.0002467   0.0000693   0.0000222   0.0001901  -0.0029312
    3  -0.0002288   0.0003399  -0.0000024   0.0001838  -0.0003110  -0.0026388
           49          50          51          52          53          54
    1   0.0015032  -0.0014142   0.0052974  -0.0018842  -0.0038392   0.0011355
    2  -0.0004885   0.0011064  -0.0040666  -0.0013635   0.0024213  -0.0002887
    3  -0.0001862   0.0011917  -0.0009268  -0.0031451  -0.0001533   0.0013690
           55          56
    1   0.0028506  -0.0020860
    2   0.0003936  -0.0006673
    3   0.0017682  -0.0006961
 Max gradient component =       1.112E-02
 RMS gradient           =       2.380E-03
 Gradient time:  CPU 33.12 s  wall 0.70 s
 Geometry Optimization Parameters
   NAtoms,    NIC,     NZ,  NCons,   NDum,   NFix, NCnnct, MaxDiis
       56     458       0       0       0       0       0       0

 Cartesian Hessian Update
 Hessian Updated using BFGS Update


** GEOMETRY OPTIMIZATION IN DELOCALIZED INTERNAL COORDINATES **
   Searching for a Minimum

   Optimization Cycle:   3

                       Coordinates (Angstroms)
     ATOM                X               Y               Z
      1  O         2.8084786546    0.6621067610    2.9128589911
      2  C         3.1984848450    1.2552986908    1.8829319321
      3  C         3.8684231239    0.5776403117    0.6287829767
      4  C         3.2343732156   -0.8249120816    0.2553001217
      5  C         1.8404301092   -1.0639351655    0.9265040428
      6  O         1.7962376557   -2.3893336465    1.4759059694
      7  C         0.4466119604   -2.6509289682    2.0394352397
      8  C        -0.6419391606   -3.0719020079    0.9696000146
      9  O        -1.8203278159   -2.1823653896    1.0810782150
     10  C        -2.3094679801   -1.8243048872   -0.2285891603
     11  C        -3.4945821335   -0.8285664422   -0.0035348144
     12  C        -3.0831735756    0.6986025844    0.1237267436
     13  C        -1.7039022880    1.0924527349   -0.5231726017
     14  O        -0.9368970341    1.9916564389   -0.1026437954
     15  O         3.1594452075    2.6690156621    1.7063722200
     16  O        -1.5660249720    0.3563249495   -1.7251761624
     17  O        -1.9098970599   -2.3495610071   -1.2893296694
     18  C        -0.4153263815    0.7942587857   -2.5504884105
     19  C        -4.5684049382   -0.7600918899   -1.1758684761
     20  C        -5.9400397022   -0.3559314127   -0.5079157365
     21  C        -5.6362453930    1.1372627014   -0.1092454228
     22  C        -4.2191711622    1.3570288986   -0.7791496465
     23  O        -4.2277985145    0.4540370355   -1.9512823769
     24  H        -3.9899273679   -1.1505606066    0.9308121148
     25  H        -3.1045549562    1.0473695974    1.1707010101
     26  H        -4.5890387118   -1.6479234002   -1.8370579826
     27  H        -6.7568517908   -0.4155541835   -1.2452503932
     28  H        -6.1956213265   -0.9881376887    0.3572517035
     29  H        -6.3777203353    1.8322969911   -0.5340537137
     30  H        -5.6007143712    1.2844864647    0.9822554884
     31  H        -4.0053110623    2.3973131183   -1.0930261838
     32  O         0.8939345238   -0.2511642842    1.0039147360
     33  C         2.5115043792    3.3016260294    2.8858455665
     34  C         3.7229803504    1.3622841274   -0.7431778694
     35  C         4.8811254947    0.8843533019   -1.6993491781
     36  C         4.4025765167   -0.5762483930   -2.0423930356
     37  C         3.0065072434   -0.6316924787   -1.3062051165
     38  O         2.5180254356    0.7674885933   -1.3741116680
     39  H         4.9396252233    0.4466823033    0.8722655009
     40  H         3.9071113483   -1.6654740318    0.4961414417
     41  H         3.0063789546    2.9945650763    3.8283895377
     42  H         3.6047626068    2.4565424609   -0.6276844323
     43  H         4.9197048575    1.5155911792   -2.6016584197
     44  H         5.8664490099    0.9081126612   -1.2072218837
     45  H         4.2734407558   -0.7174282065   -3.1271587640
     46  H         5.0932915622   -1.3475209138   -1.6654555895
     47  H         2.2654230989   -1.3231238357   -1.7524499508
     48  H         1.4303374614    3.0244416502    2.9175349334
     49  H         2.6259269671    4.3911595976    2.7409404506
     50  H        -0.8161907900    1.1077546024   -3.5344709088
     51  H         0.2976846426   -0.0530629896   -2.6837430767
     52  H         0.1120231712    1.6404889938   -2.0750918486
     53  H        -0.2707257208   -3.0022712716   -0.0759258394
     54  H        -0.9513040057   -4.1215246710    1.1629965948
     55  H         0.0981199444   -1.7518570297    2.5931406173
     56  H         0.5822359755   -3.4866568307    2.7533671807
   Point Group: c1    Number of degrees of freedom:   162


   Energy is  -1510.275362644

 Hessian Updated using BFGS Update

152 Hessian modes will be used to form the next step
  Hessian Eigenvalues:
     0.001260    0.002000    0.002496    0.002654    0.002752    0.003086
     0.004096    0.004121    0.004541    0.004645    0.004716    0.005247
     0.006177    0.006792    0.006971    0.010459    0.012262    0.013293
     0.021442    0.021563    0.024477    0.025816    0.027743    0.030682
     0.031291    0.035128    0.035390    0.039187    0.039731    0.041761
     0.041914    0.043653    0.044405    0.046702    0.048026    0.048730
     0.051007    0.051059    0.053502    0.053863    0.054594    0.055261
     0.055468    0.055629    0.055963    0.056215    0.058890    0.059148
     0.060357    0.060843    0.062990    0.063661    0.064461    0.064485
     0.069779    0.070223    0.073247    0.073283    0.084468    0.091283
     0.091485    0.092840    0.092909    0.096072    0.097569    0.098140
     0.098538    0.102014    0.103673    0.110472    0.112117    0.113039
     0.114862    0.121470    0.123115    0.130477    0.137639    0.156769
     0.157809    0.159986    0.160000    0.160066    0.164128    0.165659
     0.218125    0.218373    0.219899    0.226316    0.227372    0.228273
     0.237886    0.238107    0.238965    0.240525    0.243351    0.245637
     0.248410    0.249237    0.249594    0.249732    0.249997    0.250724
     0.251336    0.252484    0.254649    0.256689    0.256948    0.264086
     0.266068    0.290446    0.293402    0.304918    0.307663    0.319077
     0.319572    0.323842    0.323864    0.324872    0.328232    0.328440
     0.328636    0.328686    0.328740    0.329013    0.329661    0.329933
     0.331032    0.331247    0.331597    0.332750    0.333243    0.334618
     0.334656    0.334767    0.334885    0.335057    0.335099    0.335185
     0.335265    0.337668    0.340380    0.341134    0.345977    0.391676
     0.402309    0.416411    0.429838    0.815914    0.828842    0.832493
     0.835342   11.748693

 Minimum Search - Taking Simple RFO Step
 Searching for Lamda that Minimizes Along All modes
 Value Taken    Lamda =  -0.01671436
 Calculated Step too Large.  Step scaled by  0.389339
 Step Taken.  Stepsize is  0.300000

                             Maximum     Tolerance    Cnvgd?
         Gradient           0.025276      0.000300      NO
         Displacement       0.214240      0.001200      NO
         Energy change     -0.007954      0.000001      NO


 New Cartesian Coordinates Obtained by Inverse Iteration

 Displacement from previous Coordinates is:  6.248544
 Adding empirical dispersion correction 
 ----------------------------------------------------------------
 Doing -D3(op) with
 s6 =   1.00000
 s8 =   0.78311
 a1 =   0.30000
 a2 =   4.25000
 n  =  10.00000
 -D3 energy without 3body term =     -0.0722305657 hartrees
 ----------------------------------------------------------------
             Standard Nuclear Orientation (Angstroms)
    I     Atom           X                Y                Z
 ----------------------------------------------------------------
    1      O       2.4441112115     0.8281686626     2.6248684119
    2      C       2.9196984204     1.3349351248     1.5847968875
    3      C       3.7597573037     0.5782022817     0.4902668671
    4      C       3.2421977376    -0.8909609284     0.2031495682
    5      C       1.8040577257    -1.1534756202     0.7667572574
    6      O       1.7863189687    -2.4410329116     1.4015345842
    7      C       0.4389609316    -2.7276692814     1.9541945933
    8      C      -0.6309589077    -3.1412785324     0.8677054935
    9      O      -1.8204655240    -2.2688050875     1.0094626696
   10      C      -2.2760154689    -1.7959951533    -0.2729822923
   11      C      -3.4881529359    -0.8469103205     0.0101616950
   12      C      -3.1182934627     0.6438492190     0.4104598990
   13      C      -1.6870453291     1.1390446004    -0.0160674042
   14      O      -0.9724018291     1.9462776863     0.6226306882
   15      O       2.8190951843     2.7160630636     1.2441552074
   16      O      -1.3968619155     0.5948684111    -1.2921238109
   17      O      -1.7786005464    -2.1468824004    -1.3639122821
   18      C      -0.1374380778     1.1316567623    -1.8535310298
   19      C      -4.4661870550    -0.6039022631    -1.2220009863
   20      C      -5.8935450685    -0.3063142812    -0.6182019246
   21      C      -5.6447641936     1.1105006171     0.0225667462
   22      C      -4.1789723462     1.4297993201    -0.4818020117
   23      O      -4.0771797582     0.7139138443    -1.7736308255
   24      H      -4.0476827872    -1.3082532598     0.8442063377
   25      H      -3.2449213036     0.8240731320     1.4920621772
   26      H      -4.4209840493    -1.3813126813    -2.0090399738
   27      H      -6.6451497845    -0.2552188137    -1.4225064761
   28      H      -6.2121363784    -1.0613959883     0.1180270071
   29      H      -6.3573050983     1.8607811985    -0.3550915377
   30      H      -5.7035262372     1.0919776368     1.1228082626
   31      H      -3.9540425737     2.5060976750    -0.6137905492
   32      O       0.8052783029    -0.4077536613     0.6710146657
   33      C       2.0006541246     3.4257020438     2.2613146433
   34      C       3.7224081300     1.2133820374    -0.9640844140
   35      C       5.0009095891     0.7149597349    -1.7406585872
   36      C       4.6347416769    -0.7981646722    -1.9766593663
   37      C       3.1715618003    -0.8622975815    -1.3847840219
   38      O       2.6232580484     0.4894470075    -1.6480175341
   39      H       4.8036612593     0.5397339682     0.8548411562
   40      H       3.9293498943    -1.6633171102     0.5891747593
   41      H       2.3948961973     3.2598175447     3.2836689825
   42      H       3.5375934744     2.3044487662    -0.9763234528
   43      H       5.1047638804     1.2555489069    -2.6950415370
   44      H       5.9254173964     0.8459764103    -1.1560037182
   45      H       4.6298718884    -1.0532283969    -3.0482260072
   46      H       5.3180828495    -1.4859241693    -1.4530726992
   47      H       2.5184631197    -1.6385237052    -1.8289337650
   48      H       0.9426436384     3.0835839499     2.2120021519
   49      H       2.0652609533     4.4986975514     2.0043054646
   50      H      -0.3794678086     1.6233136243    -2.8164647983
   51      H       0.5735586676     0.2958574038    -2.0274433194
   52      H       0.3225016128     1.8603550375    -1.1594206229
   53      H      -0.2422375331    -3.0439648042    -0.1698470977
   54      H      -0.9345691802    -4.1978830430     1.0288385924
   55      H       0.0611364382    -1.8399758657     2.5066467501
   56      H       0.5891904727    -3.5643841002     2.6642117423
 ----------------------------------------------------------------
 Molecular Point Group                 C1    NOp =  1
 Largest Abelian Subgroup              C1    NOp =  1
 Nuclear Repulsion Energy =  3313.3002973944 hartrees
 There are      113 alpha and      113 beta electrons
 Applying Cartesian multipole field
    Component          Value
    ---------          -----
     (2,0,0)        1.00000E-12
     (0,2,0)        2.00000E-11
     (0,0,2)       -3.00000E-11
 Nucleus-field energy     =     0.0000000077 hartrees
 Requested basis set is STO-3G
 There are 86 shells and 176 basis functions
 A cutoff of  1.0D-12 yielded   2438 shell pairs
 There are     11825 function pairs
 Smallest overlap matrix eigenvalue = 2.13E-01
 Guess MOs from SCF MO coefficient file
 Reading MOs from coefficient file
 Reading MOs from coefficient file
 A restricted hybrid HF-DFT SCF calculation will be
 performed using Pulay DIIS extrapolation
[...]
      7  C         0.5008857469   -2.8104602964    2.0488274451
      8  C        -0.5815169503   -3.2815212355    0.9939071053
      9  O        -1.8030641169   -2.4580588440    1.1231306315
     10  C        -1.9842533931   -1.6205721995   -0.0337141739
     11  C        -3.2959797317   -0.8039809369    0.2042392258
     12  C        -3.1153081080    0.7615616381    0.4154837082
     13  C        -1.6527165212    1.3265437839    0.3076843922
     14  O        -1.0072436446    1.8277511043    1.2599220171
     15  O         2.5167579353    2.5756610796    0.9659108627
     16  O        -1.2446243974    1.2714636802   -1.0465581311
     17  O        -1.2376176060   -1.6390244569   -1.0350898548
     18  C         0.0595252582    1.9436035947   -1.2706491972
     19  C        -4.2532068977   -0.8265630335   -1.0675758664
     20  C        -5.7090711886   -0.4458562480   -0.5856659901
     21  C        -5.5514922327    1.1022098763   -0.3487016448
     22  C        -4.0390548067    1.3205834550   -0.7536722827
     23  O        -3.8284466908    0.3520507106   -1.8516800618
     24  H        -3.7930552966   -1.2477640075    1.0846534251
     25  H        -3.4967948961    1.0538236718    1.4098706614
     26  H        -4.1804123876   -1.7453470077   -1.6810392627
     27  H        -6.4448714014   -0.6606964912   -1.3769234865
     28  H        -6.0010083399   -0.9902437490    0.3263644205
     29  H        -6.2146517497    1.6822284698   -1.0101643984
     30  H        -5.7476080448    1.3965904057    0.6946239273
     31  H        -3.7837774324    2.3445740778   -1.0877556605
     32  O         0.6882307634   -0.5572088090    0.6274173521
     33  C         1.5421321042    3.2399364416    1.8703681294
     34  C         3.7358378814    1.1328185768   -1.0402975871
     35  C         4.9589330850    0.5207371856   -1.8265580093
     36  C         4.4247541533   -0.9257926191   -2.1477493989
     37  C         2.9838667261   -0.8713341166   -1.5081966617
     38  O         2.5654944464    0.5322139905   -1.7267580548
     39  H         4.7045678780    0.4051070144    0.8352831034
     40  H         3.8208941512   -1.7589741464    0.3790306006
     41  H         1.8737505489    3.1907350873    2.9263143846
     42  H         3.6585192155    2.2365010129   -1.0438490110
     43  H         5.1504203075    1.0931062479   -2.7482479351
     44  H         5.8782110188    0.5099301228   -1.2194195451
     45  H         4.3573133168   -1.0998622001   -3.2334124808
     46  H         5.0449068747   -1.7184820750   -1.6997503526
     47  H         2.2405725972   -1.5655062875   -1.9465684584
     48  H         0.5416487708    2.7544054727    1.7615149954
     49  H         1.4975337092    4.2939684900    1.5412172223
     50  H        -0.0108978641    2.4157631102   -2.2687498591
     51  H         0.9091897089    1.2159382108   -1.2724395120
     52  H         0.2413088266    2.7200252347   -0.5051986318
     53  H        -0.1867396760   -3.1754856979   -0.0411907114
     54  H        -0.8678995565   -4.3373173883    1.1770499468
     55  H         0.0956803008   -1.9285988626    2.5916092816
     56  H         0.7164417594   -3.6196748589    2.7736481431
   Point Group: c1    Number of degrees of freedom:   162


   Energy is  -1510.294708356

 Hessian Updated using BFGS Update

162 Hessian modes will be used to form the next step
  Hessian Eigenvalues:
     0.000709    0.001745    0.002042    0.003196    0.003316    0.004314
     0.005203    0.006260    0.007180    0.008869    0.011397    0.013968
     0.020822    0.021868    0.022467    0.025413    0.027425    0.028222
     0.029417    0.030791    0.032075    0.032837    0.034501    0.036410
     0.037182    0.038778    0.041052    0.041995    0.042448    0.043951
     0.045378    0.048029    0.048422    0.050681    0.050796    0.051666
     0.052657    0.053540    0.053762    0.055040    0.055290    0.055729
     0.056217    0.056446    0.057238    0.059342    0.061430    0.063107
     0.063182    0.064089    0.064511    0.065488    0.066953    0.069662
     0.069883    0.072642    0.073561    0.074321    0.083450    0.091627
     0.092613    0.093372    0.095054    0.096922    0.100831    0.101615
     0.103049    0.104018    0.108233    0.108688    0.113095    0.116514
     0.118599    0.122940    0.128170    0.136143    0.138505    0.147316
     0.155416    0.159605    0.160416    0.161640    0.163803    0.164796
     0.169735    0.173008    0.182991    0.198425    0.214186    0.219388
     0.224191    0.235768    0.236441    0.238657    0.239234    0.239425
     0.241310    0.242374    0.243709    0.246938    0.250250    0.251030
     0.252117    0.252957    0.254041    0.256194    0.258208    0.261625
     0.263950    0.267742    0.272799    0.275294    0.284851    0.293057
     0.294395    0.303679    0.307047    0.308518    0.315428    0.318356
     0.323186    0.324060    0.324694    0.326626    0.328374    0.328654
     0.328668    0.328941    0.329168    0.329979    0.330060    0.330361
     0.331095    0.331399    0.332787    0.333210    0.333921    0.334634
     0.334734    0.334820    0.334900    0.335076    0.335171    0.335214
     0.335287    0.340021    0.350600    0.365456    0.367012    0.384979
     0.408739    0.428515    0.443072    0.476621    0.795569    0.814505
     0.830611    0.836392    0.885657    1.888548    2.735891    9.550658

 Minimum Search - Taking Simple RFO Step
 Searching for Lamda that Minimizes Along All modes
 Value Taken    Lamda =   0.00000000
 Step Taken.  Stepsize is  0.003763

                             Maximum     Tolerance    Cnvgd?
         Gradient           0.000195      0.000300     YES
         Displacement       0.001291      0.001200      NO
         Energy change      0.000001      0.000001     YES

 Final energy is   -1510.29470835613     


 ******************************
 **  OPTIMIZATION CONVERGED  **
 ******************************

                       Coordinates (Angstroms)
     ATOM                X               Y               Z
      1  O         2.3721338913    0.7977776240    2.5229103805
      2  C         2.7859955145    1.2595255465    1.4357138241
      3  C         3.6897218333    0.4849294030    0.4033961955
      4  C         3.1222067321   -0.9618009639    0.0719674824
      5  C         1.7267075317   -1.2465058438    0.7216278997
      6  O         1.8076660890   -2.4892233547    1.4300606723
      7  C         0.5008857469   -2.8104602964    2.0488274451
      8  C        -0.5815169503   -3.2815212355    0.9939071053
      9  O        -1.8030641169   -2.4580588440    1.1231306315
     10  C        -1.9842533931   -1.6205721995   -0.0337141739
     11  C        -3.2959797317   -0.8039809369    0.2042392258
     12  C        -3.1153081080    0.7615616381    0.4154837082
     13  C        -1.6527165212    1.3265437839    0.3076843922
     14  O        -1.0072436446    1.8277511043    1.2599220171
     15  O         2.5167579353    2.5756610796    0.9659108627
     16  O        -1.2446243974    1.2714636802   -1.0465581311
     17  O        -1.2376176060   -1.6390244569   -1.0350898548
     18  C         0.0595252582    1.9436035947   -1.2706491972
     19  C        -4.2532068977   -0.8265630335   -1.0675758664
     20  C        -5.7090711886   -0.4458562480   -0.5856659901
     21  C        -5.5514922327    1.1022098763   -0.3487016448
     22  C        -4.0390548067    1.3205834550   -0.7536722827
     23  O        -3.8284466908    0.3520507106   -1.8516800618
     24  H        -3.7930552966   -1.2477640075    1.0846534251
     25  H        -3.4967948961    1.0538236718    1.4098706614
     26  H        -4.1804123876   -1.7453470077   -1.6810392627
     27  H        -6.4448714014   -0.6606964912   -1.3769234865
     28  H        -6.0010083399   -0.9902437490    0.3263644205
     29  H        -6.2146517497    1.6822284698   -1.0101643984
     30  H        -5.7476080448    1.3965904057    0.6946239273
     31  H        -3.7837774324    2.3445740778   -1.0877556605
     32  O         0.6882307634   -0.5572088090    0.6274173521
     33  C         1.5421321042    3.2399364416    1.8703681294
     34  C         3.7358378814    1.1328185768   -1.0402975871
     35  C         4.9589330850    0.5207371856   -1.8265580093
     36  C         4.4247541533   -0.9257926191   -2.1477493989
     37  C         2.9838667261   -0.8713341166   -1.5081966617
     38  O         2.5654944464    0.5322139905   -1.7267580548
     39  H         4.7045678780    0.4051070144    0.8352831034
     40  H         3.8208941512   -1.7589741464    0.3790306006
     41  H         1.8737505489    3.1907350873    2.9263143846
     42  H         3.6585192155    2.2365010129   -1.0438490110
     43  H         5.1504203075    1.0931062479   -2.7482479351
     44  H         5.8782110188    0.5099301228   -1.2194195451
     45  H         4.3573133168   -1.0998622001   -3.2334124808
     46  H         5.0449068747   -1.7184820750   -1.6997503526
     47  H         2.2405725972   -1.5655062875   -1.9465684584
     48  H         0.5416487708    2.7544054727    1.7615149954
     49  H         1.4975337092    4.2939684900    1.5412172223
     50  H        -0.0108978641    2.4157631102   -2.2687498591
     51  H         0.9091897089    1.2159382108   -1.2724395120
     52  H         0.2413088266    2.7200252347   -0.5051986318
     53  H        -0.1867396760   -3.1754856979   -0.0411907114
     54  H        -0.8678995565   -4.3373173883    1.1770499468
     55  H         0.0956803008   -1.9285988626    2.5916092816
     56  H         0.7164417594   -3.6196748589    2.7736481431

Z-matrix Print:
$molecule
0 1
O 
C  1 1.249976
O  2 1.432752 1 124.230126
C  3 1.481128 2 110.171603 1 -1.252414 0
H  4 1.107546 3 105.079169 2 -165.789041 0
H  4 1.111973 3 110.697009 2 -47.874684 0
C  2 1.565418 1 127.520584 3 177.605726 0
H  7 1.103602 2 108.513883 1 178.670982 0
C  4 1.583146 3 112.915942 2 73.586668 0
H  9 1.109172 4 110.470991 3 115.173850 0
H  9 1.112888 4 110.419149 3 -6.259721 0
O  9 1.478840 4 109.928149 3 -126.231520 0
C  12 1.439619 9 110.957495 4 111.832955 0
O  13 1.249223 12 124.078609 9 3.050604 0
C  13 1.563352 12 106.687702 9 179.797442 0
H  15 1.104154 13 106.807416 12 -10.730518 0
C  7 1.588786 2 110.211710 1 -58.479515 0
H  17 1.107489 7 114.609137 2 -35.810111 0
O  17 1.480794 7 103.024509 2 83.967191 0
C  19 1.483798 17 95.309107 7 57.122531 0
H  20 1.106393 19 110.314795 17 -178.908066 0
C  17 1.577387 7 108.768591 2 -166.825842 0
H  22 1.101596 17 110.433426 7 166.909623 0
H  22 1.101657 17 111.973367 7 45.555028 0
C  22 1.575106 17 101.268457 7 -74.834709 0
H  25 1.101720 22 111.436125 17 -116.590371 0
H  25 1.101729 22 112.727053 17 120.830995 0
C  20 1.583079 19 103.489609 17 -56.396496 0
H  28 1.105808 20 111.037721 19 150.714457 0
C  28 1.575563 20 114.394760 19 -86.981110 0
O  30 1.251595 28 125.270304 20 163.875018 0
O  30 1.423171 28 110.296515 20 -16.901191 0
C  32 1.486338 30 109.662704 28 173.660203 0
H  33 1.105130 32 105.752323 30 171.615537 0
H  33 1.107887 32 111.337621 30 52.434509 0
H  33 1.117388 32 109.489964 30 -69.384854 0
C  15 1.590028 13 116.051083 12 112.232715 0
H  37 1.104425 15 109.933115 13 -119.458856 0
C  37 1.571623 15 116.781276 13 2.296683 0
O  39 1.254831 37 124.767081 15 -113.770315 0
O  39 1.415467 37 108.659487 15 70.895599 0
C  41 1.484182 39 112.344229 37 172.734900 0
H  42 1.105346 41 110.980970 39 -25.635346 0
H  42 1.106390 41 105.875201 39 -144.487053 0
H  42 1.118673 41 111.904497 39 96.960594 0
C  37 1.591458 15 100.503674 13 122.807578 0
H  46 1.106949 37 114.380951 15 -156.561855 0
O  46 1.479200 37 103.455267 15 -36.414159 0
C  48 1.477962 46 95.015143 37 57.300370 0
H  49 1.107159 48 110.421304 46 -179.451798 0
C  49 1.580100 48 103.560140 46 56.405247 0
H  51 1.101537 49 112.187154 48 -155.793050 0
H  51 1.101656 49 110.447434 48 82.715799 0
C  51 1.574005 49 100.990212 48 -35.395358 0
H  54 1.101658 51 112.803227 49 -119.336114 0
H  54 1.101696 51 111.539891 49 117.977250 0
$end

 
 --------------------------------------------------------------
 
                    Orbital Energies (a.u.)
 --------------------------------------------------------------
 
 Alpha MOs
 -- Occupied --
-18.932 -18.925 -18.924 -18.922 -18.901 -18.884 -18.874 -18.871
-18.861 -18.861 -10.096 -10.094 -10.091 -10.090 -10.068 -10.065
-10.064 -10.061 -10.055 -10.054 -10.037 -10.036 -10.035 -10.032
-10.030 -10.024 -10.024 -10.022 -10.016 -10.015  -1.012  -1.003
 -1.000  -0.995  -0.978  -0.965  -0.936  -0.929  -0.924  -0.921
 -0.765  -0.757  -0.725  -0.719  -0.711  -0.704  -0.692  -0.647
 -0.639  -0.616  -0.592  -0.577  -0.547  -0.540  -0.538  -0.532
 -0.509  -0.506  -0.476  -0.467  -0.462  -0.454  -0.448  -0.438
 -0.435  -0.429  -0.427  -0.413  -0.406  -0.397  -0.392  -0.387
 -0.384  -0.374  -0.367  -0.360  -0.357  -0.354  -0.344  -0.341
 -0.336  -0.336  -0.332  -0.327  -0.325  -0.322  -0.319  -0.311
 -0.305  -0.302  -0.300  -0.296  -0.290  -0.283  -0.274  -0.273
 -0.269  -0.257  -0.244  -0.242  -0.237  -0.230  -0.229  -0.180
 -0.166  -0.166  -0.163  -0.152  -0.149  -0.147  -0.141  -0.139
 -0.137
 -- Virtual --
  0.097   0.104   0.111   0.116   0.225   0.238   0.249   0.256
  0.266   0.277   0.285   0.292   0.309   0.316   0.323   0.331
  0.338   0.345   0.345   0.356   0.359   0.365   0.372   0.374
  0.376   0.378   0.386   0.404   0.406   0.407   0.409   0.414
  0.415   0.419   0.422   0.427   0.433   0.434   0.439   0.441
  0.450   0.453   0.457   0.458   0.464   0.467   0.471   0.473
  0.486   0.488   0.491   0.498   0.504   0.506   0.512   0.537
  0.545   0.551   0.557   0.645   0.654   0.658   0.670
 --------------------------------------------------------------
 
          Ground-State Mulliken Net Atomic Charges

     Atom                 Charge (a.u.)
  ----------------------------------------
      1 O                    -0.217550
      2 C                     0.210592
      3 C                    -0.079439
      4 C                    -0.079986
      5 C                     0.212072
      6 O                    -0.171389
      7 C                    -0.051603
      8 C                    -0.057447
      9 O                    -0.175154
     10 C                     0.213987
     11 C                    -0.078308
     12 C                    -0.077608
     13 C                     0.218627
     14 O                    -0.221998
     15 O                    -0.173802
     16 O                    -0.159292
     17 O                    -0.203661
     18 C                    -0.145897
     19 C                     0.026713
     20 C                    -0.143895
     21 C                    -0.144573
     22 C                     0.027488
     23 O                    -0.182138
     24 H                     0.085715
     25 H                     0.083095
     26 H                     0.083095
     27 H                     0.077034
     28 H                     0.072953
     29 H                     0.076966
     30 H                     0.073126
     31 H                     0.083509
     32 O                    -0.211717
     33 C                    -0.146629
     34 C                     0.024466
     35 C                    -0.143396
     36 C                    -0.143441
     37 C                     0.027146
     38 O                    -0.184886
     39 H                     0.084137
     40 H                     0.087060
     41 H                     0.084064
     42 H                     0.095931
     43 H                     0.079219
     44 H                     0.074608
     45 H                     0.079858
     46 H                     0.075321
     47 H                     0.089332
     48 H                     0.118849
     49 H                     0.079461
     50 H                     0.078430
     51 H                     0.116696
     52 H                     0.082830
     53 H                     0.099644
     54 H                     0.083114
     55 H                     0.100061
     56 H                     0.088610
  ----------------------------------------
  Sum of atomic charges =    -0.000000

 -----------------------------------------------------------------
                    Cartesian Multipole Moments
 -----------------------------------------------------------------
    Charge (ESU x 10^10)
                -0.0000
    Dipole Moment (Debye)
         X       0.6876      Y      -1.0979      Z       0.2493
       Tot       1.3193
    Quadrupole Moments (Debye-Ang)
        XX    -137.3706     XY      -0.2036     YY    -149.1853
        XZ      -8.1099     YZ      -1.1924     ZZ    -167.2368
    Octopole Moments (Debye-Ang^2)
       XXX       0.4961    XXY       1.3646    XYY      -7.2859
       YYY      -5.1937    XXZ      -5.0856    XYZ       2.5063
       YYZ       7.5994    XZZ       7.9192    YZZ      -6.1772
       ZZZ       4.5748
    Hexadecapole Moments (Debye-Ang^3)
      XXXX   -8911.2059   XXXY    -130.9077   XXYY   -2039.8585
      XYYY    -103.8727   YYYY   -2702.3086   XXXZ     -87.1326
      XXYZ      51.6139   XYYZ       7.6240   YYYZ      38.6683
      XXZZ   -1901.6608   XYZZ     -28.4260   YYZZ    -728.2790
      XZZZ    -102.3840   YZZZ      54.9401   ZZZZ   -1807.2851
 -----------------------------------------------------------------
Archival summary:
1\1\vega02.cac.cornell.edu\OPT\ProcedureUnspecified\STO-3G\102026\jj585\TueJan1608:25:442018TueJan1608:25:442018\0\\#,OPT,ProcedureUnspecified,STO-3G,\\0,1\O\C,1,1.24998\O,2,1.43275,1,124.23\C,3,1.48113,2,110.172,1,-1.25241,0\H,4,1.10755,3,105.079,2,-165.789,0\H,4,1.11197,3,110.697,2,-47.8747,0\C,2,1.56542,1,127.521,3,177.606,0\H,7,1.1036,2,108.514,1,178.671,0\C,4,1.58315,3,112.916,2,73.5867,0\H,9,1.10917,4,110.471,3,115.174,0\H,9,1.11289,4,110.419,3,-6.25972,0\O,9,1.47884,4,109.928,3,-126.232,0\C,12,1.43962,9,110.957,4,111.833,0\O,13,1.24922,12,124.079,9,3.0506,0\C,13,1.56335,12,106.688,9,179.797,0\H,15,1.10415,13,106.807,12,-10.7305,0\C,7,1.58879,2,110.212,1,-58.4795,0\H,17,1.10749,7,114.609,2,-35.8101,0\O,17,1.48079,7,103.025,2,83.9672,0\C,19,1.4838,17,95.3091,7,57.1225,0\H,20,1.10639,19,110.315,17,-178.908,0\C,17,1.57739,7,108.769,2,-166.826,0\H,22,1.1016,17,110.433,7,166.91,0\H,22,1.10166,17,111.973,7,45.555,0\C,22,1.57511,17,101.268,7,-74.8347,0\H,25,1.10172,22,111.436,17,-116.59,0\H,25,1.10173,22,112.727,17,120.831,0\C,20,1.58308,19,103.49,17,-56.3965,0\H,28,1.10581,20,111.038,19,150.714,0\C,28,1.57556,20,114.395,19,-86.9811,0\O,30,1.25159,28,125.27,20,163.875,0\O,30,1.42317,28,110.297,20,-16.9012,0\C,32,1.48634,30,109.663,28,173.66,0\H,33,1.10513,32,105.752,30,171.616,0\H,33,1.10789,32,111.338,30,52.4345,0\H,33,1.11739,32,109.49,30,-69.3849,0\C,15,1.59003,13,116.051,12,112.233,0\H,37,1.10443,15,109.933,13,-119.459,0\C,37,1.57162,15,116.781,13,2.29668,0\O,39,1.25483,37,124.767,15,-113.77,0\O,39,1.41547,37,108.659,15,70.8956,0\C,41,1.48418,39,112.344,37,172.735,0\H,42,1.10535,41,110.981,39,-25.6353,0\H,42,1.10639,41,105.875,39,-144.487,0\H,42,1.11867,41,111.904,39,96.9606,0\C,37,1.59146,15,100.504,13,122.808,0\H,46,1.10695,37,114.381,15,-156.562,0\O,46,1.4792,37,103.455,15,-36.4142,0\C,48,1.47796,46,95.0151,37,57.3004,0\H,49,1.10716,48,110.421,46,-179.452,0\C,49,1.5801,48,103.56,46,56.4052,0\H,51,1.10154,49,112.187,48,-155.793,0\H,51,1.10166,49,110.447,48,82.7158,0\C,51,1.57401,49,100.99,48,-35.3954,0\H,54,1.10166,51,112.803,49,-119.336,0\H,54,1.1017,51,111.54,49,117.977,0\\\@

 Total job time:  137.25s(wall), 6429.24s(cpu) 
 Tue Jan 16 08:25:44 2018

        *************************************************************
        *                                                           *
        *  Thank you very much for using Q-Chem.  Have a nice day.  *
        *                                                           *
        *************************************************************


0 sent ACK to 0 
now end server 0 ... 
