mFile = /opt/software/qchem/qchem-5.0.1//bin/mpi/machines
Process 0 of 1 is on vega02.cac.cornell.edu - thread support 0
initial socket setup ...start
initial socket setup ...done 
now start server 0 ... 
vega02.cac.cornell.edu 10.84.3
Q-Chem Developer Version! Running on 10.84.3.*
                  Welcome to Q-Chem
     A Quantum Leap Into The Future Of Chemistry


 Q-Chem 5.0, Q-Chem, Inc., Pleasanton, CA (2017)

 Yihan Shao,  Zhengting Gan,  E. Epifanovsky,  A. T. B. Gilbert,  M. Wormit,  
 J. Kussmann,  A. W. Lange,  A. Behn,  Jia Deng,  Xintian Feng,  D. Ghosh,  
 M. Goldey,  P. R. Horn,  L. D. Jacobson,  I. Kaliman,  T. Kus,  A. Landau,  
 Jie Liu,  E. I. Proynov,  R. M. Richard,  R. P. Steele,  E. J. Sundstrom,  
 H. L. Woodcock III,  P. M. Zimmerman,  D. Zuev,  B. Albrecht,  E. Alguire,  
 S. A. Baeppler,  Z. Benda,  Y. A. Bernard,  E. J. Berquist,  K. B. Bravaya,  
 D. Casanova,  Chun-Min Chang,  Yunqing Chen,  A. Chien,  K. D. Closser,  
 M. P. Coons,  S. Dasgupta,  M. Diedenhofen,  Hainam Do,  R. G. Edgar,  
 Po-Tung Fang,  S. Fatehi,  Qingguo Feng,  Qinghui Ge,  A. Ghysels,  
 J. Gomes,  J. Gonthier,  A. Gunina,  M. W. D. Hanson-Heine,  
 P. H. P. Harbach,  A. W. Hauser,  J. E. Herr,  E. G. Hohenstein,  
 Z. C. Holden,  Kerwin Hui,  T.-C. Jagau,  Hyunjun Ji,  B. Kaduk,  
 K. Khistyaev,  Jaehoon Kim,  P. Klunzinger,  K. Koh,  D. Kosenkov,  
 T. Kowalczyk,  C. M. Krauter,  A. Kunitsa,  Ka Un Lao,  A. Laurent,  
 K. V. Lawler,  Joonho Lee,  D. Lefrancois,  S. Lehtola,  D. S. Levine,  
 Yi-Pei Li,  You-Sheng Lin,  Fenglai Liu,  E. Livshits,  A. Luenser,  
 P. Manohar,  E. Mansoor,  S. F. Manzer,  Shan-Ping Mao,  Yuezhi Mao,  
 N. Mardirossian,  A. V. Marenich,  L. A. Martinez-Martinez,  S. A. Maurer,  
 N. J. Mayhall,  S. C. McKenzie,  J.-M. Mewes,  A. F. Morrison,  K. Nanda,  
 T. S. Nguyen-Beck,  R. Olivares-Amaya,  J. A. Parkhill,  T. M. Perrine,  
 F. Plasser,  S. Prager,  A. Prociuk,  D. R. Rehn,  F. Rob,  M. Schneider,  
 N. Sergueev,  S. M. Sharada,  S. Sharma,  D. W. Small,  T. Stauch,  
 T. Stein,  Yu-Chuan Su,  A. J. W. Thom,  T. Tsuchimochi,  L. Vogt,  
 O. Vydrov,  M. A. Watson,  J. Wenzel,  M. de Wergifosse,  T. A. Wesolowski,  
 A. White,  J. Witte,  A. Yamada,  Jun Yang,  K. Yao,  S. Yeganeh,  
 S. R. Yost,  Zhi-Qiang You,  A. Zech,  Igor Ying Zhang,  Xing Zhang,  
 Yan Zhao,  Ying Zhu,  B. R. Brooks,  G. K. L. Chan,  C. J. Cramer,  
 M. S. Gordon,  W. J. Hehre,  A. Klamt,  M. W. Schmidt,  C. D. Sherrill,  
 D. G. Truhlar,  A. Aspuru-Guzik,  R. Baer,  A. T. Bell,  N. A. Besley,  
 Jeng-Da Chai,  A. Dreuw,  B. D. Dunietz,  T. R. Furlani,  Chao-Ping Hsu,  
 Yousung Jung,  Jing Kong,  D. S. Lambrecht,  WanZhen Liang,  C. Ochsenfeld,  
 V. A. Rassolov,  L. V. Slipchenko,  J. E. Subotnik,  T. Van Voorhis,  
 J. M. Herbert,  A. I. Krylov,  P. M. W. Gill,  M. Head-Gordon

 Contributors to earlier versions of Q-Chem not listed above: 
 R. D. Adamson,  B. Austin,  J. Baker,  G. J. O. Beran,  K. Brandhorst,  
 S. T. Brown,  E. F. C. Byrd,  A. K. Chakraborty,  C.-L. Cheng,  
 Siu Hung Chien,  D. M. Chipman,  D. L. Crittenden,  H. Dachsel,  
 R. A. DiStasio Jr.,  R. J. Doerksen,  A. D. Dutoi,  L. Fusti-Molnar,  
 W. A. Goddard III,  A. Golubeva-Zadorozhnaya,  S. R. Gwaltney,  G. Hawkins,  
 A. Heyden,  S. Hirata,  G. Kedziora,  F. J. Keil,  C. Kelley,  Jihan Kim,  
 R. A. King,  R. Z. Khaliullin,  P. P. Korambath,  W. Kurlancheek,  
 A. M. Lee,  M. S. Lee,  S. V. Levchenko,  Ching Yeh Lin,  D. Liotard,  
 R. C. Lochan,  I. Lotan,  P. E. Maslen,  N. Nair,  D. P. O'Neill,  
 D. Neuhauser,  E. Neuscamman,  C. M. Oana,  R. Olson,  B. Peters,  
 R. Peverati,  P. A. Pieniazek,  Y. M. Rhee,  J. Ritchie,  M. A. Rohrdanz,  
 E. Rosta,  N. J. Russ,  H. F. Schaefer III,  N. E. Schultz,  N. Shenvi,  
 A. C. Simmonett,  A. Sodt,  D. Stuck,  K. S. Thanthiriwatte,  V. Vanovschi,  
 Tao Wang,  A. Warshel,  C. F. Williams,  Q. Wu,  X. Xu,  W. Zhang

 Please cite Q-Chem as follows:
 Y. Shao et al., Mol. Phys. 113, 184-215 (2015)
 DOI: 10.1080/00268976.2014.952696

 Q-Chem 5.0.1 for Intel X86 EM64T Linux

 Parts of Q-Chem use Armadillo 5.200.1 (Boston Tea Smuggler).
 http://arma.sourceforge.net/

 Q-Chem begins on Tue Jan 16 08:27:10 2018  

Host: vega02.cac.cornell.edu
0

     Scratch files written to /scratch/jj585/SOT1001/1095r.save//
 Parallel job on  1  processors

Checking the input file for inconsistencies... 	...done.

--------------------------------------------------------------
User input:
--------------------------------------------------------------
$molecule
0  1
O -2.225205209 -1.2743043534 2.347961785
C -2.6357001231 -1.5110056153 1.1912935386
C -3.5733310618 -0.5802907507 0.335099464
C -3.257310112 0.9616349069 0.4836704146
C -1.7866726845 1.2728709956 0.9278757076
O -1.7492856219 2.594815145 1.4863667674
C -0.3860970387 2.8531696929 2.0077809555
C 0.6780645838 3.1275221015 0.871021668
O 1.8410539541 2.2253266051 1.019320511
C 2.1261518635 1.596972593 -0.248677334
C 3.3636175511 0.6671037464 -0.0327071172
C 3.0445935606 -0.7467720311 0.6123764962
C 1.5706070558 -1.2604170037 0.399023434
O 0.9390994433 -2.0085943303 1.181156173
O -2.3957665099 -2.7291725583 0.4846090435
O 1.1594263354 -0.8384012818 -0.8892983433
O 1.5100652418 1.856164626 -1.3043358802
C -0.1551126794 -1.3771906834 -1.3092262696
C 4.1655736858 0.2486155397 -1.3396166939
C 5.6617899521 0.0195605939 -0.8931269831
C 5.5059055885 -1.2884273933 -0.0295562192
C 3.9894971209 -1.658903771 -0.2911706823
O 3.7164354883 -1.1287399685 -1.6464824389
H 4.0334820145 1.2172037505 0.6533944616
H 3.294906246 -0.7908868113 1.6863114639
H 4.0106600878 0.9115021556 -2.2127249471
H 6.3006268759 -0.1552643155 -1.773887848
H 6.0711896173 0.8663611909 -0.3196632036
H 6.1687900694 -2.0932734839 -0.3844178091
H 5.7049173565 -1.1143008011 1.040206266
H 3.7564094204 -2.7405752616 -0.2439991961
O -0.7771360091 0.5483551268 0.8027691147
C -1.537506693 -3.6241330734 1.3060713823
C -3.5445445997 -0.7727101449 -1.2394316974
C -4.936703971 -0.2947662104 -1.8006687416
C -4.8287560312 1.259532913 -1.5716166489
C -3.3449161874 1.3983293107 -1.0483561213
O -2.6237777618 0.2870358447 -1.7201258397
H -4.5996171464 -0.7697648841 0.7036675524
H -3.9725216849 1.4983914413 1.1298299892
H -1.9871583758 -3.810824408 2.3011986872
H -3.2018795732 -1.7715998001 -1.5697779502
H -5.0216575259 -0.5378094299 -2.8720307935
H -5.7848278628 -0.7499251511 -1.2649020408
H -4.9629075796 1.8200798301 -2.5103320101
H -5.5569009328 1.6299954166 -0.8321087985
H -2.8570341175 2.3669636735 -1.2723435306
H -0.5283184792 -3.1634881048 1.4224379045
H -1.4686408214 -4.5721572718 0.742445989
H -0.873099561 -0.5381860809 -1.4626551237
H -0.5761000732 -2.0696485194 -0.5577322529
H -0.0005741098 -1.9128536976 -2.2664234473
H 0.2412879291 2.9724529856 -0.1410264377
H 1.0396395817 4.1756796389 0.9395257979
H -0.0318710787 1.994792401 2.6192853113
H -0.4941836659 3.7440242238 2.6572226466
$end

$rem
JOBTYPE                   OPT
METHOD                    B3LYP
DFT_D                     d3_op
BASIS                     STO-3G
GEOM_OPT_MAX_CYCLES       100
GEOM_OPT_TOL_GRADIENT     300
GEOM_OPT_TOL_DISPLACEMENT 1200
GEOM_OPT_TOL_ENERGY       100
SYMMETRY                  False
THRESH                    12
SCF_CONVERGENCE           8
MAX_SUB_FILE_NUM          128
MEM_STATIC                400
MEM_TOTAL                 4000
$end
--------------------------------------------------------------
 Adding empirical dispersion correction 
 ----------------------------------------------------------------
 Doing -D3(op) with
 s6 =   1.00000
 s8 =   0.78311
 a1 =   0.30000
 a2 =   4.25000
 n  =  10.00000
 -D3 energy without 3body term =     -0.0766475009 hartrees
 ----------------------------------------------------------------
             Standard Nuclear Orientation (Angstroms)
    I     Atom           X                Y                Z
 ----------------------------------------------------------------
    1      O      -2.2095681188    -1.2465927936     2.3404196063
    2      C      -2.5865514901    -1.5343681495     1.1839232266
    3      C      -3.5354772629    -0.6640901923     0.2780499546
    4      C      -3.2739918261     0.8916370473     0.3820471854
    5      C      -1.8245509127     1.2666187157     0.8462351595
    6      O      -1.8431850381     2.6064651320     1.3613183959
    7      C      -0.5010506101     2.9274925328     1.9021691391
    8      C       0.5781106160     3.2006916129     0.7793582951
    9      O       1.7667905656     2.3435912800     0.9816267626
   10      C       2.1002537954     1.6844944743    -0.2586642486
   11      C       3.3627838338     0.8044597202     0.0136907916
   12      C       3.0766628618    -0.5977555184     0.6984397259
   13      C       1.6255138625    -1.1675608161     0.4715578010
   14      O       1.0021202624    -1.9109291046     1.2647077270
   15      O      -2.2910013251    -2.7659785514     0.5230996999
   16      O       1.2289309919    -0.8016282326    -0.8383105997
   17      O       1.4992151186     1.8883922559    -1.3349246285
   18      C      -0.0575358779    -1.3978521640    -1.2674566362
   19      C       4.2066053923     0.3712057252    -1.2616659492
   20      C       5.6994357323     0.2074270010    -0.7767778683
   21      C       5.5680321820    -1.0764270848     0.1261832422
   22      C       4.0708144206    -1.5062174043    -0.1545457564
   23      O       3.8101310690    -1.0297571294    -1.5320565791
   24      H       3.9988753741     1.3988155474     0.6950075265
   25      H       3.3046973405    -0.5985812419     1.7782260306
   26      H       4.0490145139     0.9998532072    -2.1592752009
   27      H       6.3628613907     0.0258582051    -1.6377745196
   28      H       6.0679175681     1.0857077916    -0.2232581913
   29      H       6.2648090448    -1.8694815839    -0.1879606380
   30      H       5.7376749853    -0.8611195047     1.1935076980
   31      H       3.8726741306    -2.5930527494    -0.0764586458
   32      O      -0.7890898745     0.5729625682     0.7662302213
   33      C      -1.4218060706    -3.6043485551     1.3914314092
   34      C      -3.4658313516    -0.9063199260    -1.2883077520
   35      C      -4.8604084588    -0.4941247143    -1.8939272190
   36      C      -4.8090056918     1.0695371129    -1.7142529866
   37      C      -3.3423988186     1.2752746292    -1.1650872052
   38      O      -2.5703254183     0.1678136978    -1.7845396255
   39      H      -4.5627629197    -0.8761033134     0.6312363447
   40      H      -4.0205674806     1.4245616687     0.9950508617
   41      H      -1.8867382310    -3.7738022424     2.3826136212
   42      H      -3.0831370974    -1.9032331671    -1.5782001593
   43      H      -4.9137671039    -0.7744705791    -2.9581935439
   44      H      -5.7045445923    -0.9600953811    -1.3611652828
   45      H      -4.9410258515     1.5945339196    -2.6735991410
   46      H      -5.5650472273     1.4389361527    -1.0027370901
   47      H      -2.8820482021     2.2520810361    -1.4108072812
   48      H      -0.4312090222    -3.1063341546     1.5134762784
   49      H      -1.3092650190    -4.5672603348     0.8610528755
   50      H      -0.7993603450    -0.5890007076    -1.4634925512
   51      H      -0.4717476077    -2.0794397786    -0.5023824803
   52      H       0.1355905112    -1.9587059832    -2.2029718218
   53      H       0.1689945154     2.9982545212    -0.2358780741
   54      H       0.9032104344     4.2621383472     0.8206433564
   55      H      -0.1321003282     2.1018319084     2.5489963231
   56      H      -0.6527705965     3.8347511593     2.5193740117
 ----------------------------------------------------------------
 Molecular Point Group                 C1    NOp =  1
 Largest Abelian Subgroup              C1    NOp =  1
 Nuclear Repulsion Energy =  3370.1052134210 hartrees
 There are      113 alpha and      113 beta electrons
 Requested basis set is STO-3G
 There are 86 shells and 176 basis functions

 Total QAlloc Memory Limit   4000 MB
 Mega-Array Size       392 MB
 MEM_STATIC part       400 MB
 A cutoff of  1.0D-12 yielded   2501 shell pairs
 There are     12170 function pairs
 
 -------------------------------------------------------
 OpenMP Integral Computing Module                       
 Release: version 1.0, May 2013, Q-Chem Inc. Pittsburgh 
 -------------------------------------------------------
 Integral Job Info:
 Integral job number is                      11
 Integral operator is                         1
 short-range coefficients                     0
 long-range coefficients              100000000
 Omega coefficients                           0
 if combine SR and LR in K                    0
 Integral screening is                        0
 Integral computing path is                   2
 max size of driver memory is            800000
 size of driver memory is                 45569
 size of scratch memory is              1046100
 max col of scratch BK array                289
 max len of scratch array in speh3           22
 max len of scratch index in speh4            8
 max int batch size is                      520
 min int batch size is                       52
 fixed nKL is                                52
 max L of basis functions is                  1
 order of int derivative is                   0
 number of shells is                         86
 number of basis is                         176
 number of cartesian basis is               176
 number of contracted shell pairs          2501
 number of primitive shell pairs          12328
 maxK2 (contraction) of shell pair            9
 max number of K2 of shell pair               1
 max number of CS2 of shell pair            380
 max number of PS2 of shell pair           1332
 mem total for path MDJ                   52746
 -------------------------------------------------------
 Smallest overlap matrix eigenvalue = 2.13E-01

 Scale SEOQF with 1.000000e-02/1.000000e-01/1.000000e-01

 Standard Electronic Orientation quadrupole field applied
 Nucleus-field energy     =     0.0000000189 hartrees
 Guess from superposition of atomic densities
 Warning:  Energy on first SCF cycle will be non-variational
 A restricted hybrid HF-DFT SCF calculation will be
 performed using Pulay DIIS extrapolation
 Exchange:     0.2000 Hartree-Fock + 0.0800 Slater + 0.7200 B88
 Correlation:  0.1900 VWN1RPA + 0.8100 LYP
 Using SG-1 standard quadrature grid
 Dispersion:   Grimme D3
 SCF converges when DIIS error is below 1.0E-08
 using 48 threads for integral computing
 -------------------------------------------------------
 OpenMP Integral computing Module                
 Release: version 1.0, May 2013, Q-Chem Inc. Pittsburgh 
 -------------------------------------------------------
 -------------------------------------------------------
 OpenMP BLAS3 based DFT computing Module                
 Release: version 1.0, May 2013, Q-Chem Inc. Pittsburgh 
 -------------------------------------------------------
 ---------------------------------------
  Cycle       Energy         DIIS Error
 ---------------------------------------
    1   -1507.6545046193      7.47E-02
    2   -1509.7576621736      1.03E-02
    3   -1507.5695496521      2.61E-02
    4   -1510.2002161044      4.37E-03
    5   -1510.2793125505      1.40E-03
    6   -1510.2872334343      4.86E-04
    7   -1510.2881797946      1.63E-04
    8   -1510.2882950942      3.22E-05
    9   -1510.2882994555      9.62E-06
   10   -1510.2882997866      4.74E-06
   11   -1510.2882998714      1.82E-06
   12   -1510.2882998860      2.77E-07
   13   -1510.2882998863      9.47E-08
   14   -1510.2882998863      3.02E-08
   15   -1510.2882998863      1.53E-08
   16   -1510.2882998864      7.21E-09 Convergence criterion met
 ---------------------------------------
 SCF time:  CPU 123.39 s  wall 2.63 s
 SCF   energy in the final basis set = -1510.28829989
 Total energy in the final basis set = -1510.28829989
 
 --------------------------------------------------------------
 
                    Orbital Energies (a.u.)
 --------------------------------------------------------------
 
 Alpha MOs
 -- Occupied --
-18.933 -18.924 -18.924 -18.921 -18.898 -18.882 -18.877 -18.873
-18.864 -18.861 -10.099 -10.094 -10.092 -10.091 -10.070 -10.066
-10.062 -10.061 -10.055 -10.054 -10.040 -10.037 -10.037 -10.032
-10.030 -10.026 -10.025 -10.023 -10.017 -10.016  -1.015  -1.004
 -1.001  -0.994  -0.977  -0.964  -0.938  -0.930  -0.925  -0.922
 -0.766  -0.758  -0.727  -0.719  -0.712  -0.703  -0.692  -0.648
 -0.640  -0.615  -0.593  -0.577  -0.547  -0.541  -0.539  -0.532
 -0.511  -0.504  -0.477  -0.470  -0.460  -0.453  -0.451  -0.439
 -0.435  -0.428  -0.426  -0.418  -0.405  -0.399  -0.392  -0.386
 -0.385  -0.375  -0.369  -0.360  -0.357  -0.356  -0.347  -0.340
 -0.338  -0.335  -0.331  -0.325  -0.323  -0.320  -0.317  -0.313
 -0.305  -0.302  -0.300  -0.299  -0.293  -0.284  -0.279  -0.272
 -0.266  -0.257  -0.244  -0.242  -0.240  -0.229  -0.227  -0.184
 -0.166  -0.165  -0.163  -0.153  -0.151  -0.149  -0.141  -0.141
 -0.135
 -- Virtual --
  0.097   0.106   0.112   0.114   0.224   0.242   0.250   0.254
  0.264   0.272   0.285   0.291   0.307   0.314   0.322   0.329
  0.337   0.342   0.346   0.353   0.356   0.363   0.368   0.370
  0.374   0.377   0.387   0.397   0.404   0.406   0.407   0.412
  0.412   0.420   0.421   0.433   0.436   0.436   0.440   0.443
  0.449   0.452   0.456   0.457   0.462   0.467   0.471   0.475
  0.485   0.487   0.488   0.494   0.505   0.507   0.512   0.535
  0.543   0.550   0.557   0.639   0.654   0.660   0.670
 --------------------------------------------------------------
 
          Ground-State Mulliken Net Atomic Charges

     Atom                 Charge (a.u.)
  ----------------------------------------
      1 O                    -0.213720
      2 C                     0.213020
      3 C                    -0.080218
      4 C                    -0.078088
      5 C                     0.213454
      6 O                    -0.173110
      7 C                    -0.051323
      8 C                    -0.058225
      9 O                    -0.175237
     10 C                     0.217769
     11 C                    -0.077933
     12 C                    -0.075170
     13 C                     0.220843
     14 O                    -0.223550
     15 O                    -0.176187
     16 O                    -0.161281
     17 O                    -0.205730
     18 C                    -0.145206
     19 C                     0.026420
     20 C                    -0.142070
     21 C                    -0.145207
     22 C                     0.024553
     23 O                    -0.184945
     24 H                     0.083331
     25 H                     0.085388
     26 H                     0.088310
     27 H                     0.077118
     28 H                     0.072347
     29 H                     0.077274
     30 H                     0.073381
     31 H                     0.081635
     32 O                    -0.209152
     33 C                    -0.146236
     34 C                     0.023880
     35 C                    -0.142016
     36 C                    -0.144383
     37 C                     0.025907
     38 O                    -0.188254
     39 H                     0.083439
     40 H                     0.089172
     41 H                     0.082645
     42 H                     0.095201
     43 H                     0.079391
     44 H                     0.074833
     45 H                     0.079803
     46 H                     0.075281
     47 H                     0.085387
     48 H                     0.118727
     49 H                     0.080880
     50 H                     0.108239
     51 H                     0.093569
     52 H                     0.077584
     53 H                     0.102547
     54 H                     0.079096
     55 H                     0.098834
     56 H                     0.087983
  ----------------------------------------
  Sum of atomic charges =    -0.000000

 -----------------------------------------------------------------
                    Cartesian Multipole Moments
 -----------------------------------------------------------------
    Charge (ESU x 10^10)
                 0.0000
    Dipole Moment (Debye)
         X      -0.9084      Y       1.1661      Z       0.4235
       Tot       1.5376
    Quadrupole Moments (Debye-Ang)
        XX    -136.0156     XY       0.7787     YY    -151.3348
        XZ       7.0761     YZ       2.6279     ZZ    -167.2276
    Octopole Moments (Debye-Ang^2)
       XXX      -6.5244    XXY       1.8482    XYY       1.0393
       YYY       0.8957    XXZ       0.5607    XYZ      -1.5504
       YYZ      11.3100    XZZ      -5.4696    YZZ       7.1300
       ZZZ       4.1036
    Hexadecapole Moments (Debye-Ang^3)
      XXXX   -8944.1615   XXXY      14.3607   XXYY   -2079.2878
      XYYY      35.7278   YYYY   -2829.9340   XXXZ      -7.1076
      XXYZ     -44.0449   XYYZ     -16.5965   YYYZ       6.7554
      XXZZ   -1855.2126   XYZZ      18.3467   YYZZ    -739.1322
      XZZZ      -5.6076   YZZZ      19.9662   ZZZZ   -1578.1604
 -----------------------------------------------------------------
 Calculating analytic gradient of the SCF energy
 Gradient of SCF Energy
            1           2           3           4           5           6
    1   0.0006451  -0.0010742   0.0028086  -0.0038379   0.0022196  -0.0010082
    2   0.0003829  -0.0006305   0.0003349  -0.0012760   0.0015451   0.0040287
    3  -0.0003931   0.0006956  -0.0072448   0.0121499  -0.0063702  -0.0010718
            7           8           9          10          11          12
    1  -0.0026746   0.0016728   0.0019538  -0.0015387   0.0004485   0.0003114
    2  -0.0019793  -0.0050744   0.0034800  -0.0011494  -0.0018595   0.0019188
    3   0.0002278  -0.0007592   0.0026517   0.0026523  -0.0075968   0.0052040
           13          14          15          16          17          18
    1  -0.0005301   0.0004234  -0.0000794   0.0000435   0.0001115   0.0000548
    2   0.0013072  -0.0008880   0.0001497  -0.0000910  -0.0001529   0.0000166
    3   0.0004594  -0.0005216   0.0000537   0.0000191  -0.0000005   0.0001089
           19          20          21          22          23          24
    1  -0.0000545  -0.0000139  -0.0001014   0.0002180   0.0000044  -0.0000430
    2   0.0000291   0.0001216  -0.0000698   0.0000091  -0.0000670  -0.0000455
    3  -0.0000786  -0.0000144   0.0000925  -0.0000416   0.0000929  -0.0000181
           25          26          27          28          29          30
    1   0.0000673  -0.0000039   0.0000281  -0.0000079  -0.0000165  -0.0000055
    2  -0.0000018  -0.0000273   0.0000488  -0.0000001   0.0000138   0.0000732
    3  -0.0000093   0.0000060  -0.0000384   0.0000376   0.0000300  -0.0000272
           31          32          33          34          35          36
    1  -0.0000499   0.0000802  -0.0000292  -0.0001134   0.0000929  -0.0000006
    2   0.0000199   0.0000683  -0.0000450  -0.0001180  -0.0000138   0.0001346
    3  -0.0000302  -0.0000167  -0.0000075   0.0000673   0.0000028  -0.0001166
           37          38          39          40          41          42
    1  -0.0001179   0.0000784   0.0000307  -0.0000318   0.0000259  -0.0000517
    2  -0.0000363   0.0000275  -0.0000210   0.0000160   0.0000299   0.0000298
    3  -0.0000045   0.0000687  -0.0000346  -0.0000268  -0.0000095  -0.0000761
           43          44          45          46          47          48
    1   0.0000001   0.0000301   0.0000417   0.0000459   0.0000248   0.0000760
    2  -0.0000398  -0.0000261  -0.0000215  -0.0000484   0.0000130  -0.0001015
    3   0.0000394  -0.0000155  -0.0000125   0.0000785  -0.0000035  -0.0000189
           49          50          51          52          53          54
    1  -0.0000048  -0.0000037  -0.0000039  -0.0000057  -0.0001444   0.0000078
    2  -0.0000086   0.0000071  -0.0000186   0.0000171   0.0000723  -0.0000053
    3   0.0000219  -0.0000563  -0.0000291  -0.0000066  -0.0000526   0.0000091
           55          56
    1   0.0000163  -0.0000147
    2  -0.0000359  -0.0000430
    3  -0.0000571  -0.0000090
 Max gradient component =       1.215E-02
 RMS gradient           =       1.661E-03
 Gradient time:  CPU 35.95 s  wall 0.78 s
 Geometry Optimization Parameters
   NAtoms,    NIC,     NZ,  NCons,   NDum,   NFix, NCnnct, MaxDiis
       56     458       0       0       0       0       0       0


** GEOMETRY OPTIMIZATION IN DELOCALIZED INTERNAL COORDINATES **
   Searching for a Minimum

   Optimization Cycle:   1

                       Coordinates (Angstroms)
     ATOM                X               Y               Z
      1  O        -2.2095681188   -1.2465927936    2.3404196063
      2  C        -2.5865514901   -1.5343681495    1.1839232266
      3  C        -3.5354772629   -0.6640901923    0.2780499546
      4  C        -3.2739918261    0.8916370473    0.3820471854
      5  C        -1.8245509127    1.2666187157    0.8462351595
      6  O        -1.8431850381    2.6064651320    1.3613183959
      7  C        -0.5010506101    2.9274925328    1.9021691391
      8  C         0.5781106160    3.2006916129    0.7793582951
      9  O         1.7667905656    2.3435912800    0.9816267626
     10  C         2.1002537954    1.6844944743   -0.2586642486
     11  C         3.3627838338    0.8044597202    0.0136907916
     12  C         3.0766628618   -0.5977555184    0.6984397259
     13  C         1.6255138625   -1.1675608161    0.4715578010
     14  O         1.0021202624   -1.9109291046    1.2647077270
     15  O        -2.2910013251   -2.7659785514    0.5230996999
     16  O         1.2289309919   -0.8016282326   -0.8383105997
     17  O         1.4992151186    1.8883922559   -1.3349246285
     18  C        -0.0575358779   -1.3978521640   -1.2674566362
     19  C         4.2066053923    0.3712057252   -1.2616659492
     20  C         5.6994357323    0.2074270010   -0.7767778683
     21  C         5.5680321820   -1.0764270848    0.1261832422
     22  C         4.0708144206   -1.5062174043   -0.1545457564
     23  O         3.8101310690   -1.0297571294   -1.5320565791
     24  H         3.9988753741    1.3988155474    0.6950075265
     25  H         3.3046973405   -0.5985812419    1.7782260306
     26  H         4.0490145139    0.9998532072   -2.1592752009
     27  H         6.3628613907    0.0258582051   -1.6377745196
     28  H         6.0679175681    1.0857077916   -0.2232581913
     29  H         6.2648090448   -1.8694815839   -0.1879606380
     30  H         5.7376749853   -0.8611195047    1.1935076980
     31  H         3.8726741306   -2.5930527494   -0.0764586458
     32  O        -0.7890898745    0.5729625682    0.7662302213
     33  C        -1.4218060706   -3.6043485551    1.3914314092
     34  C        -3.4658313516   -0.9063199260   -1.2883077520
     35  C        -4.8604084588   -0.4941247143   -1.8939272190
     36  C        -4.8090056918    1.0695371129   -1.7142529866
     37  C        -3.3423988186    1.2752746292   -1.1650872052
     38  O        -2.5703254183    0.1678136978   -1.7845396255
     39  H        -4.5627629197   -0.8761033134    0.6312363447
     40  H        -4.0205674806    1.4245616687    0.9950508617
     41  H        -1.8867382310   -3.7738022424    2.3826136212
     42  H        -3.0831370974   -1.9032331671   -1.5782001593
     43  H        -4.9137671039   -0.7744705791   -2.9581935439
     44  H        -5.7045445923   -0.9600953811   -1.3611652828
     45  H        -4.9410258515    1.5945339196   -2.6735991410
     46  H        -5.5650472273    1.4389361527   -1.0027370901
     47  H        -2.8820482021    2.2520810361   -1.4108072812
     48  H        -0.4312090222   -3.1063341546    1.5134762784
     49  H        -1.3092650190   -4.5672603348    0.8610528755
     50  H        -0.7993603450   -0.5890007076   -1.4634925512
     51  H        -0.4717476077   -2.0794397786   -0.5023824803
     52  H         0.1355905112   -1.9587059832   -2.2029718218
     53  H         0.1689945154    2.9982545212   -0.2358780741
     54  H         0.9032104344    4.2621383472    0.8206433564
     55  H        -0.1321003282    2.1018319084    2.5489963231
     56  H        -0.6527705965    3.8347511593    2.5193740117
   Point Group: c1    Number of degrees of freedom:   162


   Energy is  -1510.288299886


 Attempting to Generate Delocalized Internal Coordinates

162 Hessian modes will be used to form the next step
  Hessian Eigenvalues:
     0.002000    0.002000    0.002000    0.002000    0.002000    0.002754
     0.002811    0.003953    0.004084    0.004098    0.004588    0.004773
     0.004873    0.005148    0.005355    0.006769    0.006825    0.009880
     0.010941    0.011862    0.013441    0.021485    0.021573    0.025607
     0.025626    0.030639    0.030667    0.034985    0.035025    0.038597
     0.038690    0.041814    0.041954    0.044039    0.044053    0.045594
     0.048064    0.048425    0.049045    0.050840    0.050970    0.053822
     0.053968    0.055094    0.055377    0.055663    0.056038    0.056185
     0.056584    0.059462    0.059852    0.060442    0.060988    0.063009
     0.063479    0.064489    0.064553    0.069775    0.070419    0.073321
     0.073458    0.091058    0.091105    0.092805    0.092933    0.096403
     0.097442    0.097817    0.098452    0.102053    0.103844    0.110702
     0.111379    0.112888    0.114923    0.121989    0.122371    0.137218
     0.138984    0.156644    0.157511    0.160000    0.160000    0.160000
     0.160000    0.160000    0.160000    0.164382    0.164867    0.217934
     0.218014    0.220238    0.221116    0.227338    0.229981    0.237968
     0.238210    0.238904    0.240527    0.243511    0.244843    0.248901
     0.249516    0.249520    0.249887    0.250000    0.250000    0.250000
     0.250000    0.250000    0.250000    0.250000    0.250000    0.251661
     0.252400    0.254602    0.255972    0.256835    0.262177    0.265838
     0.289538    0.293077    0.304566    0.307381    0.320313    0.320880
     0.322707    0.324042    0.325066    0.328293    0.328409    0.328426
     0.328656    0.328712    0.329059    0.329412    0.329741    0.330844
     0.331133    0.331283    0.332868    0.333254    0.334613    0.334662
     0.334666    0.334768    0.335049    0.335054    0.335121    0.335259
     0.337358    0.343195    0.344059    0.346434    0.390982    0.402000
     0.411909    0.429666    0.820956    0.832494    0.834355    0.836464

 Minimum Search - Taking Simple RFO Step
 Searching for Lamda that Minimizes Along All modes
 Value Taken    Lamda =  -0.02094990
 Calculated Step too Large.  Step scaled by  0.341311
 Step Taken.  Stepsize is  0.300000

                             Maximum     Tolerance    Cnvgd?
         Gradient           0.018788      0.000300      NO
         Displacement       0.209481      0.001200      NO
         Energy change     *********      0.000001      NO


 New Cartesian Coordinates Obtained by Inverse Iteration

 Displacement from previous Coordinates is:  6.238211
 Adding empirical dispersion correction 
 ----------------------------------------------------------------
 Doing -D3(op) with
 s6 =   1.00000
 s8 =   0.78311
 a1 =   0.30000
 a2 =   4.25000
 n  =  10.00000
 -D3 energy without 3body term =     -0.0732814702 hartrees
 ----------------------------------------------------------------
             Standard Nuclear Orientation (Angstroms)
    I     Atom           X                Y                Z
 ----------------------------------------------------------------
    1      O      -2.5345406872    -1.1210315165     2.6812613168
    2      C      -2.8087464232    -1.5127458385     1.5263469811
    3      C      -3.6011569883    -0.6967575556     0.4379294750
    4      C      -3.2420121849     0.8417590768     0.4004483553
    5      C      -1.8264661514     1.1807114896     0.9819558080
    6      O      -1.8276699490     2.5481635906     1.4189925618
    7      C      -0.4977681233     2.8656342027     1.9912755535
    8      C       0.5962958826     3.1879699692     0.8962960153
    9      O       1.7709642437     2.3037722241     1.0603092210
   10      C       2.1700476586     1.7933190280    -0.2296455733
   11      C       3.3753283065     0.8279559166     0.0112792853
   12      C       2.9829910708    -0.6545058213     0.4189434809
   13      C       1.5444353332    -1.1123974121    -0.0316578463
   14      O       0.8213967254    -1.9407091279     0.5695270085
   15      O      -2.5319326858    -2.8248986559     1.0337699574
   16      O       1.2882414171    -0.5190825316    -1.2923614161
   17      O       1.6692055551     2.1741659654    -1.3091419182
   18      C       0.0297989638    -0.9738775651    -1.9281170265
   19      C       4.3243441793     0.5705164784    -1.2381726568
   20      C       5.7583475576     0.2623846372    -0.6557380806
   21      C       5.5030369513    -1.1451271265     0.0033865543
   22      C       4.0278994314    -1.4549857788    -0.4796309771
   23      O       3.9152253894    -0.7474637772    -1.7750894992
   24      H       3.9613125971     1.2769225268     0.8341939617
   25      H       3.1038743234    -0.8432002501     1.4995523556
   26      H       4.2721996387     1.3442284771    -2.0283714034
   27      H       6.4957243194     0.1949033407    -1.4718812622
   28      H       6.0976807432     1.0204146447     0.0679877678
   29      H       6.2032428459    -1.9063160730    -0.3753569044
   30      H       5.5752444685    -1.1161260865     1.1026046198
   31      H       3.7911224096    -2.5297953260    -0.6032931936
   32      O      -0.8289397856     0.4331195663     1.0579243332
   33      C      -1.8144260532    -3.6090015387     2.0742531926
   34      C      -3.3929952189    -1.1162654894    -1.0784276760
   35      C      -4.6886729835    -0.6940461430    -1.8689450673
   36      C      -4.5467701719     0.8743875867    -1.8518461414
   37      C      -3.1306328443     1.0553571136    -1.1759327395
   38      O      -2.3804317039    -0.1584202475    -1.5888114034
   39      H      -4.6707234734    -0.8074160710     0.7002814702
   40      H      -4.0081939666     1.4778282533     0.8753380250
   41      H      -2.3887121601    -3.6416433682     3.0210730534
   42      H      -3.0536084631    -2.1600160798    -1.2190202419
   43      H      -4.6558142008    -1.0887482096    -2.8971815062
   44      H      -5.6117928378    -1.0470514906    -1.3823340734
   45      H      -4.5469088991     1.2948567994    -2.8699826355
   46      H      -5.3419893866     1.3647828219    -1.2675145998
   47      H      -2.5816638003     1.9701037068    -1.4730688340
   48      H      -0.8105351506    -3.1560649128     2.2509683060
   49      H      -1.7128163810    -4.6294432316     1.6624848441
   50      H      -0.6623272172    -0.1086575530    -2.0518438794
   51      H      -0.4785366931    -1.7499139298    -1.3274190221
   52      H       0.2931048663    -1.3836185463    -2.9230200723
   53      H       0.2024841023     3.0463296285    -0.1351144289
   54      H       0.9271993160     4.2430247230     1.0031906862
   55      H      -0.1380326594     2.0228168988     2.6209413017
   56      H      -0.6620803093     3.7546544991     2.6314061829
 ----------------------------------------------------------------
 Molecular Point Group                 C1    NOp =  1
 Largest Abelian Subgroup              C1    NOp =  1
 Nuclear Repulsion Energy =  3340.2930698292 hartrees
 There are      113 alpha and      113 beta electrons
 Applying Cartesian multipole field
    Component          Value
    ---------          -----
     (2,0,0)        1.00000E-12
     (0,2,0)        2.00000E-11
     (0,0,2)       -3.00000E-11
 Nucleus-field energy     =     0.0000000099 hartrees
 Requested basis set is STO-3G
 There are 86 shells and 176 basis functions
 A cutoff of  1.0D-12 yielded   2469 shell pairs
 There are     11973 function pairs
 Smallest overlap matrix eigenvalue = 2.13E-01
 Guess MOs from SCF MO coefficient file
 Reading MOs from coefficient file
 Reading MOs from coefficient file
 A restricted hybrid HF-DFT SCF calculation will be
 performed using Pulay DIIS extrapolation
 Exchange:     0.2000 Hartree-Fock + 0.0800 Slater + 0.7200 B88
 Correlation:  0.1900 VWN1RPA + 0.8100 LYP
 Using SG-1 standard quadrature grid
 Dispersion:   Grimme D3
 SCF converges when DIIS error is below 1.0E-08
 Geometry optimization detected.  Setting ReadMinima to 0
 Setting SaveMinima to 0
 using 48 threads for integral computing
 -------------------------------------------------------
 OpenMP Integral computing Module                
 Release: version 1.0, May 2013, Q-Chem Inc. Pittsburgh 
 -------------------------------------------------------
 -------------------------------------------------------
 OpenMP BLAS3 based DFT computing Module                
 Release: version 1.0, May 2013, Q-Chem Inc. Pittsburgh 
 -------------------------------------------------------
 ---------------------------------------
  Cycle       Energy         DIIS Error
 ---------------------------------------
    1   -1509.8719757023      9.25E-03
    2   -1510.2591327372      1.49E-03
    3   -1510.2471586974      2.33E-03
    4   -1510.2697701108      7.29E-04
    5   -1510.2721236797      1.51E-04
    6   -1510.2722230114      5.10E-05
    7   -1510.2722330777      2.54E-05
    8   -1510.2722355406      1.10E-05
    9   -1510.2722360746      1.29E-06
   10   -1510.2722360804      9.99E-07
   11   -1510.2722360843      4.45E-07
   12   -1510.2722360852      9.15E-08
   13   -1510.2722360853      5.13E-08
   14   -1510.2722360853      2.32E-08
   15   -1510.2722360853      5.58E-09 Convergence criterion met
 ---------------------------------------
 SCF time:  CPU 111.90 s  wall 2.34 s
 SCF   energy in the final basis set = -1510.27223609
 Total energy in the final basis set = -1510.27223609
 
 --------------------------------------------------------------
 
                    Orbital Energies (a.u.)
 --------------------------------------------------------------
 
 Alpha MOs
 -- Occupied --
-18.932 -18.927 -18.923 -18.913 -18.897 -18.880 -18.875 -18.872
-18.864 -18.848 -10.097 -10.094 -10.093 -10.080 -10.068 -10.065
-10.063 -10.061 -10.054 -10.052 -10.052 -10.040 -10.037 -10.029
-10.026 -10.025 -10.024 -10.023 -10.015 -10.014  -1.013  -1.004
 -1.002  -0.987  -0.977  -0.961  -0.936  -0.929  -0.926  -0.913
 -0.766  -0.755  -0.727  -0.717  -0.711  -0.701  -0.690  -0.653
 -0.637  -0.615  -0.592  -0.574  -0.549  -0.541  -0.537  -0.530
 -0.512  -0.501  -0.477  -0.468  -0.461  -0.453  -0.448  -0.439
 -0.435  -0.426  -0.424  -0.408  -0.403  -0.397  -0.395  -0.391
 -0.385  -0.374  -0.369  -0.361  -0.359  -0.354  -0.345  -0.340
 -0.337  -0.336  -0.331  -0.324  -0.323  -0.320  -0.317  -0.314
 -0.304  -0.300  -0.298  -0.296  -0.291  -0.286  -0.275  -0.272
 -0.264  -0.256  -0.245  -0.242  -0.231  -0.226  -0.220  -0.183
 -0.169  -0.164  -0.159  -0.151  -0.150  -0.147  -0.143  -0.133
 -0.132
 -- Virtual --
  0.098   0.106   0.113   0.122   0.224   0.241   0.249   0.255
  0.266   0.275   0.284   0.294   0.307   0.316   0.322   0.331
  0.337   0.341   0.349   0.352   0.359   0.365   0.369   0.371
  0.375   0.378   0.389   0.397   0.403   0.406   0.410   0.412
  0.415   0.420   0.422   0.432   0.434   0.437   0.437   0.439
  0.443   0.444   0.454   0.457   0.458   0.461   0.470   0.476
  0.480   0.485   0.487   0.496   0.501   0.507   0.513   0.535
  0.545   0.550   0.559   0.639   0.655   0.660   0.670
 --------------------------------------------------------------
 
          Ground-State Mulliken Net Atomic Charges

     Atom                 Charge (a.u.)
  ----------------------------------------
      1 O                    -0.216913
      2 C                     0.214720
      3 C                    -0.079047
      4 C                    -0.077523
      5 C                     0.211827
      6 O                    -0.172952
      7 C                    -0.052458
      8 C                    -0.057857
      9 O                    -0.174605
     10 C                     0.216110
     11 C                    -0.078186
     12 C                    -0.075907
     13 C                     0.211918
     14 O                    -0.222557
     15 O                    -0.170203
     16 O                    -0.168274
     17 O                    -0.208155
     18 C                    -0.137808
     19 C                     0.026377
     20 C                    -0.142197
     21 C                    -0.145368
     22 C                     0.024463
     23 O                    -0.185437
     24 H                     0.082917
     25 H                     0.083953
     26 H                     0.087037
     27 H                     0.076589
     28 H                     0.071938
     29 H                     0.076544
     30 H                     0.072997
     31 H                     0.081346
     32 O                    -0.206977
     33 C                    -0.127449
     34 C                     0.024906
     35 C                    -0.142099
     36 C                    -0.144541
     37 C                     0.023823
     38 O                    -0.187279
     39 H                     0.083265
     40 H                     0.088786
     41 H                     0.087252
     42 H                     0.095296
     43 H                     0.079056
     44 H                     0.074863
     45 H                     0.079409
     46 H                     0.075205
     47 H                     0.084100
     48 H                     0.102970
     49 H                     0.088713
     50 H                     0.112515
     51 H                     0.090125
     52 H                     0.076214
     53 H                     0.100112
     54 H                     0.079872
     55 H                     0.101205
     56 H                     0.087372
  ----------------------------------------
  Sum of atomic charges =    -0.000000

 -----------------------------------------------------------------
                    Cartesian Multipole Moments
 -----------------------------------------------------------------
    Charge (ESU x 10^10)
                -0.0000
    Dipole Moment (Debye)
         X      -1.3541      Y       0.6791      Z       0.5768
       Tot       1.6210
    Quadrupole Moments (Debye-Ang)
        XX    -138.2340     XY       1.1360     YY    -151.2160
        XZ       8.9091     YZ       1.2810     ZZ    -165.2007
    Octopole Moments (Debye-Ang^2)
       XXX      -8.4831    XXY      -4.2049    XYY      -1.3614
       YYY      -7.8333    XXZ       2.1867    XYZ       3.6284
       YYZ      21.3956    XZZ      -9.0270    YZZ      -2.7719
       ZZZ       5.0070
    Hexadecapole Moments (Debye-Ang^3)
      XXXX   -8950.1050   XXXY    -157.4104   XXYY   -2048.5581
      XYYY    -132.4427   YYYY   -2759.5605   XXXZ     224.8107
      XXYZ     -35.0897   XYYZ      42.9055   YYYZ       9.7472
      XXZZ   -1929.9772   XYZZ     -40.2454   YYZZ    -749.8904
      XZZZ     251.5347   YZZZ      18.1115   ZZZZ   -1895.6379
 -----------------------------------------------------------------
 Calculating analytic gradient of the SCF energy
 Gradient of SCF Energy
            1           2           3           4           5           6
    1  -0.0003160  -0.0013130   0.0023392  -0.0043158   0.0028230  -0.0019682
    2   0.0003417  -0.0002218  -0.0005066  -0.0006820   0.0017760   0.0026897
    3  -0.0005284   0.0019517  -0.0051679   0.0096640  -0.0066245   0.0007521
            7           8           9          10          11          12
    1  -0.0021583   0.0020380   0.0025689  -0.0049451   0.0011183  -0.0009462
    2  -0.0026778  -0.0030336   0.0044744  -0.0033551  -0.0001084   0.0006890
    3  -0.0021357  -0.0007428   0.0022764   0.0017110  -0.0062450   0.0055783
           13          14          15          16          17          18
    1   0.0002637   0.0018120   0.0004705   0.0007100   0.0013938  -0.0129343
    2   0.0051712  -0.0023691   0.0006947   0.0003107   0.0005625  -0.0028790
    3  -0.0065819   0.0032731  -0.0008144   0.0024089  -0.0001994   0.0037600
           19          20          21          22          23          24
    1   0.0002019  -0.0003357   0.0001823   0.0001173  -0.0004994   0.0004509
    2  -0.0002155  -0.0000686   0.0003869  -0.0006640  -0.0003308   0.0003271
    3  -0.0000227   0.0000088   0.0002401  -0.0003547   0.0002906  -0.0001637
           25          26          27          28          29          30
    1   0.0000300  -0.0001375   0.0000269   0.0000204  -0.0001186  -0.0000200
    2  -0.0000295  -0.0000187   0.0001122  -0.0001215  -0.0000167   0.0000496
    3  -0.0001020   0.0001285   0.0000496  -0.0001708  -0.0000178  -0.0000364
           31          32          33          34          35          36
    1  -0.0000361  -0.0004793  -0.0027990  -0.0019150   0.0005052   0.0003535
    2   0.0000159   0.0010453  -0.0064359   0.0005588  -0.0001033  -0.0005032
    3  -0.0000977   0.0027482   0.0052742  -0.0003608   0.0000280  -0.0001514
           37          38          39          40          41          42
    1   0.0018230   0.0227021   0.0000887  -0.0000149  -0.0009075  -0.0001625
    2   0.0014520  -0.0093111  -0.0001725  -0.0005359  -0.0004814   0.0001710
    3   0.0003683  -0.0040134  -0.0001655   0.0004773  -0.0012773   0.0002659
           43          44          45          46          47          48
    1  -0.0000375   0.0000154  -0.0000132   0.0001526  -0.0000127   0.0032227
    2  -0.0001191  -0.0000539   0.0000942   0.0000869   0.0000252   0.0043609
    3   0.0000436   0.0000830  -0.0000169   0.0000763   0.0000166  -0.0010517
           49          50          51          52          53          54
    1  -0.0014452  -0.0065374  -0.0018039  -0.0000667   0.0010938  -0.0001522
    2   0.0000721   0.0095590   0.0003824   0.0011666  -0.0013751  -0.0000711
    3  -0.0001581  -0.0026743  -0.0032794   0.0002483  -0.0001660   0.0007525
           55          56
    1  -0.0007022   0.0005696
    2  -0.0000832  -0.0000314
    3   0.0008089   0.0000366
 Max gradient component =       2.270E-02
 RMS gradient           =       3.081E-03
 Gradient time:  CPU 33.17 s  wall 0.71 s
 Geometry Optimization Parameters
   NAtoms,    NIC,     NZ,  NCons,   NDum,   NFix, NCnnct, MaxDiis
       56     458       0       0       0       0       0       0

 Cartesian Hessian Update
 Hessian Updated using BFGS Update


** GEOMETRY OPTIMIZATION IN DELOCALIZED INTERNAL COORDINATES **
   Searching for a Minimum

   Optimization Cycle:   2

                       Coordinates (Angstroms)
     ATOM                X               Y               Z
      1  O        -2.5345406872   -1.1210315165    2.6812613168
      2  C        -2.8087464232   -1.5127458385    1.5263469811
      3  C        -3.6011569883   -0.6967575556    0.4379294750
      4  C        -3.2420121849    0.8417590768    0.4004483553
      5  C        -1.8264661514    1.1807114896    0.9819558080
      6  O        -1.8276699490    2.5481635906    1.4189925618
      7  C        -0.4977681233    2.8656342027    1.9912755535
      8  C         0.5962958826    3.1879699692    0.8962960153
      9  O         1.7709642437    2.3037722241    1.0603092210
     10  C         2.1700476586    1.7933190280   -0.2296455733
     11  C         3.3753283065    0.8279559166    0.0112792853
     12  C         2.9829910708   -0.6545058213    0.4189434809
     13  C         1.5444353332   -1.1123974121   -0.0316578463
     14  O         0.8213967254   -1.9407091279    0.5695270085
     15  O        -2.5319326858   -2.8248986559    1.0337699574
     16  O         1.2882414171   -0.5190825316   -1.2923614161
     17  O         1.6692055551    2.1741659654   -1.3091419182
     18  C         0.0297989638   -0.9738775651   -1.9281170265
     19  C         4.3243441793    0.5705164784   -1.2381726568
     20  C         5.7583475576    0.2623846372   -0.6557380806
     21  C         5.5030369513   -1.1451271265    0.0033865543
     22  C         4.0278994314   -1.4549857788   -0.4796309771
     23  O         3.9152253894   -0.7474637772   -1.7750894992
     24  H         3.9613125971    1.2769225268    0.8341939617
     25  H         3.1038743234   -0.8432002501    1.4995523556
     26  H         4.2721996387    1.3442284771   -2.0283714034
     27  H         6.4957243194    0.1949033407   -1.4718812622
     28  H         6.0976807432    1.0204146447    0.0679877678
     29  H         6.2032428459   -1.9063160730   -0.3753569044
     30  H         5.5752444685   -1.1161260865    1.1026046198
     31  H         3.7911224096   -2.5297953260   -0.6032931936
     32  O        -0.8289397856    0.4331195663    1.0579243332
     33  C        -1.8144260532   -3.6090015387    2.0742531926
     34  C        -3.3929952189   -1.1162654894   -1.0784276760
     35  C        -4.6886729835   -0.6940461430   -1.8689450673
     36  C        -4.5467701719    0.8743875867   -1.8518461414
     37  C        -3.1306328443    1.0553571136   -1.1759327395
     38  O        -2.3804317039   -0.1584202475   -1.5888114034
     39  H        -4.6707234734   -0.8074160710    0.7002814702
     40  H        -4.0081939666    1.4778282533    0.8753380250
     41  H        -2.3887121601   -3.6416433682    3.0210730534
     42  H        -3.0536084631   -2.1600160798   -1.2190202419
     43  H        -4.6558142008   -1.0887482096   -2.8971815062
     44  H        -5.6117928378   -1.0470514906   -1.3823340734
     45  H        -4.5469088991    1.2948567994   -2.8699826355
     46  H        -5.3419893866    1.3647828219   -1.2675145998
     47  H        -2.5816638003    1.9701037068   -1.4730688340
     48  H        -0.8105351506   -3.1560649128    2.2509683060
     49  H        -1.7128163810   -4.6294432316    1.6624848441
     50  H        -0.6623272172   -0.1086575530   -2.0518438794
     51  H        -0.4785366931   -1.7499139298   -1.3274190221
     52  H         0.2931048663   -1.3836185463   -2.9230200723
     53  H         0.2024841023    3.0463296285   -0.1351144289
     54  H         0.9271993160    4.2430247230    1.0031906862
     55  H        -0.1380326594    2.0228168988    2.6209413017
     56  H        -0.6620803093    3.7546544991    2.6314061829
   Point Group: c1    Number of degrees of freedom:   162


   Energy is  -1510.272236085

 Hessian Updated using BFGS Update

149 Hessian modes will be used to form the next step
  Hessian Eigenvalues:
     0.001024    0.002461    0.002643    0.002768    0.003032    0.004084
     0.004093    0.004578    0.004667    0.004873    0.005181    0.006125
     0.006775    0.006940    0.010279    0.011853    0.013122    0.021428
     0.021489    0.024873    0.025573    0.029109    0.030644    0.032036
     0.034832    0.035448    0.038049    0.039304    0.041842    0.041887
     0.042713    0.044226    0.046288    0.047796    0.048927    0.050831
     0.050939    0.053822    0.053951    0.055024    0.055363    0.055568
     0.055873    0.056034    0.056473    0.059015    0.059473    0.060284
     0.060969    0.063003    0.063478    0.064489    0.064551    0.069774
     0.070179    0.073288    0.073423    0.086310    0.091077    0.091839
     0.092811    0.093027    0.096388    0.097805    0.098431    0.098472
     0.102134    0.103848    0.110848    0.112886    0.113516    0.115189
     0.121037    0.122857    0.128484    0.138775    0.156714    0.158313
     0.159998    0.160130    0.164546    0.166364    0.217399    0.218106
     0.220230    0.225639    0.227556    0.229973    0.237972    0.238213
     0.238897    0.240527    0.243510    0.244839    0.248901    0.249447
     0.249520    0.249860    0.249979    0.251659    0.252400    0.254599
     0.255950    0.256835    0.262125    0.265719    0.289526    0.293075
     0.304372    0.307336    0.320286    0.320747    0.322706    0.324042
     0.325066    0.328293    0.328409    0.328426    0.328656    0.328712
     0.329059    0.329412    0.329741    0.330843    0.331132    0.331283
     0.332868    0.333254    0.334613    0.334662    0.334666    0.334768
     0.335049    0.335054    0.335121    0.335259    0.337349    0.342652
     0.343800    0.345916    0.390896    0.401890    0.411907    0.429562
     0.820926    0.832492    0.834354    0.836458    4.604569

 Minimum Search - Taking Simple RFO Step
 Searching for Lamda that Minimizes Along All modes
 Value Taken    Lamda =  -0.03477578
 Calculated Step too Large.  Step scaled by  0.526018
 Step Taken.  Stepsize is  0.300000

                             Maximum     Tolerance    Cnvgd?
         Gradient           0.286645      0.000300      NO
         Displacement       0.209283      0.001200      NO
         Energy change      0.016064      0.000001      NO


 New Cartesian Coordinates Obtained by Inverse Iteration

 Displacement from previous Coordinates is:  6.870425
 Adding empirical dispersion correction 
 ----------------------------------------------------------------
 Doing -D3(op) with
 s6 =   1.00000
 s8 =   0.78311
 a1 =   0.30000
 a2 =   4.25000
 n  =  10.00000
 -D3 energy without 3body term =     -0.0675986207 hartrees
 ----------------------------------------------------------------
             Standard Nuclear Orientation (Angstroms)
    I     Atom           X                Y                Z
 ----------------------------------------------------------------
    1      O      -2.8956695167    -0.9709806879     2.9393989065
    2      C      -3.1947593502    -1.4426419640     1.8210690948
    3      C      -3.8826383697    -0.6590756455     0.6417772878
    4      C      -3.3528965841     0.8165966122     0.4558055356
    5      C      -1.9253690080     1.0598241012     1.0585637399
    6      O      -1.8253749369     2.4445688846     1.4224884803
    7      C      -0.4809098773     2.7247800454     1.9826719779
    8      C       0.6189598377     3.0689527461     0.8992006396
    9      O       1.7841617799     2.1657875682     1.0384260472
   10      C       2.2939271467     1.7932380101    -0.2600246602
   11      C       3.4969558337     0.8259772216    -0.0049109756
   12      C       3.1263047796    -0.7129996532     0.1211161088
   13      C       1.7871334388    -1.1451670690    -0.5851333292
   14      O       1.0315916446    -2.0729737374    -0.2129595871
   15      O      -3.0520487984    -2.8182749860     1.4627209709
   16      O       1.6869498042    -0.3970361911    -1.7836952975
   17      O       1.9109987406     2.3138422752    -1.3294389247
   18      C       0.5725195967    -0.8194498491    -2.6620513704
   19      C       4.6044439333     0.7804364367    -1.1466221919
   20      C       5.9680903081     0.4293386871    -0.4334750133
   21      C       5.6995255230    -1.0669193465    -0.0227372313
   22      C       4.3131811467    -1.3420157202    -0.7348411864
   23      O       4.3293540802    -0.4529509487    -1.9178201177
   24      H       3.9600871552     1.1667381692     0.9393669192
   25      H       3.1149310594    -1.0567669181     1.1697486974
   26      H       4.6156055049     1.6616381960    -1.8168458411
   27      H       6.8036871348     0.5046216030    -1.1478781802
   28      H       6.1786395008     1.0807610227     0.4295841537
   29      H       6.4766547006    -1.7432143560    -0.4124800652
   30      H       5.6321393004    -1.2001257565     1.0690944923
   31      H       4.1446267232    -2.3925245071    -1.0424083156
   32      O      -1.0083537039     0.2288658143     1.2268902158
   33      C      -2.4302298644    -3.5658075746     2.5879145817
   34      C      -3.7043320578    -1.2454328607    -0.8233200955
   35      C      -4.9372995258    -0.7649934872    -1.6788473448
   36      C      -4.6237192830     0.7730072686    -1.8119597912
   37      C      -3.2022019510     0.8659304549    -1.1289817376
   38      O      -2.5884050275    -0.4573378019    -1.4052483483
   39      H      -4.9610523100    -0.6269233964     0.8890455227
   40      H      -4.0543475724     1.5690055210     0.8544988193
   41      H      -3.0139341800    -3.4466977978     3.5220267760
   42      H      -3.4799637356    -2.3285556094    -0.8547049874
   43      H      -4.9376695355    -1.2604716311    -2.6630846072
   44      H      -5.8986228092    -0.9657499941    -1.1796941456
   45      H      -4.5681762905     1.0884540291    -2.8659043381
   46      H      -5.3661506842     1.4017724651    -1.2945169359
   47      H      -2.5536755854     1.6825859125    -1.5015791608
   48      H      -1.3868531117    -3.2030612034     2.7404561646
   49      H      -2.4306231932    -4.6267270688     2.2785936847
   50      H      -0.1500667090     0.0200408425    -2.7818425822
   51      H       0.0342182497    -1.6928453005    -2.2508778181
   52      H       1.0087634202    -1.0781015427    -3.6469106306
   53      H       0.2433108649     2.9801535205    -0.1447013036
   54      H       0.9543127859     4.1152368088     1.0632087427
   55      H      -0.1423988563     1.8653117964     2.6014806103
   56      H      -0.6194808227     3.6091125032     2.6353495399
 ----------------------------------------------------------------
 Molecular Point Group                 C1    NOp =  1
 Largest Abelian Subgroup              C1    NOp =  1
 Nuclear Repulsion Energy =  3241.6836929971 hartrees
 There are      113 alpha and      113 beta electrons
 Applying Cartesian multipole field
    Component          Value
    ---------          -----
     (2,0,0)        1.00000E-12
     (0,2,0)        2.00000E-11
     (0,0,2)       -3.00000E-11
 Requested basis set is STO-3G
 There are 86 shells and 176 basis functions
 A cutoff of  1.0D-12 yielded   2353 shell pairs
 There are     11401 function pairs
 Smallest overlap matrix eigenvalue = 2.13E-01
 Guess MOs from SCF MO coefficient file
 Reading MOs from coefficient file
 Reading MOs from coefficient file
 A restricted hybrid HF-DFT SCF calculation will be
 performed using Pulay DIIS extrapolation
 Exchange:     0.2000 Hartree-Fock + 0.0800 Slater + 0.7200 B88
 Correlation:  0.1900 VWN1RPA + 0.8100 LYP
 Using SG-1 standard quadrature grid
 Dispersion:   Grimme D3
 SCF converges when DIIS error is below 1.0E-08
 Geometry optimization detected.  Setting ReadMinima to 0
 Setting SaveMinima to 0
 using 48 threads for integral computing
 -------------------------------------------------------
 OpenMP Integral computing Module                
 Release: version 1.0, May 2013, Q-Chem Inc. Pittsburgh 
 -------------------------------------------------------
 -------------------------------------------------------
 OpenMP BLAS3 based DFT computing Module                
 Release: version 1.0, May 2013, Q-Chem Inc. Pittsburgh 
 -------------------------------------------------------
 ---------------------------------------
  Cycle       Energy         DIIS Error
 ---------------------------------------
    1   -1509.9019090625      8.91E-03
    2   -1510.2615326380      1.37E-03
    3   -1510.2508492935      2.19E-03
    4   -1510.2704533208      6.39E-04
    5   -1510.2722888295      1.29E-04
    6   -1510.2723601170      4.99E-05
    7   -1510.2723707770      2.01E-05
    8   -1510.2723721586      1.04E-05
    9   -1510.2723726462      1.31E-06
   10   -1510.2723726544      7.42E-07
   11   -1510.2723726562      4.96E-07
   12   -1510.2723726573      8.43E-08
   13   -1510.2723726574      3.51E-08
   14   -1510.2723726573      4.86E-09 Convergence criterion met
 ---------------------------------------
 SCF time:  CPU 100.60 s  wall 2.10 s
 SCF   energy in the final basis set = -1510.27237266
 Total energy in the final basis set = -1510.27237266
 
 --------------------------------------------------------------
 
                    Orbital Energies (a.u.)
 --------------------------------------------------------------
 
 Alpha MOs
 -- Occupied --
-18.930 -18.929 -18.924 -18.924 -18.884 -18.883 -18.874 -18.874
-18.865 -18.858 -10.096 -10.095 -10.094 -10.086 -10.068 -10.065
-10.060 -10.058 -10.056 -10.055 -10.054 -10.048 -10.037 -10.034
-10.032 -10.030 -10.021 -10.019 -10.017 -10.016  -1.011  -1.005
 -1.003  -0.996  -0.967  -0.964  -0.935  -0.931  -0.927  -0.922
 -0.761  -0.757  -0.724  -0.719  -0.710  -0.702  -0.692  -0.656
 -0.649  -0.615  -0.593  -0.575  -0.543  -0.539  -0.536  -0.532
 -0.510  -0.505  -0.479  -0.469  -0.460  -0.451  -0.447  -0.436
 -0.433  -0.430  -0.426  -0.408  -0.406  -0.403  -0.397  -0.395
 -0.391  -0.373  -0.369  -0.364  -0.358  -0.355  -0.346  -0.341
 -0.340  -0.334  -0.330  -0.327  -0.325  -0.320  -0.319  -0.310
 -0.303  -0.301  -0.300  -0.297  -0.290  -0.285  -0.277  -0.272
 -0.267  -0.254  -0.246  -0.242  -0.232  -0.230  -0.227  -0.183
 -0.170  -0.165  -0.161  -0.154  -0.151  -0.145  -0.140  -0.140
 -0.135
 -- Virtual --
  0.100   0.102   0.113   0.114   0.221   0.245   0.248   0.254
  0.260   0.273   0.288   0.291   0.308   0.313   0.326   0.330
  0.338   0.344   0.347   0.355   0.360   0.362   0.366   0.372
  0.375   0.377   0.386   0.400   0.403   0.406   0.411   0.414
  0.415   0.420   0.425   0.430   0.432   0.433   0.434   0.436
  0.440   0.441   0.442   0.450   0.452   0.459   0.463   0.468
  0.469   0.475   0.488   0.490   0.494   0.504   0.510   0.539
  0.542   0.554   0.557   0.640   0.652   0.661   0.663
 --------------------------------------------------------------
 
          Ground-State Mulliken Net Atomic Charges

     Atom                 Charge (a.u.)
  ----------------------------------------
      1 O                    -0.217932
      2 C                     0.214069
      3 C                    -0.079175
      4 C                    -0.077380
      5 C                     0.212236
      6 O                    -0.173195
      7 C                    -0.053196
      8 C                    -0.056075
      9 O                    -0.175108
     10 C                     0.213047
     11 C                    -0.078406
     12 C                    -0.075699
     13 C                     0.210369
     14 O                    -0.214408
     15 O                    -0.169034
     16 O                    -0.165009
     17 O                    -0.207835
     18 C                    -0.128647
     19 C                     0.026311
     20 C                    -0.142137
     21 C                    -0.145234
     22 C                     0.024440
     23 O                    -0.185573
     24 H                     0.084461
     25 H                     0.085836
     26 H                     0.086979
     27 H                     0.077018
     28 H                     0.072347
     29 H                     0.077132
     30 H                     0.073615
     31 H                     0.081837
     32 O                    -0.206638
     33 C                    -0.126379
     34 C                     0.023421
     35 C                    -0.142472
     36 C                    -0.144723
     37 C                     0.023573
     38 O                    -0.191259
     39 H                     0.082342
     40 H                     0.087278
     41 H                     0.089114
     42 H                     0.094127
     43 H                     0.077772
     44 H                     0.073024
     45 H                     0.077920
     46 H                     0.073831
     47 H                     0.081785
     48 H                     0.094965
     49 H                     0.090291
     50 H                     0.089613
     51 H                     0.101388
     52 H                     0.086390
     53 H                     0.098398
     54 H                     0.080958
     55 H                     0.102479
     56 H                     0.087149
  ----------------------------------------
  Sum of atomic charges =    -0.000000

 -----------------------------------------------------------------
                    Cartesian Multipole Moments
 -----------------------------------------------------------------
    Charge (ESU x 10^10)
                 0.0000
    Dipole Moment (Debye)
         X      -0.9435      Y       0.5546      Z       0.7316
       Tot       1.3165
    Quadrupole Moments (Debye-Ang)
        XX    -139.4010     XY       0.6446     YY    -152.6249
        XZ       8.9005     YZ       0.8065     ZZ    -162.9587
    Octopole Moments (Debye-Ang^2)
       XXX      -9.8356    XXY      -7.5092    XYY      -3.2348
       YYY      -5.5326    XXZ      14.3294    XYZ      12.5250
       YYZ      28.8159    XZZ     -11.3730    YZZ     -12.2619
       ZZZ       4.7909
    Hexadecapole Moments (Debye-Ang^3)
      XXXX  -10146.8852   XXXY    -326.0254   XXYY   -2215.4669
      XYYY    -283.5471   YYYY   -2662.9046   XXXZ     524.0433
      XXYZ     -25.3197   XYYZ     118.9157   YYYZ      28.7625
      XXZZ   -2228.1729   XYZZ     -90.3854   YYZZ    -764.2912
      XZZZ     541.4316   YZZZ      37.9610   ZZZZ   -2227.1884
 -----------------------------------------------------------------
 Calculating analytic gradient of the SCF energy
 Gradient of SCF Energy
            1           2           3           4           5           6
    1  -0.0005281   0.0000870   0.0022327  -0.0030276   0.0026086  -0.0033536
    2   0.0006953  -0.0012397   0.0000053  -0.0018521   0.0015361  -0.0004981
    3  -0.0007197   0.0023851  -0.0030316   0.0050304  -0.0074108   0.0033460
            7           8           9          10          11          12
    1   0.0004177   0.0001460   0.0026389  -0.0072588   0.0020941  -0.0014362
    2  -0.0016596  -0.0003359   0.0064580  -0.0095657   0.0031685  -0.0011830
    3  -0.0031080   0.0020738   0.0003625  -0.0018094  -0.0027339   0.0032423
           13          14          15          16          17          18
    1  -0.0004243   0.0014416   0.0003947   0.0030620   0.0035692   0.0030370
    2   0.0085535  -0.0048069   0.0013063  -0.0045097   0.0030300  -0.0016329
    3  -0.0094840   0.0043185  -0.0011480   0.0061100   0.0000248  -0.0015207
           19          20          21          22          23          24
    1  -0.0012918   0.0003532   0.0001068  -0.0001926  -0.0006119   0.0012414
    2  -0.0013671  -0.0002902   0.0000606   0.0000372  -0.0006972   0.0012886
    3   0.0008800  -0.0002219   0.0004307  -0.0006142   0.0002035  -0.0005432
           25          26          27          28          29          30
    1   0.0004476  -0.0002050   0.0000062  -0.0002235  -0.0000082   0.0000217
    2   0.0005258  -0.0000083   0.0000084  -0.0000460   0.0000067   0.0000157
    3  -0.0000108  -0.0000293   0.0000915  -0.0000638  -0.0000714   0.0000217
           31          32          33          34          35          36
    1   0.0001033  -0.0011969  -0.0026282  -0.0034381   0.0008138   0.0009189
    2   0.0000538   0.0006905  -0.0054656  -0.0011698  -0.0003895  -0.0006513
    3  -0.0002594   0.0033679   0.0065249   0.0010132  -0.0003055  -0.0007096
           37          38          39          40          41          42
    1   0.0012419  -0.0010335  -0.0001212  -0.0002881  -0.0013824  -0.0001869
    2   0.0047957   0.0003043  -0.0003342  -0.0013419  -0.0005210   0.0001253
    3  -0.0002496  -0.0003101  -0.0003826   0.0007899  -0.0014511   0.0003508
           43          44          45          46          47          48
    1  -0.0000404   0.0003714   0.0000339   0.0001658  -0.0000710   0.0041188
    2   0.0000454  -0.0001074   0.0000482  -0.0000651   0.0000337   0.0042751
    3  -0.0000813   0.0003334  -0.0000486   0.0002570  -0.0001607  -0.0028283
           49          50          51          52          53          54
    1  -0.0015121  -0.0039306  -0.0002076   0.0011539   0.0033923  -0.0009617
    2   0.0003210   0.0025502   0.0018956  -0.0006101  -0.0020410  -0.0003454
    3  -0.0002965  -0.0010472  -0.0033952   0.0007751  -0.0012378   0.0022640
           55          56
    1  -0.0019318   0.0012716
    2   0.0003463   0.0005538
    3   0.0019421  -0.0008551
 Max gradient component =       9.566E-03
 RMS gradient           =       2.419E-03
 Gradient time:  CPU 30.37 s  wall 0.64 s
 Geometry Optimization Parameters
   NAtoms,    NIC,     NZ,  NCons,   NDum,   NFix, NCnnct, MaxDiis
       56     458       0       0       0       0       0       0

 Cartesian Hessian Update
 Hessian Updated using BFGS Update


** GEOMETRY OPTIMIZATION IN DELOCALIZED INTERNAL COORDINATES **
   Searching for a Minimum

   Optimization Cycle:   3

                       Coordinates (Angstroms)
     ATOM                X               Y               Z
      1  O        -2.8956695167   -0.9709806879    2.9393989065
      2  C        -3.1947593502   -1.4426419640    1.8210690948
      3  C        -3.8826383697   -0.6590756455    0.6417772878
      4  C        -3.3528965841    0.8165966122    0.4558055356
      5  C        -1.9253690080    1.0598241012    1.0585637399
      6  O        -1.8253749369    2.4445688846    1.4224884803
      7  C        -0.4809098773    2.7247800454    1.9826719779
      8  C         0.6189598377    3.0689527461    0.8992006396
      9  O         1.7841617799    2.1657875682    1.0384260472
     10  C         2.2939271467    1.7932380101   -0.2600246602
     11  C         3.4969558337    0.8259772216   -0.0049109756
     12  C         3.1263047796   -0.7129996532    0.1211161088
     13  C         1.7871334388   -1.1451670690   -0.5851333292
     14  O         1.0315916446   -2.0729737374   -0.2129595871
     15  O        -3.0520487984   -2.8182749860    1.4627209709
     16  O         1.6869498042   -0.3970361911   -1.7836952975
     17  O         1.9109987406    2.3138422752   -1.3294389247
     18  C         0.5725195967   -0.8194498491   -2.6620513704
     19  C         4.6044439333    0.7804364367   -1.1466221919
     20  C         5.9680903081    0.4293386871   -0.4334750133
     21  C         5.6995255230   -1.0669193465   -0.0227372313
     22  C         4.3131811467   -1.3420157202   -0.7348411864
     23  O         4.3293540802   -0.4529509487   -1.9178201177
     24  H         3.9600871552    1.1667381692    0.9393669192
     25  H         3.1149310594   -1.0567669181    1.1697486974
     26  H         4.6156055049    1.6616381960   -1.8168458411
     27  H         6.8036871348    0.5046216030   -1.1478781802
     28  H         6.1786395008    1.0807610227    0.4295841537
     29  H         6.4766547006   -1.7432143560   -0.4124800652
     30  H         5.6321393004   -1.2001257565    1.0690944923
     31  H         4.1446267232   -2.3925245071   -1.0424083156
     32  O        -1.0083537039    0.2288658143    1.2268902158
     33  C        -2.4302298644   -3.5658075746    2.5879145817
     34  C        -3.7043320578   -1.2454328607   -0.8233200955
     35  C        -4.9372995258   -0.7649934872   -1.6788473448
     36  C        -4.6237192830    0.7730072686   -1.8119597912
     37  C        -3.2022019510    0.8659304549   -1.1289817376
     38  O        -2.5884050275   -0.4573378019   -1.4052483483
     39  H        -4.9610523100   -0.6269233964    0.8890455227
     40  H        -4.0543475724    1.5690055210    0.8544988193
     41  H        -3.0139341800   -3.4466977978    3.5220267760
     42  H        -3.4799637356   -2.3285556094   -0.8547049874
     43  H        -4.9376695355   -1.2604716311   -2.6630846072
     44  H        -5.8986228092   -0.9657499941   -1.1796941456
     45  H        -4.5681762905    1.0884540291   -2.8659043381
     46  H        -5.3661506842    1.4017724651   -1.2945169359
     47  H        -2.5536755854    1.6825859125   -1.5015791608
     48  H        -1.3868531117   -3.2030612034    2.7404561646
     49  H        -2.4306231932   -4.6267270688    2.2785936847
     50  H        -0.1500667090    0.0200408425   -2.7818425822
     51  H         0.0342182497   -1.6928453005   -2.2508778181
     52  H         1.0087634202   -1.0781015427   -3.6469106306
     53  H         0.2433108649    2.9801535205   -0.1447013036
     54  H         0.9543127859    4.1152368088    1.0632087427
     55  H        -0.1423988563    1.8653117964    2.6014806103
     56  H        -0.6194808227    3.6091125032    2.6353495399
   Point Group: c1    Number of degrees of freedom:   162


   Energy is  -1510.272372657

 Hessian Updated using BFGS Update

152 Hessian modes will be used to form the next step
  Hessian Eigenvalues:
     0.001927    0.002013    0.002543    0.002742    0.002841    0.004015
     0.004084    0.004149    0.004576    0.004872    0.004946    0.005337
     0.006299    0.006797    0.006928    0.010271    0.011847    0.013335
     0.021434    0.021491    0.024908    0.025627    0.029918    0.030643
     0.032664    0.034980    0.035536    0.037973    0.039612    0.041838
     0.041981    0.042564    0.044228    0.046381    0.047804    0.048897
     0.050842    0.050952    0.053822    0.053957    0.055031    0.055388
     0.055553    0.055833    0.056051    0.056491    0.058838    0.059556
     0.060288    0.060994    0.063003    0.063479    0.064489    0.064551
     0.069783    0.070160    0.073287    0.073428    0.086460    0.091086
     0.091879    0.092815    0.093029    0.096421    0.097807    0.098433
     0.098492    0.102136    0.103847    0.110940    0.112866    0.113828
     0.115246    0.122237    0.123804    0.133422    0.138778    0.156662
     0.158308    0.159996    0.160018    0.160349    0.164641    0.166350
     0.217265    0.218106    0.220309    0.226516    0.227949    0.229964
     0.237985    0.238209    0.238900    0.240527    0.243508    0.244836
     0.248873    0.249179    0.249522    0.249772    0.249953    0.250572
     0.251681    0.252401    0.254592    0.255948    0.256833    0.262123
     0.265719    0.289540    0.293085    0.304450    0.307400    0.320296
     0.320790    0.322705    0.324042    0.325066    0.328293    0.328408
     0.328426    0.328656    0.328712    0.329059    0.329412    0.329740
     0.330845    0.331130    0.331283    0.332868    0.333254    0.334613
     0.334662    0.334666    0.334768    0.335049    0.335054    0.335121
     0.335259    0.337344    0.342632    0.343872    0.345937    0.390726
     0.401879    0.411906    0.429519    0.820927    0.832490    0.834354
     0.836464    5.035721

 Minimum Search - Taking Simple RFO Step
 Searching for Lamda that Minimizes Along All modes
 Value Taken    Lamda =  -0.02183254
 Calculated Step too Large.  Step scaled by  0.406012
 Step Taken.  Stepsize is  0.300000

                             Maximum     Tolerance    Cnvgd?
         Gradient           0.035480      0.000300      NO
         Displacement       0.228816      0.001200      NO
         Energy change     -0.000137      0.000001      NO


 New Cartesian Coordinates Obtained by Inverse Iteration

 Displacement from previous Coordinates is:  6.634893
 Adding empirical dispersion correction 
 ----------------------------------------------------------------
 Doing -D3(op) with
 s6 =   1.00000
 s8 =   0.78311
 a1 =   0.30000
 a2 =   4.25000
 n  =  10.00000
 -D3 energy without 3body term =     -0.0707423135 hartrees
 ----------------------------------------------------------------
             Standard Nuclear Orientation (Angstroms)
    I     Atom           X                Y                Z
 ----------------------------------------------------------------
    1      O      -2.5491756051    -1.1585205798     2.6312705895
    2      C      -2.9268267261    -1.5174972562     1.4948578482
    3      C      -3.7598526240    -0.6541976539     0.4775934291
    4      C      -3.3219299750     0.8611503229     0.4136852514
    5      C      -1.8698259111     1.1142368112     0.9517447777
    6      O      -1.8064469340     2.4745611821     1.4048439920
    7      C      -0.4590398594     2.7987444917     1.9323939966
    8      C       0.6014034409     3.1533724398     0.8176397900
    9      O       1.7847356399     2.2724127505     0.9649204086
   10      C       2.2441239543     1.7788183117    -0.3091010914
   11      C       3.4742362644     0.8577794936    -0.0059055471
   12      C       3.1486303689    -0.6393755515     0.4146033837
   13      C       1.7454628023    -1.1948762029    -0.0332612952
   14      O       1.0541661787    -2.0317587532     0.5908811063
   15      O      -2.7270784045    -2.8249208826     0.9543856372
   16      O       1.4550615915    -0.6605468491    -1.3129775984
   17      O       1.7499490736     2.1147112274    -1.4064816095
   18      C       0.2223406282    -1.2338711318    -1.8924844071
   19      C       4.4691380907     0.6236272214    -1.2268629421
   20      C       5.9010187133     0.3910203003    -0.6053224913
   21      C       5.6964706194    -1.0177955294     0.0665591374
   22      C       4.2497572650    -1.4027841859    -0.4464458706
   23      O       4.1354552750    -0.7190475244    -1.7547395899
   24      H       4.0164278448     1.3475075085     0.8235187822
   25      H       3.2600860293    -0.7978732444     1.5011652218
   26      H       4.4032776154     1.3831433519    -2.0297706037
   27      H       6.6605456290     0.3471068060    -1.4024931569
   28      H       6.1869587587     1.1739381409     0.1151058728
   29      H       6.4405350490    -1.7501521808    -0.2844762563
   30      H       5.7406287317    -0.9711336529     1.1666787484
   31      H       4.0677278259    -2.4896529998    -0.5566520784
   32      O      -0.9013362217     0.3254328328     0.9617108608
   33      C      -1.9430867973    -3.6495955306     1.9102495851
   34      C      -3.6739863211    -1.0694044360    -1.0539333990
   35      C      -4.9979652959    -0.5742346892    -1.7519202739
   36      C      -4.7729126286     0.9845408039    -1.7375129146
   37      C      -3.3045172708     1.0848638495    -1.1620647859
   38      O      -2.6516907808    -0.1612451142    -1.6298737163
   39      H      -4.8136702170    -0.7154297954     0.8105914762
   40      H      -4.0248831342     1.5302470979     0.9388400713
   41      H      -2.4318363185    -3.6912737359     2.9040377006
   42      H      -3.3983140160    -2.1277632485    -1.2231452392
   43      H      -5.0560571253    -0.9609449722    -2.7821031297
   44      H      -5.9033699143    -0.8828201408    -1.2053063739
   45      H      -4.8212577883     1.4130735788    -2.7510920887
   46      H      -5.4995733222     1.5106871652    -1.0976244929
   47      H      -2.7303594403     1.9727186481    -1.4912080516
   48      H      -0.9160121456    -3.2367176064     2.0170412947
   49      H      -1.9026717669    -4.6626074702     1.4701321344
   50      H      -0.5300343708    -0.4290472480    -2.0322898485
   51      H      -0.2065799535    -2.0113249135    -1.2317742311
   52      H       0.4842672424    -1.6740358291    -2.8748551114
   53      H       0.1946124444     3.0356417564    -0.2114994843
   54      H       0.9222840328     4.2092076823     0.9466961950
   55      H      -0.0738236114     1.9521576523     2.5413084427
   56      H      -0.6113358867     3.6805033931     2.5857235408
 ----------------------------------------------------------------
 Molecular Point Group                 C1    NOp =  1
 Largest Abelian Subgroup              C1    NOp =  1
 Nuclear Repulsion Energy =  3292.8173941733 hartrees
 There are      113 alpha and      113 beta electrons
 Applying Cartesian multipole field
    Component          Value
    ---------          -----
     (2,0,0)        1.00000E-12
     (0,2,0)        2.00000E-11
     (0,0,2)       -3.00000E-11
 Nucleus-field energy     =     0.0000000131 hartrees
 Requested basis set is STO-3G
 There are 86 shells and 176 basis functions
 A cutoff of  1.0D-12 yielded   2416 shell pairs
 There are     11686 function pairs
 Smallest overlap matrix eigenvalue = 2.13E-01
 Guess MOs from SCF MO coefficient file
 Reading MOs from coefficient file
 Reading MOs from coefficient file
 A restricted hybrid HF-DFT SCF calculation will be
 performed using Pulay DIIS extrapolation
[...]
      7  C        -0.5597194981    2.6072611702    2.2222926808
      8  C         0.5576804184    3.2006186436    1.2707811847
      9  O         1.7704084371    2.3561194531    1.3382143370
     10  C         2.0273985735    1.7167924117    0.0753838979
     11  C         3.3163771659    0.8517492121    0.2652866722
     12  C         3.0951401583   -0.7168028150    0.4154831674
     13  C         1.6240628257   -1.2534407642    0.2698875033
     14  O         0.9436725187   -1.7426034165    1.2039515760
     15  O        -2.5650827211   -2.6043017833    0.9190312668
     16  O         1.2529972330   -1.2017478586   -1.0959058640
     17  O         1.3563807746    1.9096717174   -0.9605863279
     18  C        -0.0425275701   -1.8792546095   -1.3531017302
     19  C         4.2693765965    0.9009694228   -1.0076398714
     20  C         5.7190563040    0.4804044804   -0.5416598588
     21  C         5.5320741608   -1.0700864609   -0.3463089929
     22  C         4.0181391276   -1.2514785982   -0.7648542897
     23  O         3.8261197125   -0.2441547211   -1.8308312795
     24  H         3.8297128748    1.2398183665    1.1624440505
     25  H         3.4575588565   -1.0542873984    1.4028806348
     26  H         4.2084514485    1.8407401696   -1.5897209641
     27  H         6.4561842008    0.7020947584   -1.3297766339
     28  H         6.0245843042    0.9943375672    0.3834446822
     29  H         6.1889039654   -1.6448244846   -1.0185149914
     30  H         5.7161803231   -1.3947340945    0.6902009603
     31  H         3.7488959695   -2.2599189219   -1.1334258971
     32  O        -0.6493211909    0.6457495370    0.4197694280
     33  C        -1.5575727833   -3.2672348352    1.7879375966
     34  C        -3.7241239888   -1.1256567437   -1.1261854372
     35  C        -4.9626548372   -0.5227844984   -1.8945698884
     36  C        -4.4483895897    0.9320962527   -2.2110154371
     37  C        -2.9993626391    0.8901054258   -1.5885255203
     38  O        -2.5681830011   -0.5080694500   -1.8216395774
     39  H        -4.6752515136   -0.4265236877    0.7699766708
     40  H        -3.8230827577    1.7560312211    0.3161625028
     41  H        -1.8703070174   -3.2528740296    2.8510498280
     42  H        -3.6353685782   -2.2286641714   -1.1355992525
     43  H        -5.1571406045   -1.0910648557   -2.8181771932
     44  H        -5.8753960501   -0.5272654284   -1.2775665674
     45  H        -4.3961295645    1.1147988738   -3.2960546274
     46  H        -5.0728487660    1.7139231373   -1.7500078389
     47  H        -2.2690791419    1.5944582310   -2.0320954727
     48  H        -0.5693670106   -2.7582204114    1.6759815662
     49  H        -1.4995291208   -4.3122537774    1.4329161768
     50  H        -0.8995446780   -1.1602366186   -1.3581674206
     51  H        -0.2308820301   -2.6714767726   -0.6050170867
     52  H         0.0499515768   -2.3337139388   -2.3575947516
     53  H         0.2015245437    3.2315988664    0.2170345222
     54  H         0.8404282714    4.2226791044    1.5970313200
     55  H        -0.1722304012    1.6649720433    2.6687498854
     56  H        -0.8012881505    3.3219851562    3.0332496883
   Point Group: c1    Number of degrees of freedom:   162


   Energy is  -1510.294831163

 Hessian Updated using BFGS Update

161 Hessian modes will be used to form the next step
  Hessian Eigenvalues:
     0.000574    0.001609    0.002799    0.003231    0.003750    0.004303
     0.005729    0.006585    0.007831    0.010042    0.013105    0.014430
     0.019011    0.021685    0.022081    0.023995    0.026676    0.027268
     0.027707    0.031108    0.031460    0.033982    0.035419    0.035764
     0.038438    0.039386    0.041362    0.042025    0.043170    0.044330
     0.044699    0.047675    0.048430    0.050769    0.050860    0.051286
     0.052984    0.053838    0.055023    0.055448    0.055631    0.056408
     0.056626    0.056898    0.058288    0.059573    0.061330    0.062954
     0.063427    0.064030    0.064156    0.065127    0.065326    0.068850
     0.069923    0.071404    0.073439    0.073953    0.082004    0.089749
     0.092744    0.092993    0.095966    0.098752    0.100107    0.102263
     0.102973    0.104658    0.107045    0.107982    0.114602    0.115229
     0.120783    0.126063    0.130697    0.137169    0.139532    0.142751
     0.157209    0.158980    0.160865    0.163737    0.164688    0.165473
     0.170578    0.172772    0.181941    0.188038    0.212044    0.216872
     0.221440    0.228040    0.235500    0.237659    0.238568    0.239733
     0.241030    0.242043    0.242911    0.248140    0.248630    0.250950
     0.252545    0.252847    0.253787    0.257675    0.259756    0.261043
     0.262760    0.268142    0.269295    0.283853    0.285919    0.290818
     0.293248    0.302103    0.305905    0.314373    0.319801    0.321580
     0.323236    0.324500    0.324589    0.326213    0.328139    0.328540
     0.328703    0.328882    0.329119    0.329559    0.329862    0.330582
     0.330936    0.332871    0.333397    0.334619    0.334709    0.334743
     0.334770    0.335067    0.335088    0.335143    0.335272    0.336299
     0.340296    0.365168    0.367438    0.374596    0.388265    0.410029
     0.430773    0.457355    0.529826    0.691622    0.820171    0.832139
     0.837499    0.848470    1.804985    2.425981    7.342567

 Minimum Search - Taking Simple RFO Step
 Searching for Lamda that Minimizes Along All modes
 Value Taken    Lamda =   0.00000000
 Step Taken.  Stepsize is  0.004624

                             Maximum     Tolerance    Cnvgd?
         Gradient           0.000151      0.000300     YES
         Displacement       0.001967      0.001200      NO
         Energy change      0.000000      0.000001     YES

 Final energy is   -1510.29483116278     


 ******************************
 **  OPTIMIZATION CONVERGED  **
 ******************************

                       Coordinates (Angstroms)
     ATOM                X               Y               Z
      1  O        -2.1998238458   -0.7499963506    2.3452255338
      2  C        -2.7280899806   -1.2510364676    1.3266450856
      3  C        -3.6665321824   -0.4853347696    0.3205363832
      4  C        -3.1192389091    0.9703584465   -0.0082286295
      5  C        -1.7207209561    1.2500720654    0.6411849250
      6  O        -1.8486205193    2.3613929108    1.5350392703
      7  C        -0.5597194981    2.6072611702    2.2222926808
      8  C         0.5576804184    3.2006186436    1.2707811847
      9  O         1.7704084371    2.3561194531    1.3382143370
     10  C         2.0273985735    1.7167924117    0.0753838979
     11  C         3.3163771659    0.8517492121    0.2652866722
     12  C         3.0951401583   -0.7168028150    0.4154831674
     13  C         1.6240628257   -1.2534407642    0.2698875033
     14  O         0.9436725187   -1.7426034165    1.2039515760
     15  O        -2.5650827211   -2.6043017833    0.9190312668
     16  O         1.2529972330   -1.2017478586   -1.0959058640
     17  O         1.3563807746    1.9096717174   -0.9605863279
     18  C        -0.0425275701   -1.8792546095   -1.3531017302
     19  C         4.2693765965    0.9009694228   -1.0076398714
     20  C         5.7190563040    0.4804044804   -0.5416598588
     21  C         5.5320741608   -1.0700864609   -0.3463089929
     22  C         4.0181391276   -1.2514785982   -0.7648542897
     23  O         3.8261197125   -0.2441547211   -1.8308312795
     24  H         3.8297128748    1.2398183665    1.1624440505
     25  H         3.4575588565   -1.0542873984    1.4028806348
     26  H         4.2084514485    1.8407401696   -1.5897209641
     27  H         6.4561842008    0.7020947584   -1.3297766339
     28  H         6.0245843042    0.9943375672    0.3834446822
     29  H         6.1889039654   -1.6448244846   -1.0185149914
     30  H         5.7161803231   -1.3947340945    0.6902009603
     31  H         3.7488959695   -2.2599189219   -1.1334258971
     32  O        -0.6493211909    0.6457495370    0.4197694280
     33  C        -1.5575727833   -3.2672348352    1.7879375966
     34  C        -3.7241239888   -1.1256567437   -1.1261854372
     35  C        -4.9626548372   -0.5227844984   -1.8945698884
     36  C        -4.4483895897    0.9320962527   -2.2110154371
     37  C        -2.9993626391    0.8901054258   -1.5885255203
     38  O        -2.5681830011   -0.5080694500   -1.8216395774
     39  H        -4.6752515136   -0.4265236877    0.7699766708
     40  H        -3.8230827577    1.7560312211    0.3161625028
     41  H        -1.8703070174   -3.2528740296    2.8510498280
     42  H        -3.6353685782   -2.2286641714   -1.1355992525
     43  H        -5.1571406045   -1.0910648557   -2.8181771932
     44  H        -5.8753960501   -0.5272654284   -1.2775665674
     45  H        -4.3961295645    1.1147988738   -3.2960546274
     46  H        -5.0728487660    1.7139231373   -1.7500078389
     47  H        -2.2690791419    1.5944582310   -2.0320954727
     48  H        -0.5693670106   -2.7582204114    1.6759815662
     49  H        -1.4995291208   -4.3122537774    1.4329161768
     50  H        -0.8995446780   -1.1602366186   -1.3581674206
     51  H        -0.2308820301   -2.6714767726   -0.6050170867
     52  H         0.0499515768   -2.3337139388   -2.3575947516
     53  H         0.2015245437    3.2315988664    0.2170345222
     54  H         0.8404282714    4.2226791044    1.5970313200
     55  H        -0.1722304012    1.6649720433    2.6687498854
     56  H        -0.8012881505    3.3219851562    3.0332496883

Z-matrix Print:
$molecule
0 1
O 
C  1 1.249851
O  2 1.431911 1 124.223009
C  3 1.481227 2 109.921639 1 -4.385808 0
H  4 1.107627 3 104.894170 2 -168.315923 0
H  4 1.112376 3 110.409257 2 -50.806039 0
C  2 1.567109 1 127.249395 3 178.393038 0
H  7 1.103588 2 108.680027 1 -173.450020 0
C  4 1.583044 3 113.424615 2 70.862966 0
H  9 1.109501 4 110.390620 3 115.670252 0
H  9 1.112739 4 110.714407 3 -5.793238 0
O  9 1.479336 4 109.710933 3 -125.828626 0
C  12 1.438584 9 111.108276 4 114.606690 0
O  13 1.249280 12 124.289610 9 3.709365 0
C  13 1.563915 12 106.646171 9 -179.699765 0
H  15 1.104084 13 106.705931 12 -18.779972 0
C  7 1.586868 2 110.750394 1 -49.838358 0
H  17 1.107331 7 114.618152 2 -36.467320 0
O  17 1.481604 7 103.085069 2 83.299052 0
C  19 1.483668 17 95.297562 7 57.191750 0
H  20 1.106613 19 110.391028 17 -178.792913 0
C  20 1.577285 19 102.963395 17 56.662124 0
H  22 1.101730 20 112.095728 19 -156.063096 0
H  22 1.101734 20 110.478504 19 82.497806 0
C  22 1.575209 20 101.217395 19 -35.663416 0
H  25 1.101554 22 111.503438 20 118.444451 0
H  25 1.101694 22 112.726570 20 -118.905614 0
C  20 1.583140 19 103.393962 17 -56.383701 0
H  28 1.105880 20 111.082817 19 151.237761 0
C  28 1.574556 20 114.136447 19 -86.309880 0
O  30 1.252043 28 125.218377 20 156.716827 0
O  30 1.422690 28 110.351662 20 -23.508911 0
C  32 1.486457 30 109.536031 28 173.582175 0
H  33 1.105203 32 105.635684 30 178.715236 0
H  33 1.108249 32 111.327420 30 59.836129 0
H  33 1.117220 32 109.740000 30 -62.013289 0
C  15 1.590903 13 112.299633 12 -140.799951 0
H  37 1.107113 15 114.454871 13 29.113440 0
O  37 1.478320 15 104.002712 13 -91.397941 0
C  39 1.479148 37 95.008269 15 -55.960518 0
H  40 1.106928 39 110.419292 37 -179.726709 0
C  37 1.579742 15 107.785803 13 159.188275 0
H  42 1.101496 37 112.213622 15 -46.492773 0
H  42 1.101650 37 110.452344 15 -168.010260 0
C  42 1.573895 37 100.944368 15 73.919677 0
H  45 1.101640 42 111.554377 37 118.541119 0
H  45 1.101655 42 112.782524 37 -118.780782 0
C  40 1.590912 39 103.325902 37 57.584350 0
H  48 1.104625 40 111.725494 39 -153.577647 0
C  48 1.572656 40 111.058934 39 87.564435 0
O  50 1.254865 48 124.839872 40 133.841454 0
O  50 1.416246 48 108.778460 40 -40.992414 0
C  52 1.484436 50 112.277557 48 171.340446 0
H  53 1.105769 52 111.004080 50 -26.983522 0
H  53 1.106387 52 105.773152 50 -145.696158 0
H  53 1.118701 52 112.087992 50 95.755953 0
$end

 
 --------------------------------------------------------------
 
                    Orbital Energies (a.u.)
 --------------------------------------------------------------
 
 Alpha MOs
 -- Occupied --
-18.930 -18.928 -18.924 -18.922 -18.901 -18.882 -18.872 -18.868
-18.865 -18.861 -10.095 -10.093 -10.093 -10.090 -10.066 -10.065
-10.062 -10.062 -10.054 -10.053 -10.038 -10.038 -10.036 -10.031
-10.029 -10.025 -10.024 -10.023 -10.016 -10.014  -1.011  -1.004
 -0.999  -0.995  -0.978  -0.963  -0.934  -0.929  -0.926  -0.921
 -0.765  -0.756  -0.725  -0.718  -0.711  -0.703  -0.691  -0.649
 -0.639  -0.615  -0.592  -0.576  -0.547  -0.540  -0.537  -0.532
 -0.509  -0.505  -0.476  -0.466  -0.462  -0.452  -0.450  -0.438
 -0.434  -0.428  -0.426  -0.413  -0.407  -0.396  -0.392  -0.386
 -0.385  -0.373  -0.367  -0.361  -0.357  -0.353  -0.344  -0.342
 -0.336  -0.335  -0.332  -0.326  -0.325  -0.321  -0.318  -0.312
 -0.305  -0.301  -0.298  -0.296  -0.290  -0.282  -0.274  -0.272
 -0.268  -0.255  -0.246  -0.240  -0.237  -0.230  -0.228  -0.178
 -0.168  -0.165  -0.162  -0.151  -0.149  -0.147  -0.142  -0.139
 -0.136
 -- Virtual --
  0.098   0.105   0.111   0.115   0.226   0.238   0.249   0.255
  0.266   0.277   0.285   0.294   0.310   0.316   0.324   0.332
  0.338   0.344   0.346   0.356   0.357   0.366   0.372   0.374
  0.377   0.379   0.388   0.405   0.407   0.408   0.409   0.415
  0.417   0.420   0.422   0.429   0.434   0.436   0.438   0.441
  0.448   0.452   0.456   0.457   0.463   0.466   0.471   0.475
  0.487   0.488   0.491   0.498   0.505   0.507   0.511   0.537
  0.545   0.550   0.558   0.643   0.654   0.658   0.670
 --------------------------------------------------------------
 
          Ground-State Mulliken Net Atomic Charges

     Atom                 Charge (a.u.)
  ----------------------------------------
      1 O                    -0.215167
      2 C                     0.211005
      3 C                    -0.079307
      4 C                    -0.080357
      5 C                     0.212595
      6 O                    -0.171124
      7 C                    -0.050871
      8 C                    -0.056893
      9 O                    -0.175049
     10 C                     0.215388
     11 C                    -0.078289
     12 C                    -0.077258
     13 C                     0.218975
     14 O                    -0.222916
     15 O                    -0.173316
     16 O                    -0.159529
     17 O                    -0.204520
     18 C                    -0.145831
     19 C                     0.026410
     20 C                    -0.143892
     21 C                    -0.144798
     22 C                     0.027436
     23 O                    -0.182275
     24 H                     0.085269
     25 H                     0.082916
     26 H                     0.083923
     27 H                     0.076865
     28 H                     0.072609
     29 H                     0.076775
     30 H                     0.072781
     31 H                     0.083361
     32 O                    -0.214364
     33 C                    -0.145486
     34 C                     0.024236
     35 C                    -0.143344
     36 C                    -0.143496
     37 C                     0.026897
     38 O                    -0.185233
     39 H                     0.084576
     40 H                     0.086616
     41 H                     0.082771
     42 H                     0.095563
     43 H                     0.079290
     44 H                     0.074632
     45 H                     0.079849
     46 H                     0.075256
     47 H                     0.089746
     48 H                     0.119224
     49 H                     0.080439
     50 H                     0.116790
     51 H                     0.080928
     52 H                     0.078664
     53 H                     0.100412
     54 H                     0.082187
     55 H                     0.100877
     56 H                     0.088054
  ----------------------------------------
  Sum of atomic charges =    -0.000000

 -----------------------------------------------------------------
                    Cartesian Multipole Moments
 -----------------------------------------------------------------
    Charge (ESU x 10^10)
                -0.0000
    Dipole Moment (Debye)
         X      -0.9236      Y       0.6819      Z       0.5909
       Tot       1.2912
    Quadrupole Moments (Debye-Ang)
        XX    -137.3069     XY      -0.5491     YY    -149.6658
        XZ       8.0492     YZ       1.7442     ZZ    -166.1135
    Octopole Moments (Debye-Ang^2)
       XXX      -2.5173    XXY      -2.7162    XYY       7.1746
       YYY      -6.5615    XXZ      -1.9487    XYZ       4.6517
       YYZ      11.1558    XZZ     -11.9333    YZZ       1.7743
       ZZZ      13.5142
    Hexadecapole Moments (Debye-Ang^3)
      XXXX   -8905.0152   XXXY    -163.8676   XXYY   -2022.9854
      XYYY    -141.1685   YYYY   -2639.6090   XXXZ      21.7891
      XXYZ     -61.2684   XYYZ     -25.8879   YYYZ     -69.6323
      XXZZ   -1902.0399   XYZZ     -43.9231   YYZZ    -722.0563
      XZZZ      20.6913   YZZZ     -86.8077   ZZZZ   -1846.2095
 -----------------------------------------------------------------
Archival summary:
1\1\vega02.cac.cornell.edu\OPT\ProcedureUnspecified\STO-3G\102026\jj585\TueJan1608:29:222018TueJan1608:29:222018\0\\#,OPT,ProcedureUnspecified,STO-3G,\\0,1\O\C,1,1.24985\O,2,1.43191,1,124.223\C,3,1.48123,2,109.922,1,-4.38581,0\H,4,1.10763,3,104.894,2,-168.316,0\H,4,1.11238,3,110.409,2,-50.806,0\C,2,1.56711,1,127.249,3,178.393,0\H,7,1.10359,2,108.68,1,-173.45,0\C,4,1.58304,3,113.425,2,70.863,0\H,9,1.1095,4,110.391,3,115.67,0\H,9,1.11274,4,110.714,3,-5.79324,0\O,9,1.47934,4,109.711,3,-125.829,0\C,12,1.43858,9,111.108,4,114.607,0\O,13,1.24928,12,124.29,9,3.70936,0\C,13,1.56391,12,106.646,9,-179.7,0\H,15,1.10408,13,106.706,12,-18.78,0\C,7,1.58687,2,110.75,1,-49.8384,0\H,17,1.10733,7,114.618,2,-36.4673,0\O,17,1.4816,7,103.085,2,83.2991,0\C,19,1.48367,17,95.2976,7,57.1917,0\H,20,1.10661,19,110.391,17,-178.793,0\C,20,1.57729,19,102.963,17,56.6621,0\H,22,1.10173,20,112.096,19,-156.063,0\H,22,1.10173,20,110.479,19,82.4978,0\C,22,1.57521,20,101.217,19,-35.6634,0\H,25,1.10155,22,111.503,20,118.444,0\H,25,1.10169,22,112.727,20,-118.906,0\C,20,1.58314,19,103.394,17,-56.3837,0\H,28,1.10588,20,111.083,19,151.238,0\C,28,1.57456,20,114.136,19,-86.3099,0\O,30,1.25204,28,125.218,20,156.717,0\O,30,1.42269,28,110.352,20,-23.5089,0\C,32,1.48646,30,109.536,28,173.582,0\H,33,1.1052,32,105.636,30,178.715,0\H,33,1.10825,32,111.327,30,59.8361,0\H,33,1.11722,32,109.74,30,-62.0133,0\C,15,1.5909,13,112.3,12,-140.8,0\H,37,1.10711,15,114.455,13,29.1134,0\O,37,1.47832,15,104.003,13,-91.3979,0\C,39,1.47915,37,95.0083,15,-55.9605,0\H,40,1.10693,39,110.419,37,-179.727,0\C,37,1.57974,15,107.786,13,159.188,0\H,42,1.1015,37,112.214,15,-46.4928,0\H,42,1.10165,37,110.452,15,-168.01,0\C,42,1.5739,37,100.944,15,73.9197,0\H,45,1.10164,42,111.554,37,118.541,0\H,45,1.10166,42,112.783,37,-118.781,0\C,40,1.59091,39,103.326,37,57.5844,0\H,48,1.10463,40,111.725,39,-153.578,0\C,48,1.57266,40,111.059,39,87.5644,0\O,50,1.25487,48,124.84,40,133.841,0\O,50,1.41625,48,108.778,40,-40.9924,0\C,52,1.48444,50,112.278,48,171.34,0\H,53,1.10577,52,111.004,50,-26.9835,0\H,53,1.10639,52,105.773,50,-145.696,0\H,53,1.1187,52,112.088,50,95.756,0\\\@

 Total job time:  131.30s(wall), 6263.63s(cpu) 
 Tue Jan 16 08:29:22 2018

        *************************************************************
        *                                                           *
        *  Thank you very much for using Q-Chem.  Have a nice day.  *
        *                                                           *
        *************************************************************


0 sent ACK to 0 
now end server 0 ... 
