mFile = /opt/software/qchem/qchem-5.0.1//bin/mpi/machines
Process 0 of 1 is on vega02.cac.cornell.edu - thread support 0
initial socket setup ...start
initial socket setup ...done 
now start server 0 ... 
vega02.cac.cornell.edu 10.84.3
Q-Chem Developer Version! Running on 10.84.3.*
                  Welcome to Q-Chem
     A Quantum Leap Into The Future Of Chemistry


 Q-Chem 5.0, Q-Chem, Inc., Pleasanton, CA (2017)

 Yihan Shao,  Zhengting Gan,  E. Epifanovsky,  A. T. B. Gilbert,  M. Wormit,  
 J. Kussmann,  A. W. Lange,  A. Behn,  Jia Deng,  Xintian Feng,  D. Ghosh,  
 M. Goldey,  P. R. Horn,  L. D. Jacobson,  I. Kaliman,  T. Kus,  A. Landau,  
 Jie Liu,  E. I. Proynov,  R. M. Richard,  R. P. Steele,  E. J. Sundstrom,  
 H. L. Woodcock III,  P. M. Zimmerman,  D. Zuev,  B. Albrecht,  E. Alguire,  
 S. A. Baeppler,  Z. Benda,  Y. A. Bernard,  E. J. Berquist,  K. B. Bravaya,  
 D. Casanova,  Chun-Min Chang,  Yunqing Chen,  A. Chien,  K. D. Closser,  
 M. P. Coons,  S. Dasgupta,  M. Diedenhofen,  Hainam Do,  R. G. Edgar,  
 Po-Tung Fang,  S. Fatehi,  Qingguo Feng,  Qinghui Ge,  A. Ghysels,  
 J. Gomes,  J. Gonthier,  A. Gunina,  M. W. D. Hanson-Heine,  
 P. H. P. Harbach,  A. W. Hauser,  J. E. Herr,  E. G. Hohenstein,  
 Z. C. Holden,  Kerwin Hui,  T.-C. Jagau,  Hyunjun Ji,  B. Kaduk,  
 K. Khistyaev,  Jaehoon Kim,  P. Klunzinger,  K. Koh,  D. Kosenkov,  
 T. Kowalczyk,  C. M. Krauter,  A. Kunitsa,  Ka Un Lao,  A. Laurent,  
 K. V. Lawler,  Joonho Lee,  D. Lefrancois,  S. Lehtola,  D. S. Levine,  
 Yi-Pei Li,  You-Sheng Lin,  Fenglai Liu,  E. Livshits,  A. Luenser,  
 P. Manohar,  E. Mansoor,  S. F. Manzer,  Shan-Ping Mao,  Yuezhi Mao,  
 N. Mardirossian,  A. V. Marenich,  L. A. Martinez-Martinez,  S. A. Maurer,  
 N. J. Mayhall,  S. C. McKenzie,  J.-M. Mewes,  A. F. Morrison,  K. Nanda,  
 T. S. Nguyen-Beck,  R. Olivares-Amaya,  J. A. Parkhill,  T. M. Perrine,  
 F. Plasser,  S. Prager,  A. Prociuk,  D. R. Rehn,  F. Rob,  M. Schneider,  
 N. Sergueev,  S. M. Sharada,  S. Sharma,  D. W. Small,  T. Stauch,  
 T. Stein,  Yu-Chuan Su,  A. J. W. Thom,  T. Tsuchimochi,  L. Vogt,  
 O. Vydrov,  M. A. Watson,  J. Wenzel,  M. de Wergifosse,  T. A. Wesolowski,  
 A. White,  J. Witte,  A. Yamada,  Jun Yang,  K. Yao,  S. Yeganeh,  
 S. R. Yost,  Zhi-Qiang You,  A. Zech,  Igor Ying Zhang,  Xing Zhang,  
 Yan Zhao,  Ying Zhu,  B. R. Brooks,  G. K. L. Chan,  C. J. Cramer,  
 M. S. Gordon,  W. J. Hehre,  A. Klamt,  M. W. Schmidt,  C. D. Sherrill,  
 D. G. Truhlar,  A. Aspuru-Guzik,  R. Baer,  A. T. Bell,  N. A. Besley,  
 Jeng-Da Chai,  A. Dreuw,  B. D. Dunietz,  T. R. Furlani,  Chao-Ping Hsu,  
 Yousung Jung,  Jing Kong,  D. S. Lambrecht,  WanZhen Liang,  C. Ochsenfeld,  
 V. A. Rassolov,  L. V. Slipchenko,  J. E. Subotnik,  T. Van Voorhis,  
 J. M. Herbert,  A. I. Krylov,  P. M. W. Gill,  M. Head-Gordon

 Contributors to earlier versions of Q-Chem not listed above: 
 R. D. Adamson,  B. Austin,  J. Baker,  G. J. O. Beran,  K. Brandhorst,  
 S. T. Brown,  E. F. C. Byrd,  A. K. Chakraborty,  C.-L. Cheng,  
 Siu Hung Chien,  D. M. Chipman,  D. L. Crittenden,  H. Dachsel,  
 R. A. DiStasio Jr.,  R. J. Doerksen,  A. D. Dutoi,  L. Fusti-Molnar,  
 W. A. Goddard III,  A. Golubeva-Zadorozhnaya,  S. R. Gwaltney,  G. Hawkins,  
 A. Heyden,  S. Hirata,  G. Kedziora,  F. J. Keil,  C. Kelley,  Jihan Kim,  
 R. A. King,  R. Z. Khaliullin,  P. P. Korambath,  W. Kurlancheek,  
 A. M. Lee,  M. S. Lee,  S. V. Levchenko,  Ching Yeh Lin,  D. Liotard,  
 R. C. Lochan,  I. Lotan,  P. E. Maslen,  N. Nair,  D. P. O'Neill,  
 D. Neuhauser,  E. Neuscamman,  C. M. Oana,  R. Olson,  B. Peters,  
 R. Peverati,  P. A. Pieniazek,  Y. M. Rhee,  J. Ritchie,  M. A. Rohrdanz,  
 E. Rosta,  N. J. Russ,  H. F. Schaefer III,  N. E. Schultz,  N. Shenvi,  
 A. C. Simmonett,  A. Sodt,  D. Stuck,  K. S. Thanthiriwatte,  V. Vanovschi,  
 Tao Wang,  A. Warshel,  C. F. Williams,  Q. Wu,  X. Xu,  W. Zhang

 Please cite Q-Chem as follows:
 Y. Shao et al., Mol. Phys. 113, 184-215 (2015)
 DOI: 10.1080/00268976.2014.952696

 Q-Chem 5.0.1 for Intel X86 EM64T Linux

 Parts of Q-Chem use Armadillo 5.200.1 (Boston Tea Smuggler).
 http://arma.sourceforge.net/

 Q-Chem begins on Tue Jan 16 08:25:48 2018  

Host: vega02.cac.cornell.edu
0

     Scratch files written to /scratch/jj585/SOT1001/1095c.save//
 Parallel job on  1  processors

Checking the input file for inconsistencies... 	...done.

--------------------------------------------------------------
User input:
--------------------------------------------------------------
$molecule
0  1
O -3.94934 -3.66094 2.70899
C -3.26408 -4.56952 2.26188
C -3.36658 -6.02376 2.66595
C -4.77583 -6.58685 2.91251
C -5.93515 -5.68318 2.5555
O -7.05825 -6.08431 3.22121
C -8.17626 -5.2145 3.01449
C -8.75593 -5.42599 1.61972
O -8.83507 -4.17027 0.92705
C -8.31255 -4.16067 -0.32436
C -8.4334 -2.81654 -1.00212
C -7.36128 -1.79187 -0.60353
C -6.14828 -2.34967 0.11355
O -5.46956 -1.74683 0.93238
O -2.07316 -4.22858 1.69556
O -5.59878 -3.41008 -0.54547
O -7.96282 -5.16762 -0.92961
C -4.262 -3.70648 -0.68709
C -8.22381 -2.84367 -2.53675
C -8.91295 -1.63433 -3.1699
C -8.00744 -0.51479 -2.69771
C -6.90949 -1.32863 -2.00348
O -6.86787 -2.53347 -2.72797
H -9.47445 -2.4619 -0.8257
H -7.75848 -0.95354 0.01007
H -8.58567 -3.77833 -3.01776
H -8.80004 -1.74007 -4.27299
H -9.98979 -1.50826 -2.92629
H -7.60711 0.01342 -3.59135
H -8.47501 0.21331 -1.9999
H -5.95859 -0.75211 -1.96468
O -5.96702 -5.00496 1.54205
C -1.51602 -2.9642 1.72192
C -2.91152 -6.96365 1.52183
C -2.51568 -8.32786 2.08831
C -3.8756 -8.89626 2.42661
C -4.77798 -7.76682 1.92399
O -4.08949 -7.25226 0.81359
H -2.68351 -6.16146 3.5336
H -4.9153 -6.93996 3.95969
H -1.30358 -2.6698 2.77152
H -2.07096 -6.56235 0.91583
H -2.0817 -8.92692 1.25585
H -1.79143 -8.28915 2.93029
H -4.03795 -9.81034 1.81281
H -4.04231 -9.12733 3.50099
H -5.80251 -8.15341 1.72515
H -2.19133 -2.21121 1.27083
H -0.56175 -2.97609 1.15663
H -4.05542 -4.71062 -0.27246
H -3.62147 -2.94125 -0.21927
H -4.01759 -3.73176 -1.7686
H -8.23385 -6.25231 1.08667
H -9.7989 -5.79125 1.74149
H -7.91731 -4.15107 3.22504
H -8.95422 -5.49694 3.75643
$end

$opt
CONSTRAINT
tors           1           2           3           4     +38.887
tors           3           4           5           6    -159.387
tors           4           5           6           7    +175.477
tors           5           6           7           8     +74.678
tors           6           7           8           9    -126.622
tors           7           8           9          10    +130.383
tors           8           9          10          11    +179.655
tors           9          10          11          12     +81.044
tors          11          12          13          14    -150.420
ENDCONSTRAINT
$end

$rem
JOBTYPE                   OPT
METHOD                    B3LYP
DFT_D                     d3_op
BASIS                     STO-3G
GEOM_OPT_MAX_CYCLES       100
GEOM_OPT_TOL_GRADIENT     300
GEOM_OPT_TOL_DISPLACEMENT 1200
GEOM_OPT_TOL_ENERGY       100
SYMMETRY                  False
THRESH                    12
SCF_CONVERGENCE           8
MAX_SUB_FILE_NUM          128
MEM_STATIC                400
MEM_TOTAL                 4000
$end
--------------------------------------------------------------
 Adding empirical dispersion correction 
 ----------------------------------------------------------------
 Doing -D3(op) with
 s6 =   1.00000
 s8 =   0.78311
 a1 =   0.30000
 a2 =   4.25000
 n  =  10.00000
 -D3 energy without 3body term =     -0.0756547621 hartrees
 ----------------------------------------------------------------
             Standard Nuclear Orientation (Angstroms)
    I     Atom           X                Y                Z
 ----------------------------------------------------------------
    1      O      -1.7252017873    -1.4152526104     1.7926568283
    2      C      -2.4291383487    -1.5566057717     0.8029604923
    3      C      -3.4710033680    -0.5709623814     0.3216942653
    4      C      -3.1297639104     0.9238310651     0.4356939547
    5      C      -1.7157899619     1.2629222576     0.8525791997
    6      O      -1.6707166677     2.5345113065     1.3490249470
    7      C      -0.3831095118     2.8937882726     1.8611155914
    8      C       0.5848952552     3.1565340016     0.7121768920
    9      O       1.7690534036     2.3608705087     0.8782391469
   10      C       2.1540701978     1.6535437775    -0.2129057849
   11      C       3.4078390803     0.8451991595     0.0222353747
   12      C       3.1900203967    -0.4913234302     0.7464772401
   13      C       1.7582347650    -0.9842829732     0.8072584884
   14      O       1.2838183573    -1.6757317317     1.6968579260
   15      O      -2.6041535208    -2.8260565070     0.3413184313
   16      O       1.1564900841    -0.9808506088    -0.4169222729
   17      O       1.6711900563     1.7987571418    -1.3301912389
   18      C       0.2793392023    -1.9141204973    -0.9214057698
   19      C       4.1063290342     0.3435023232    -1.2662386494
   20      C       5.5834888974     0.0739406167    -0.9770478427
   21      C       5.4795964896    -1.1658543640    -0.1119488072
   22      C       3.9718235567    -1.4293032433    -0.1956178684
   23      O       3.6126128933    -0.9549803378    -1.4700757495
   24      H       4.1299103790     1.5179560760     0.5386555713
   25      H       3.5937041847    -0.5026334522     1.7828080134
   26      H       4.0119518655     1.0443637689    -2.1240199614
   27      H       6.0551898258    -0.2084256645    -1.9458123554
   28      H       6.1512051085     0.9181545242    -0.5300298960
   29      H       6.0546388026    -1.9836965125    -0.6001320935
   30      H       5.8113865619    -1.0403040717     0.9415418586
   31      H       3.7488424082    -2.5009146005     0.0044322928
   32      O      -0.7340741157     0.6788464230     0.4245974424
   33      C      -2.1754038682    -3.9703544882     0.9866962117
   34      C      -3.6806086476    -0.6699857007    -1.2098877270
   35      C      -5.0452705545    -0.0951680782    -1.5919091931
   36      C      -4.7858384059     1.3841358069    -1.4150962066
   37      C      -3.3046383483     1.3590360138    -1.0304305957
   38      O      -2.7867380590     0.2695391170    -1.7491478112
   39      H      -4.4232022854    -0.8413617331     0.8301860054
   40      H      -3.8335921470     1.4707959023     1.1036608593
   41      H      -2.6922173010    -4.0650520124     1.9651636502
   42      H      -3.5943690071    -1.7026591041    -1.6110948680
   43      H      -5.2060277367    -0.2966328545    -2.6753159717
   44      H      -5.9004683559    -0.5027473609    -1.0109765844
   45      H      -4.9110052952     1.8840887121    -2.4015193163
   46      H      -5.4147659870     1.8909020306    -0.6514758522
   47      H      -2.8366901748     2.3469006341    -1.2397124475
   48      H      -1.0819634120    -3.9547193485     1.1618054218
   49      H      -2.4275850105    -4.8538112428     0.3652187598
   50      H      -0.6747244608    -1.4239140481    -1.1903865065
   51      H       0.1167466022    -2.7457242655    -0.2166292056
   52      H       0.7118110641    -2.3413950576    -1.8490068400
   53      H       0.0722093271     3.0798635396    -0.2731095388
   54      H       0.9017155641     4.2202469422     0.7767438587
   55      H      -0.0036681765     2.1415242067     2.5907681239
   56      H      -0.5077091956     3.8411391827     2.4289802327
 ----------------------------------------------------------------
 Molecular Point Group                 C1    NOp =  1
 Largest Abelian Subgroup              C1    NOp =  1
 Nuclear Repulsion Energy =  3413.9247142622 hartrees
 There are      113 alpha and      113 beta electrons
 Requested basis set is STO-3G
 There are 86 shells and 176 basis functions

 Total QAlloc Memory Limit   4000 MB
 Mega-Array Size       392 MB
 MEM_STATIC part       400 MB
 A cutoff of  1.0D-12 yielded   2484 shell pairs
 There are     12126 function pairs
 
 -------------------------------------------------------
 OpenMP Integral Computing Module                       
 Release: version 1.0, May 2013, Q-Chem Inc. Pittsburgh 
 -------------------------------------------------------
 Integral Job Info:
 Integral job number is                      11
 Integral operator is                         1
 short-range coefficients                     0
 long-range coefficients              100000000
 Omega coefficients                           0
 if combine SR and LR in K                    0
 Integral screening is                        0
 Integral computing path is                   2
 max size of driver memory is            800000
 size of driver memory is                 45569
 size of scratch memory is              1046100
 max col of scratch BK array                289
 max len of scratch array in speh3           22
 max len of scratch index in speh4            8
 max int batch size is                      520
 min int batch size is                       52
 fixed nKL is                                52
 max L of basis functions is                  1
 order of int derivative is                   0
 number of shells is                         86
 number of basis is                         176
 number of cartesian basis is               176
 number of contracted shell pairs          2484
 number of primitive shell pairs          12299
 maxK2 (contraction) of shell pair            9
 max number of K2 of shell pair               1
 max number of CS2 of shell pair            365
 max number of PS2 of shell pair           1314
 mem total for path MDJ                   54570
 -------------------------------------------------------
 Smallest overlap matrix eigenvalue = 1.93E-01

 Scale SEOQF with 1.000000e-02/1.000000e-01/1.000000e-01

 Standard Electronic Orientation quadrupole field applied
 Nucleus-field energy     =     0.0000000278 hartrees
 Guess from superposition of atomic densities
 Warning:  Energy on first SCF cycle will be non-variational
 A restricted hybrid HF-DFT SCF calculation will be
 performed using Pulay DIIS extrapolation
 Exchange:     0.2000 Hartree-Fock + 0.0800 Slater + 0.7200 B88
 Correlation:  0.1900 VWN1RPA + 0.8100 LYP
 Using SG-1 standard quadrature grid
 Dispersion:   Grimme D3
 SCF converges when DIIS error is below 1.0E-08
 using 48 threads for integral computing
 -------------------------------------------------------
 OpenMP Integral computing Module                
 Release: version 1.0, May 2013, Q-Chem Inc. Pittsburgh 
 -------------------------------------------------------
 -------------------------------------------------------
 OpenMP BLAS3 based DFT computing Module                
 Release: version 1.0, May 2013, Q-Chem Inc. Pittsburgh 
 -------------------------------------------------------
 ---------------------------------------
  Cycle       Energy         DIIS Error
 ---------------------------------------
    1   -1509.4845481075      8.30E-02
    2   -1509.5776883975      1.05E-02
    3   -1507.5136826473      2.54E-02
    4   -1510.0753071706      3.56E-03
    5   -1510.1247836093      1.33E-03
    6   -1510.1314287161      5.55E-04
    7   -1510.1326749816      1.41E-04
    8   -1510.1327579893      3.02E-05
    9   -1510.1327617412      1.04E-05
   10   -1510.1327621562      4.08E-06
   11   -1510.1327622327      6.97E-07
   12   -1510.1327622348      1.82E-07
   13   -1510.1327622349      5.30E-08
   14   -1510.1327622349      2.44E-08
   15   -1510.1327622348      1.19E-08
   16   -1510.1327622350      1.83E-09 Convergence criterion met
 ---------------------------------------
 SCF time:  CPU 133.12 s  wall 4.48 s
 SCF   energy in the final basis set = -1510.13276223
 Total energy in the final basis set = -1510.13276223
 
 --------------------------------------------------------------
 
                    Orbital Energies (a.u.)
 --------------------------------------------------------------
 
 Alpha MOs
 -- Occupied --
-18.938 -18.938 -18.919 -18.900 -18.899 -18.891 -18.865 -18.852
-18.847 -18.842 -10.106 -10.105 -10.098 -10.093 -10.081 -10.076
-10.075 -10.069 -10.063 -10.062 -10.057 -10.055 -10.041 -10.035
-10.030 -10.025 -10.016 -10.013 -10.011 -10.009  -1.046  -1.036
 -1.032  -1.025  -1.021  -1.010  -0.952  -0.937  -0.936  -0.926
 -0.781  -0.774  -0.744  -0.738  -0.732  -0.720  -0.709  -0.675
 -0.658  -0.632  -0.602  -0.586  -0.550  -0.547  -0.537  -0.531
 -0.527  -0.513  -0.497  -0.487  -0.479  -0.466  -0.462  -0.451
 -0.445  -0.441  -0.438  -0.423  -0.419  -0.411  -0.407  -0.404
 -0.402  -0.391  -0.389  -0.376  -0.371  -0.366  -0.357  -0.348
 -0.345  -0.341  -0.335  -0.329  -0.324  -0.321  -0.318  -0.311
 -0.308  -0.305  -0.300  -0.296  -0.295  -0.293  -0.280  -0.273
 -0.266  -0.249  -0.238  -0.237  -0.226  -0.216  -0.194  -0.184
 -0.165  -0.161  -0.157  -0.150  -0.145  -0.139  -0.132  -0.130
 -0.124
 -- Virtual --
  0.107   0.114   0.120   0.129   0.243   0.259   0.271   0.275
  0.290   0.310   0.327   0.340   0.343   0.346   0.349   0.364
  0.371   0.377   0.384   0.389   0.397   0.400   0.402   0.404
  0.409   0.412   0.413   0.414   0.415   0.422   0.427   0.433
  0.436   0.437   0.443   0.448   0.449   0.455   0.463   0.469
  0.471   0.478   0.480   0.485   0.492   0.496   0.497   0.500
  0.504   0.507   0.513   0.523   0.535   0.551   0.554   0.561
  0.571   0.579   0.590   0.685   0.701   0.707   0.710
 --------------------------------------------------------------
 
          Ground-State Mulliken Net Atomic Charges

     Atom                 Charge (a.u.)
  ----------------------------------------
      1 O                    -0.223915
      2 C                     0.240160
      3 C                    -0.080188
      4 C                    -0.081963
      5 C                     0.237529
      6 O                    -0.194202
      7 C                    -0.036765
      8 C                    -0.039246
      9 O                    -0.189864
     10 C                     0.240165
     11 C                    -0.081666
     12 C                    -0.078401
     13 C                     0.240467
     14 O                    -0.230989
     15 O                    -0.220244
     16 O                    -0.207732
     17 O                    -0.226670
     18 C                    -0.098101
     19 C                     0.043088
     20 C                    -0.142419
     21 C                    -0.143854
     22 C                     0.040711
     23 O                    -0.206001
     24 H                     0.080716
     25 H                     0.086269
     26 H                     0.088623
     27 H                     0.074109
     28 H                     0.070275
     29 H                     0.074904
     30 H                     0.071607
     31 H                     0.080556
     32 O                    -0.218654
     33 C                    -0.099113
     34 C                     0.038505
     35 C                    -0.143154
     36 C                    -0.143440
     37 C                     0.041308
     38 O                    -0.208714
     39 H                     0.089636
     40 H                     0.084179
     41 H                     0.083272
     42 H                     0.090347
     43 H                     0.074618
     44 H                     0.071029
     45 H                     0.075963
     46 H                     0.072158
     47 H                     0.083422
     48 H                     0.091338
     49 H                     0.091526
     50 H                     0.096792
     51 H                     0.080635
     52 H                     0.083987
     53 H                     0.106465
     54 H                     0.080769
     55 H                     0.099902
     56 H                     0.090266
  ----------------------------------------
  Sum of atomic charges =     0.000000

 -----------------------------------------------------------------
                    Cartesian Multipole Moments
 -----------------------------------------------------------------
    Charge (ESU x 10^10)
                 0.0000
    Dipole Moment (Debye)
         X      -1.2906      Y       0.7940      Z       1.0178
       Tot       1.8254
    Quadrupole Moments (Debye-Ang)
        XX    -136.4820     XY       2.4351     YY    -145.6731
        XZ       2.0513     YZ       4.3464     ZZ    -167.2027
    Octopole Moments (Debye-Ang^2)
       XXX       1.4588    XXY      -5.4828    XYY      -9.4034
       YYY     -13.9046    XXZ       8.5327    XYZ       6.0753
       YYZ      10.7522    XZZ      -8.5804    YZZ       9.3295
       ZZZ       7.4013
    Hexadecapole Moments (Debye-Ang^3)
      XXXX   -9139.7329   XXXY      40.5392   XXYY   -2091.6283
      XYYY      97.2791   YYYY   -2905.4636   XXXZ     -45.7917
      XXYZ     -40.7147   XYYZ     -23.6361   YYYZ       2.4388
      XXZZ   -1806.6494   XYZZ      22.9102   YYZZ    -740.4766
      XZZZ     -16.6255   YZZZ      23.8183   ZZZZ   -1335.0783
 -----------------------------------------------------------------
 Calculating analytic gradient of the SCF energy
 Gradient of SCF Energy
            1           2           3           4           5           6
    1  -0.0462855  -0.0035579   0.0263205   0.0378622   0.0116607   0.0443451
    2  -0.0275759   0.0110709   0.0112496  -0.0161734   0.0108683  -0.0427736
    3  -0.0543093  -0.0429749   0.0104259  -0.0443320   0.0235645  -0.0336209
            7           8           9          10          11          12
    1  -0.0043511  -0.0098615  -0.0076181  -0.0134972  -0.0319535  -0.0157804
    2  -0.0083649  -0.0361161  -0.0054358   0.0100019  -0.0228804  -0.0198321
    3  -0.0302598   0.0196843  -0.0598131   0.0403800  -0.0291691  -0.0406563
           13          14          15          16          17          18
    1   0.0118464   0.0206173   0.0643486  -0.0498824   0.0317043   0.0303339
    2   0.0346229   0.0277870  -0.0028255  -0.0857085  -0.0064454   0.0398211
    3   0.0089540  -0.0657387   0.1081544   0.0502542   0.0485622   0.0055820
           19          20          21          22          23          24
    1  -0.0073374  -0.0429076  -0.0348155  -0.0016772   0.0402079   0.0057924
    2  -0.0681108  -0.0240519   0.0224752   0.0606973   0.0392641   0.0077892
    3   0.0276330   0.0159285  -0.0248228  -0.0387606   0.0663717  -0.0059712
           25          26          27          28          29          30
    1   0.0026517   0.0116892  -0.0000669   0.0056685   0.0056682  -0.0013817
    2  -0.0014635   0.0089065  -0.0078274   0.0051469  -0.0013035   0.0007167
    3   0.0058710   0.0013802  -0.0081830   0.0031035  -0.0118593   0.0089169
           31          32          33          34          35          36
    1   0.0063935  -0.0583958  -0.0253634   0.0292111   0.0430553   0.0318915
    2  -0.0031278   0.0380991   0.0270488   0.0679188   0.0239784  -0.0392355
    3   0.0104531   0.0078846  -0.0403883   0.0031421   0.0184800   0.0059762
           37          38          39          40          41          42
    1  -0.0027732  -0.0661273  -0.0061828  -0.0031806  -0.0031152  -0.0135145
    2  -0.0737680   0.0076584  -0.0044061   0.0056917   0.0054335  -0.0038246
    3  -0.0050670   0.0549629  -0.0016294   0.0044980  -0.0052097  -0.0018744
           43          44          45          46          47          48
    1   0.0040075  -0.0068861  -0.0001897  -0.0030527  -0.0081535  -0.0050832
    2   0.0035638  -0.0025587  -0.0037318   0.0037775   0.0092627   0.0046083
    3  -0.0106905   0.0039550  -0.0121187   0.0070790   0.0036397  -0.0049121
           49          50          51          52          53          54
    1   0.0007452   0.0067567   0.0075111  -0.0014631  -0.0053171  -0.0028144
    2  -0.0027095   0.0011282   0.0056368   0.0010729   0.0116836  -0.0013690
    3   0.0022523  -0.0014848  -0.0047068   0.0039103   0.0001636   0.0005909
           55          56
    1  -0.0042188   0.0065164
    2   0.0020619   0.0025779
    3   0.0063173   0.0004816
 Max gradient component =       1.082E-01
 RMS gradient           =       2.779E-02
 Gradient time:  CPU 34.01 s  wall 0.72 s
 Geometry Optimization Parameters
   NAtoms,    NIC,     NZ,  NCons,   NDum,   NFix, NCnnct, MaxDiis
       56     458       0       9       0       0       0       0


** CONSTRAINED OPTIMIZATION IN DELOCALIZED INTERNAL COORDINATES **
   Searching for a Minimum

   Optimization Cycle:   1

                       Coordinates (Angstroms)
     ATOM                X               Y               Z
      1  O        -1.7252017873   -1.4152526104    1.7926568283
      2  C        -2.4291383487   -1.5566057717    0.8029604923
      3  C        -3.4710033680   -0.5709623814    0.3216942653
      4  C        -3.1297639104    0.9238310651    0.4356939547
      5  C        -1.7157899619    1.2629222576    0.8525791997
      6  O        -1.6707166677    2.5345113065    1.3490249470
      7  C        -0.3831095118    2.8937882726    1.8611155914
      8  C         0.5848952552    3.1565340016    0.7121768920
      9  O         1.7690534036    2.3608705087    0.8782391469
     10  C         2.1540701978    1.6535437775   -0.2129057849
     11  C         3.4078390803    0.8451991595    0.0222353747
     12  C         3.1900203967   -0.4913234302    0.7464772401
     13  C         1.7582347650   -0.9842829732    0.8072584884
     14  O         1.2838183573   -1.6757317317    1.6968579260
     15  O        -2.6041535208   -2.8260565070    0.3413184313
     16  O         1.1564900841   -0.9808506088   -0.4169222729
     17  O         1.6711900563    1.7987571418   -1.3301912389
     18  C         0.2793392023   -1.9141204973   -0.9214057698
     19  C         4.1063290342    0.3435023232   -1.2662386494
     20  C         5.5834888974    0.0739406167   -0.9770478427
     21  C         5.4795964896   -1.1658543640   -0.1119488072
     22  C         3.9718235567   -1.4293032433   -0.1956178684
     23  O         3.6126128933   -0.9549803378   -1.4700757495
     24  H         4.1299103790    1.5179560760    0.5386555713
     25  H         3.5937041847   -0.5026334522    1.7828080134
     26  H         4.0119518655    1.0443637689   -2.1240199614
     27  H         6.0551898258   -0.2084256645   -1.9458123554
     28  H         6.1512051085    0.9181545242   -0.5300298960
     29  H         6.0546388026   -1.9836965125   -0.6001320935
     30  H         5.8113865619   -1.0403040717    0.9415418586
     31  H         3.7488424082   -2.5009146005    0.0044322928
     32  O        -0.7340741157    0.6788464230    0.4245974424
     33  C        -2.1754038682   -3.9703544882    0.9866962117
     34  C        -3.6806086476   -0.6699857007   -1.2098877270
     35  C        -5.0452705545   -0.0951680782   -1.5919091931
     36  C        -4.7858384059    1.3841358069   -1.4150962066
     37  C        -3.3046383483    1.3590360138   -1.0304305957
     38  O        -2.7867380590    0.2695391170   -1.7491478112
     39  H        -4.4232022854   -0.8413617331    0.8301860054
     40  H        -3.8335921470    1.4707959023    1.1036608593
     41  H        -2.6922173010   -4.0650520124    1.9651636502
     42  H        -3.5943690071   -1.7026591041   -1.6110948680
     43  H        -5.2060277367   -0.2966328545   -2.6753159717
     44  H        -5.9004683559   -0.5027473609   -1.0109765844
     45  H        -4.9110052952    1.8840887121   -2.4015193163
     46  H        -5.4147659870    1.8909020306   -0.6514758522
     47  H        -2.8366901748    2.3469006341   -1.2397124475
     48  H        -1.0819634120   -3.9547193485    1.1618054218
     49  H        -2.4275850105   -4.8538112428    0.3652187598
     50  H        -0.6747244608   -1.4239140481   -1.1903865065
     51  H         0.1167466022   -2.7457242655   -0.2166292056
     52  H         0.7118110641   -2.3413950576   -1.8490068400
     53  H         0.0722093271    3.0798635396   -0.2731095388
     54  H         0.9017155641    4.2202469422    0.7767438587
     55  H        -0.0036681765    2.1415242067    2.5907681239
     56  H        -0.5077091956    3.8411391827    2.4289802327
   Point Group: c1    Number of degrees of freedom:   162


   Energy is  -1510.132762235

              Constraints and their Current Values
                                        Value     Constraint
   Dihedral:        1   2   3   4       38.887       38.887
   Dihedral:        3   4   5   6     -159.387     -159.387
   Dihedral:        4   5   6   7      175.477      175.477
   Dihedral:        5   6   7   8       74.678       74.678
   Dihedral:        6   7   8   9     -126.622     -126.622
   Dihedral:        7   8   9  10      130.383      130.383
   Dihedral:        8   9  10  11      179.655      179.655
   Dihedral:        9  10  11  12       81.044       81.044
   Dihedral:       11  12  13  14     -150.420     -150.420

 Attempting to Generate Delocalized Internal Coordinates

   Using Lagrange Multiplier Algorithm


167 Hessian modes will be used to form the next step
  Hessian Eigenvalues:
    -0.977753   -0.977753   -0.977753   -0.977753   -0.977753   -0.977753
    -0.977753    0.045000    0.045000    0.045000    0.045000    0.045484
     0.045558    0.045595    0.046919    0.047028    0.047156    0.048892
     0.048905    0.054019    0.059992    0.060091    0.062694    0.063079
     0.067055    0.067116    0.067121    0.067371    0.068793    0.071469
     0.071807    0.073293    0.073718    0.075719    0.076170    0.076677
     0.076754    0.082556    0.082572    0.084112    0.084391    0.084509
     0.084696    0.084910    0.085936    0.086537    0.086538    0.087086
     0.087153    0.088707    0.088759    0.088951    0.089169    0.089733
     0.089873    0.093872    0.094007    0.096641    0.096642    0.111521
     0.111547    0.112984    0.113745    0.115782    0.116636    0.116805
     0.117231    0.118147    0.118468    0.118777    0.123038    0.125167
     0.130565    0.130633    0.131261    0.138711    0.139727    0.160000
     0.160000    0.160000    0.160000    0.160000    0.160000    0.171327
     0.171527    0.172277    0.172478    0.219307    0.219874    0.231808
     0.237488    0.239547    0.241982    0.242649    0.246024    0.250000
     0.250000    0.250000    0.250000    0.250000    0.250000    0.250000
     0.250000    0.258346    0.258929    0.266760    0.267419    0.278415
     0.280486    0.280774    0.282202    0.294732    0.296174    0.298745
     0.308050    0.310698    0.310860    0.313322    0.321208    0.321923
     0.321928    0.321950    0.322173    0.322495    0.322900    0.322900
     0.323035    0.323163    0.323271    0.323644    0.324135    0.324195
     0.324295    0.324396    0.324400    0.324638    0.324705    0.324708
     0.325352    0.326848    0.326985    0.328679    0.330441    0.334466
     0.370417    0.371430    0.385929    0.387123    0.401007    0.407717
     0.487494    0.497384    0.517909    0.521304    0.525303    0.537331
     0.928587    0.941950    0.942746    0.954416    1.022753    1.022753
     1.022753    1.022753    1.022753    1.022753    1.022753

 Minimum Search - Taking P-RFO Step
 Searching for Lamda that Maximizes Along the Constraint modes Only
 Value Taken    Lamda =   0.00247082
 Searching for Lamda that Minimizes Along All other modes
 Value Taken    Lamda =  -0.17328456
 Calculated Step too Large.  Step scaled by  0.514406
 Step Taken.  Stepsize is  0.300000

                             Maximum     Tolerance    Cnvgd?
         Gradient            0.111857       0.000300      NO
         Displacement        0.100229       0.001200      NO
         Energy change     *********       0.000001      NO


 New Cartesian Coordinates Obtained by Inverse Iteration

 Displacement from previous Coordinates is:  1.639371
 Adding empirical dispersion correction 
 ----------------------------------------------------------------
 Doing -D3(op) with
 s6 =   1.00000
 s8 =   0.78311
 a1 =   0.30000
 a2 =   4.25000
 n  =  10.00000
 -D3 energy without 3body term =     -0.0734341055 hartrees
 ----------------------------------------------------------------
             Standard Nuclear Orientation (Angstroms)
    I     Atom           X                Y                Z
 ----------------------------------------------------------------
    1      O      -1.8287450468    -1.4364846436     1.8555611160
    2      C      -2.5407472937    -1.5838590464     0.8502222496
    3      C      -3.5840443838    -0.5811852675     0.3466837703
    4      C      -3.2115013568     0.9253181164     0.4515772285
    5      C      -1.7635917854     1.2440488326     0.8539129656
    6      O      -1.7042573982     2.5412212149     1.3492161370
    7      C      -0.3932202467     2.8992643374     1.8541203185
    8      C       0.6265876734     3.1612741625     0.7141515861
    9      O       1.8249633171     2.3642111507     0.8845127231
   10      C       2.2166075755     1.6652680540    -0.2425424399
   11      C       3.4932188875     0.8562638312     0.0158704587
   12      C       3.2723398320    -0.5023769913     0.7395637353
   13      C       1.8257747471    -1.0117880060     0.7598563470
   14      O       1.3216321837    -1.7203711507     1.6437604068
   15      O      -2.7619997266    -2.8550607933     0.3522981281
   16      O       1.2829896364    -0.9567272424    -0.5096847660
   17      O       1.7233024736     1.8261417869    -1.3687697009
   18      C       0.3987807822    -1.9108335336    -1.0307622562
   19      C       4.2256552908     0.3689901212    -1.2796310061
   20      C       5.7183777731     0.1137422747    -0.9453925716
   21      C       5.6074831243    -1.1531509896    -0.0777552366
   22      C       4.0868130330    -1.4439822388    -0.2064138040
   23      O       3.7423393366    -0.9582688097    -1.5099872139
   24      H       4.1948347025     1.5285774251     0.5538824268
   25      H       3.6539889448    -0.5192777793     1.7803742443
   26      H       4.1313675174     1.0703825281    -2.1344633243
   27      H       6.2215534969    -0.1497526760    -1.8977706202
   28      H       6.2567726993     0.9609430197    -0.4790704102
   29      H       6.2036088959    -1.9604990112    -0.5463840409
   30      H       5.9089877108    -1.0287577483     0.9802901830
   31      H       3.8642588716    -2.5169102944    -0.0248190324
   32      O      -0.7738036031     0.6316177544     0.4372066503
   33      C      -2.3198363044    -3.9950332782     1.0487196282
   34      C      -3.8049790888    -0.6970912823    -1.2012982268
   35      C      -5.1832619142    -0.0927027133    -1.5763577678
   36      C      -4.8916374119     1.4078648895    -1.4109061693
   37      C      -3.3854554035     1.3613818987    -1.0389908336
   38      O      -2.8805012698     0.2375925630    -1.7664150652
   39      H      -4.5352431743    -0.8324449225     0.8601068429
   40      H      -3.8997148125     1.4887963736     1.1152091075
   41      H      -2.8259747388    -4.0726524645     2.0364490086
   42      H      -3.7269346957    -1.7337185671    -1.5889478746
   43      H      -5.3645431981    -0.3034484099    -2.6495435804
   44      H      -6.0333006990    -0.4798658383    -0.9827010887
   45      H      -5.0199717096     1.9075630750    -2.3914218526
   46      H      -5.5005271569     1.9275067962    -0.6463035555
   47      H      -2.8942015124     2.3328070201    -1.2595361279
   48      H      -1.2229860452    -3.9842385022     1.2225470061
   49      H      -2.5772147469    -4.8914856442     0.4490532573
   50      H      -0.5517640508    -1.4234148632    -1.3269447944
   51      H       0.2070576482    -2.7360943234    -0.3188640865
   52      H       0.8510000368    -2.3524776844    -1.9448935498
   53      H       0.1412108702     3.0773780655    -0.2833645305
   54      H       0.9457387717     4.2250393717     0.7855681992
   55      H      -0.0169111385     2.1458290750     2.5830985914
   56      H      -0.5317001778     3.8450002361     2.4196233364
 ----------------------------------------------------------------
 Molecular Point Group                 C1    NOp =  1
 Largest Abelian Subgroup              C1    NOp =  1
 Nuclear Repulsion Energy =  3355.2305903693 hartrees
 There are      113 alpha and      113 beta electrons
 Applying Cartesian multipole field
    Component          Value
    ---------          -----
     (2,0,0)        1.00000E-12
     (0,2,0)        2.00000E-11
     (0,0,2)       -3.00000E-11
 Nucleus-field energy     =     0.0000000282 hartrees
 Requested basis set is STO-3G
 There are 86 shells and 176 basis functions
 A cutoff of  1.0D-12 yielded   2421 shell pairs
 There are     11790 function pairs
 Smallest overlap matrix eigenvalue = 2.02E-01
 Guess MOs from SCF MO coefficient file
 Reading MOs from coefficient file
 Reading MOs from coefficient file
 A restricted hybrid HF-DFT SCF calculation will be
 performed using Pulay DIIS extrapolation
 Exchange:     0.2000 Hartree-Fock + 0.0800 Slater + 0.7200 B88
 Correlation:  0.1900 VWN1RPA + 0.8100 LYP
 Using SG-1 standard quadrature grid
 Dispersion:   Grimme D3
 SCF converges when DIIS error is below 1.0E-08
 Geometry optimization detected.  Setting ReadMinima to 0
 Setting SaveMinima to 0
 using 48 threads for integral computing
 -------------------------------------------------------
 OpenMP Integral computing Module                
 Release: version 1.0, May 2013, Q-Chem Inc. Pittsburgh 
 -------------------------------------------------------
 -------------------------------------------------------
 OpenMP BLAS3 based DFT computing Module                
 Release: version 1.0, May 2013, Q-Chem Inc. Pittsburgh 
 -------------------------------------------------------
 ---------------------------------------
  Cycle       Energy         DIIS Error
 ---------------------------------------
    1   -1510.0272469748      3.19E-03
    2   -1510.1985760074      9.06E-04
    3   -1510.1934048577      1.44E-03
    4   -1510.2019131911      3.21E-04
    5   -1510.2023836224      6.22E-05
    6   -1510.2023993253      2.46E-05
    7   -1510.2024012238      1.31E-05
    8   -1510.2024019762      2.18E-06
    9   -1510.2024019982      8.17E-07
   10   -1510.2024020001      4.78E-07
   11   -1510.2024020012      8.92E-08
   12   -1510.2024020012      2.44E-08
   13   -1510.2024020012      1.91E-08
   14   -1510.2024020013      5.10E-09 Convergence criterion met
 ---------------------------------------
 SCF time:  CPU 119.19 s  wall 5.61 s
 SCF   energy in the final basis set = -1510.20240200
 Total energy in the final basis set = -1510.20240200
 
 --------------------------------------------------------------
 
                    Orbital Energies (a.u.)
 --------------------------------------------------------------
 
 Alpha MOs
 -- Occupied --
-18.935 -18.934 -18.924 -18.904 -18.898 -18.890 -18.865 -18.856
-18.853 -18.845 -10.101 -10.100 -10.095 -10.088 -10.078 -10.072
-10.072 -10.065 -10.061 -10.059 -10.055 -10.053 -10.040 -10.035
-10.030 -10.027 -10.016 -10.014 -10.012 -10.010  -1.030  -1.024
 -1.019  -1.008  -1.005  -0.993  -0.942  -0.932  -0.930  -0.921
 -0.773  -0.766  -0.735  -0.729  -0.724  -0.712  -0.702  -0.669
 -0.654  -0.626  -0.598  -0.583  -0.547  -0.544  -0.536  -0.530
 -0.522  -0.509  -0.490  -0.481  -0.472  -0.460  -0.456  -0.444
 -0.440  -0.435  -0.434  -0.417  -0.415  -0.405  -0.402  -0.398
 -0.397  -0.386  -0.382  -0.372  -0.365  -0.361  -0.353  -0.344
 -0.343  -0.339  -0.336  -0.328  -0.323  -0.321  -0.319  -0.309
 -0.304  -0.303  -0.298  -0.296  -0.292  -0.291  -0.278  -0.271
 -0.263  -0.249  -0.239  -0.236  -0.227  -0.224  -0.201  -0.182
 -0.167  -0.161  -0.155  -0.151  -0.145  -0.140  -0.134  -0.133
 -0.128
 -- Virtual --
  0.103   0.108   0.114   0.121   0.237   0.255   0.265   0.270
  0.282   0.300   0.316   0.326   0.333   0.341   0.343   0.353
  0.365   0.368   0.373   0.378   0.384   0.387   0.391   0.396
  0.396   0.402   0.409   0.410   0.412   0.414   0.417   0.423
  0.425   0.426   0.431   0.438   0.439   0.443   0.447   0.456
  0.462   0.467   0.469   0.475   0.479   0.484   0.487   0.487
  0.489   0.493   0.499   0.501   0.517   0.530   0.531   0.550
  0.559   0.563   0.569   0.660   0.677   0.682   0.686
 --------------------------------------------------------------
 
          Ground-State Mulliken Net Atomic Charges

     Atom                 Charge (a.u.)
  ----------------------------------------
      1 O                    -0.215681
      2 C                     0.227851
      3 C                    -0.078923
      4 C                    -0.080376
      5 C                     0.226260
      6 O                    -0.187820
      7 C                    -0.040913
      8 C                    -0.043445
      9 O                    -0.184725
     10 C                     0.230169
     11 C                    -0.079755
     12 C                    -0.077020
     13 C                     0.228374
     14 O                    -0.224102
     15 O                    -0.206443
     16 O                    -0.196810
     17 O                    -0.218463
     18 C                    -0.104096
     19 C                     0.037761
     20 C                    -0.143367
     21 C                    -0.144659
     22 C                     0.035592
     23 O                    -0.196603
     24 H                     0.081428
     25 H                     0.085534
     26 H                     0.088275
     27 H                     0.074512
     28 H                     0.071101
     29 H                     0.075246
     30 H                     0.072443
     31 H                     0.080554
     32 O                    -0.212041
     33 C                    -0.106908
     34 C                     0.033817
     35 C                    -0.144144
     36 C                    -0.144298
     37 C                     0.036204
     38 O                    -0.200547
     39 H                     0.088559
     40 H                     0.084515
     41 H                     0.083365
     42 H                     0.090399
     43 H                     0.075075
     44 H                     0.071763
     45 H                     0.076270
     46 H                     0.072799
     47 H                     0.083497
     48 H                     0.091968
     49 H                     0.091191
     50 H                     0.096727
     51 H                     0.082316
     52 H                     0.084580
     53 H                     0.105010
     54 H                     0.080067
     55 H                     0.098335
     56 H                     0.089585
  ----------------------------------------
  Sum of atomic charges =    -0.000000

 -----------------------------------------------------------------
                    Cartesian Multipole Moments
 -----------------------------------------------------------------
    Charge (ESU x 10^10)
                -0.0000
    Dipole Moment (Debye)
         X      -1.2418      Y       0.6695      Z       1.0200
       Tot       1.7409
    Quadrupole Moments (Debye-Ang)
        XX    -135.5135     XY       2.5458     YY    -145.5789
        XZ       2.1270     YZ       3.9430     ZZ    -167.1203
    Octopole Moments (Debye-Ang^2)
       XXX       1.5108    XXY      -4.5567    XYY     -10.1427
       YYY     -14.9144    XXZ      10.5120    XYZ       6.2024
       YYZ      11.5168    XZZ      -8.8592    YZZ       8.7668
       ZZZ       9.8179
    Hexadecapole Moments (Debye-Ang^3)
      XXXX   -9626.5353   XXXY      19.1651   XXYY   -2181.3129
      XYYY      81.3196   YYYY   -2933.6528   XXXZ     -20.6381
      XXYZ     -44.7045   XYYZ     -19.7068   YYYZ       4.6859
      XXZZ   -1906.0846   XYZZ      17.5474   YYZZ    -747.3580
      XZZZ       4.8880   YZZZ      28.7688   ZZZZ   -1359.5341
 -----------------------------------------------------------------
 Calculating analytic gradient of the SCF energy
 Gradient of SCF Energy
            1           2           3           4           5           6
    1  -0.0229963  -0.0072432   0.0126719   0.0228297  -0.0012836   0.0276613
    2  -0.0142026   0.0065805   0.0049776  -0.0102641   0.0102291  -0.0265060
    3  -0.0206480  -0.0487002   0.0152625  -0.0268947   0.0260244  -0.0233835
            7           8           9          10          11          12
    1  -0.0055600  -0.0028791  -0.0036047  -0.0074595  -0.0189294  -0.0093002
    2  -0.0034941  -0.0288852   0.0026654   0.0026377  -0.0139200  -0.0157925
    3  -0.0170598   0.0121302  -0.0398750   0.0381647  -0.0185645  -0.0244045
           13          14          15          16          17          18
    1   0.0121461   0.0104563   0.0446485  -0.0378954   0.0177376   0.0259197
    2   0.0392296   0.0091184  -0.0041359  -0.0635107  -0.0027429   0.0314571
    3  -0.0019534  -0.0313050   0.0766267   0.0342274   0.0200977   0.0018630
           19          20          21          22          23          24
    1  -0.0077988  -0.0241752  -0.0185386  -0.0034170   0.0228079   0.0044687
    2  -0.0444597  -0.0110581   0.0104159   0.0365108   0.0242285   0.0060212
    3   0.0130346   0.0095874  -0.0120759  -0.0271431   0.0407689  -0.0059538
           25          26          27          28          29          30
    1   0.0008342   0.0099479  -0.0010030   0.0044223   0.0036819  -0.0014473
    2  -0.0019199   0.0077806  -0.0053938   0.0026836   0.0003944  -0.0005800
    3   0.0035617   0.0025417  -0.0050868   0.0007378  -0.0081933   0.0053856
           31          32          33          34          35          36
    1   0.0054568  -0.0292769  -0.0220183   0.0244243   0.0227857   0.0168445
    2  -0.0018965   0.0211353   0.0197219   0.0416255   0.0109258  -0.0195572
    3   0.0094403  -0.0024588  -0.0319664  -0.0006596   0.0118460   0.0044011
           37          38          39          40          41          42
    1   0.0020794  -0.0399822  -0.0039324  -0.0018672  -0.0022211  -0.0119885
    2  -0.0469844   0.0054016  -0.0042132   0.0038517   0.0023637  -0.0026980
    3  -0.0052211   0.0335318  -0.0025774   0.0022704  -0.0019547  -0.0006586
           43          44          45          46          47          48
    1   0.0035093  -0.0045183  -0.0000762  -0.0012970  -0.0074862  -0.0020514
    2   0.0026084  -0.0017535  -0.0036363   0.0030464   0.0074672   0.0017672
    3  -0.0065647   0.0011125  -0.0076782   0.0037060   0.0038290  -0.0022280
           49          50          51          52          53          54
    1   0.0007058   0.0042614   0.0055817  -0.0015379  -0.0040437  -0.0010563
    2  -0.0028989   0.0007429   0.0018373  -0.0007306   0.0106068  -0.0004891
    3   0.0019310  -0.0025418  -0.0035540   0.0011683   0.0005589  -0.0003935
           55          56
    1  -0.0031822   0.0041839
    2   0.0022073   0.0014838
    3   0.0050036   0.0008855
 Max gradient component =       7.663E-02
 RMS gradient           =       1.828E-02
 Gradient time:  CPU 31.29 s  wall 0.66 s
 Geometry Optimization Parameters
   NAtoms,    NIC,     NZ,  NCons,   NDum,   NFix, NCnnct, MaxDiis
       56     458       0       9       0       0       0       0

 Cartesian Hessian Update
 Hessian Updated using BFGS Update


** CONSTRAINED OPTIMIZATION IN DELOCALIZED INTERNAL COORDINATES **
   Searching for a Minimum

   Optimization Cycle:   2

                       Coordinates (Angstroms)
     ATOM                X               Y               Z
      1  O        -1.8287450468   -1.4364846436    1.8555611160
      2  C        -2.5407472937   -1.5838590464    0.8502222496
      3  C        -3.5840443838   -0.5811852675    0.3466837703
      4  C        -3.2115013568    0.9253181164    0.4515772285
      5  C        -1.7635917854    1.2440488326    0.8539129656
      6  O        -1.7042573982    2.5412212149    1.3492161370
      7  C        -0.3932202467    2.8992643374    1.8541203185
      8  C         0.6265876734    3.1612741625    0.7141515861
      9  O         1.8249633171    2.3642111507    0.8845127231
     10  C         2.2166075755    1.6652680540   -0.2425424399
     11  C         3.4932188875    0.8562638312    0.0158704587
     12  C         3.2723398320   -0.5023769913    0.7395637353
     13  C         1.8257747471   -1.0117880060    0.7598563470
     14  O         1.3216321837   -1.7203711507    1.6437604068
     15  O        -2.7619997266   -2.8550607933    0.3522981281
     16  O         1.2829896364   -0.9567272424   -0.5096847660
     17  O         1.7233024736    1.8261417869   -1.3687697009
     18  C         0.3987807822   -1.9108335336   -1.0307622562
     19  C         4.2256552908    0.3689901212   -1.2796310061
     20  C         5.7183777731    0.1137422747   -0.9453925716
     21  C         5.6074831243   -1.1531509896   -0.0777552366
     22  C         4.0868130330   -1.4439822388   -0.2064138040
     23  O         3.7423393366   -0.9582688097   -1.5099872139
     24  H         4.1948347025    1.5285774251    0.5538824268
     25  H         3.6539889448   -0.5192777793    1.7803742443
     26  H         4.1313675174    1.0703825281   -2.1344633243
     27  H         6.2215534969   -0.1497526760   -1.8977706202
     28  H         6.2567726993    0.9609430197   -0.4790704102
     29  H         6.2036088959   -1.9604990112   -0.5463840409
     30  H         5.9089877108   -1.0287577483    0.9802901830
     31  H         3.8642588716   -2.5169102944   -0.0248190324
     32  O        -0.7738036031    0.6316177544    0.4372066503
     33  C        -2.3198363044   -3.9950332782    1.0487196282
     34  C        -3.8049790888   -0.6970912823   -1.2012982268
     35  C        -5.1832619142   -0.0927027133   -1.5763577678
     36  C        -4.8916374119    1.4078648895   -1.4109061693
     37  C        -3.3854554035    1.3613818987   -1.0389908336
     38  O        -2.8805012698    0.2375925630   -1.7664150652
     39  H        -4.5352431743   -0.8324449225    0.8601068429
     40  H        -3.8997148125    1.4887963736    1.1152091075
     41  H        -2.8259747388   -4.0726524645    2.0364490086
     42  H        -3.7269346957   -1.7337185671   -1.5889478746
     43  H        -5.3645431981   -0.3034484099   -2.6495435804
     44  H        -6.0333006990   -0.4798658383   -0.9827010887
     45  H        -5.0199717096    1.9075630750   -2.3914218526
     46  H        -5.5005271569    1.9275067962   -0.6463035555
     47  H        -2.8942015124    2.3328070201   -1.2595361279
     48  H        -1.2229860452   -3.9842385022    1.2225470061
     49  H        -2.5772147469   -4.8914856442    0.4490532573
     50  H        -0.5517640508   -1.4234148632   -1.3269447944
     51  H         0.2070576482   -2.7360943234   -0.3188640865
     52  H         0.8510000368   -2.3524776844   -1.9448935498
     53  H         0.1412108702    3.0773780655   -0.2833645305
     54  H         0.9457387717    4.2250393717    0.7855681992
     55  H        -0.0169111385    2.1458290750    2.5830985914
     56  H        -0.5317001778    3.8450002361    2.4196233364
   Point Group: c1    Number of degrees of freedom:   162


   Energy is  -1510.202402001

              Constraints and their Current Values
                                        Value     Constraint
   Dihedral:        1   2   3   4       38.887       38.887
   Dihedral:        3   4   5   6     -159.488     -159.387
   Dihedral:        4   5   6   7      175.451      175.477
   Dihedral:        5   6   7   8       74.614       74.678
   Dihedral:        6   7   8   9     -126.667     -126.622
   Dihedral:        7   8   9  10      130.318      130.383
   Dihedral:        8   9  10  11      179.639      179.655
   Dihedral:        9  10  11  12       81.027       81.044
   Dihedral:       11  12  13  14     -150.420     -150.420
 Hessian Updated using BFGS Update

   Using Lagrange Multiplier Algorithm


155 Hessian modes will be used to form the next step
  Hessian Eigenvalues:
    -0.977753   -0.977753   -0.977753   -0.977753   -0.977753   -0.977753
    -0.953463    0.043674    0.045001    0.045471    0.045557    0.045601
     0.046421    0.046960    0.047177    0.048891    0.048993    0.053991
     0.059939    0.060083    0.062702    0.063071    0.066991    0.067099
     0.067171    0.067438    0.068767    0.071430    0.071820    0.073317
     0.073738    0.075606    0.076133    0.076567    0.076827    0.082531
     0.082573    0.084064    0.084364    0.084492    0.084663    0.084766
     0.085925    0.086376    0.086540    0.087054    0.087156    0.088556
     0.088723    0.089008    0.089184    0.089720    0.089883    0.093884
     0.094033    0.096633    0.096642    0.111535    0.111578    0.112828
     0.113749    0.115781    0.116636    0.116779    0.117180    0.118204
     0.118481    0.118813    0.123033    0.125171    0.130065    0.130646
     0.131330    0.138211    0.139818    0.159420    0.160550    0.168841
     0.171360    0.171849    0.172477    0.196337    0.219594    0.228541
     0.231995    0.237637    0.239579    0.242101    0.242959    0.246103
     0.257227    0.258709    0.263512    0.266920    0.267479    0.278941
     0.280651    0.281650    0.287825    0.295220    0.296803    0.303683
     0.308059    0.310507    0.312340    0.321181    0.321310    0.321926
     0.321944    0.322097    0.322482    0.322670    0.322900    0.323003
     0.323138    0.323198    0.323586    0.324042    0.324146    0.324213
     0.324349    0.324399    0.324556    0.324678    0.324707    0.325293
     0.326831    0.326900    0.328541    0.330351    0.333976    0.338883
     0.370483    0.371436    0.386470    0.399616    0.405354    0.461171
     0.486642    0.493960    0.519770    0.522487    0.526241    0.556855
     0.929312    0.942077    0.943427    0.951496    1.022753    1.022753
     1.022753    1.022753    1.022753    1.022753    1.165904

 Minimum Search - Taking P-RFO Step
 Searching for Lamda that Maximizes Along the Constraint modes Only
 Value Taken    Lamda =   0.00253864
 Searching for Lamda that Minimizes Along All other modes
 Value Taken    Lamda =  -0.10723701
 Calculated Step too Large.  Step scaled by  0.469612
 Step Taken.  Stepsize is  0.300000

                             Maximum     Tolerance    Cnvgd?
         Gradient            0.066591       0.000300      NO
         Displacement        0.104930       0.001200      NO
         Energy change     -0.069640       0.000001      NO


 New Cartesian Coordinates Obtained by Inverse Iteration

 Displacement from previous Coordinates is:  4.350143
 Adding empirical dispersion correction 
 ----------------------------------------------------------------
 Doing -D3(op) with
 s6 =   1.00000
 s8 =   0.78311
 a1 =   0.30000
 a2 =   4.25000
 n  =  10.00000
 -D3 energy without 3body term =     -0.0778403870 hartrees
 ----------------------------------------------------------------
             Standard Nuclear Orientation (Angstroms)
    I     Atom           X                Y                Z
 ----------------------------------------------------------------
    1      O      -1.6455219774    -1.3182060882     1.9291588975
    2      C      -2.2925212307    -1.5254679262     0.8797087107
    3      C      -3.3957688451    -0.6075896925     0.2968166983
    4      C      -3.1325233175     0.9301462772     0.4154528346
    5      C      -1.7141326268     1.3205039944     0.9019275008
    6      O      -1.7298306222     2.6332654570     1.4151618287
    7      C      -0.4147254135     2.9461758267     1.9664625162
    8      C       0.6260232294     3.2120126380     0.8318654390
    9      O       1.7957473135     2.3642282314     1.0196090369
   10      C       2.1338578548     1.6932728741    -0.1646212278
   11      C       3.3817299828     0.8054458142     0.0472961269
   12      C       3.0863960788    -0.5805036197     0.7208238670
   13      C       1.5890678907    -0.9903865889     0.7630218446
   14      O       1.0581561263    -1.7089594094     1.6367722960
   15      O      -2.3804953604    -2.8120411740     0.3313967448
   16      O       0.9933110651    -0.7852735347    -0.4840603828
   17      O       1.6128348953     1.9337195444    -1.2727996839
   18      C      -0.0468894041    -1.6640261811    -0.9096250902
   19      C       4.0566179496     0.3402010016    -1.2993542160
   20      C       5.5492779776    -0.0189987150    -0.9977161345
   21      C       5.3742296966    -1.3307803900    -0.1804361920
   22      C       3.8241842465    -1.5347460703    -0.2989301797
   23      O       3.4814114760    -0.9620433528    -1.5897231141
   24      H       4.1294371041     1.4041174386     0.6045457776
   25      H       3.4878242017    -0.6755606650     1.7472731661
   26      H       3.9746653089     1.0811668066    -2.1194638831
   27      H       6.0279319129    -0.2607070029    -1.9643031020
   28      H       6.1355252284     0.7727186535    -0.4997820843
   29      H       5.9148219668    -2.1490127675    -0.6877429244
   30      H       5.6961776497    -1.2710157155     0.8738762422
   31      H       3.5330543522    -2.5973000265    -0.1714659826
   32      O      -0.6621065328     0.7453448765     0.5601549116
   33      C      -1.8160136859    -3.8734177190     1.1091603003
   34      C      -3.5216883845    -0.7493673257    -1.2720739164
   35      C      -4.9311392313    -0.2345459321    -1.7187935885
   36      C      -4.7487123196     1.3002550977    -1.5451317508
   37      C      -3.2485556856     1.3600598221    -1.0990265350
   38      O      -2.6210456593     0.2574435041    -1.8035158894
   39      H      -4.3518527893    -0.9252296719     0.7571450618
   40      H      -3.8888747472     1.4501843192     1.0336256329
   41      H      -2.3456186691    -3.9853400831     2.0812202556
   42      H      -3.3361467257    -1.7769405729    -1.6431263304
   43      H      -5.0521913103    -0.4621018166    -2.7933218641
   44      H      -5.7752676674    -0.6759066310    -1.1614653699
   45      H      -4.8660595655     1.7933698556    -2.5264316229
   46      H      -5.4253336319     1.7740820331    -0.8129467931
   47      H      -2.8001643510     2.3543596074    -1.2993877895
   48      H      -0.7365734760    -3.7166568292     1.3241481338
   49      H      -1.9339213985    -4.8102811703     0.5299848970
   50      H      -0.9732524898    -1.0853969471    -1.1086642396
   51      H      -0.2536076682    -2.4624748753    -0.1673298350
   52      H       0.2680745592    -2.1479759493    -1.8596541486
   53      H       0.1618683240     3.1463098977    -0.1769001236
   54      H       0.9730993668     4.2654952183     0.9270055107
   55      H      -0.0574559916     2.1654405221     2.6753255550
   56      H      -0.5486592370     3.8790043905     2.5523543329
 ----------------------------------------------------------------
 Molecular Point Group                 C1    NOp =  1
 Largest Abelian Subgroup              C1    NOp =  1
 Nuclear Repulsion Energy =  3415.3195758583 hartrees
 There are      113 alpha and      113 beta electrons
 Applying Cartesian multipole field
    Component          Value
    ---------          -----
     (2,0,0)        1.00000E-12
     (0,2,0)        2.00000E-11
     (0,0,2)       -3.00000E-11
 Nucleus-field energy     =     0.0000000244 hartrees
 Requested basis set is STO-3G
 There are 86 shells and 176 basis functions
 A cutoff of  1.0D-12 yielded   2509 shell pairs
 There are     12241 function pairs
 Smallest overlap matrix eigenvalue = 2.07E-01
 Guess MOs from SCF MO coefficient file
 Reading MOs from coefficient file
 Reading MOs from coefficient file
 A restricted hybrid HF-DFT SCF calculation will be
 performed using Pulay DIIS extrapolation
 Exchange:     0.2000 Hartree-Fock + 0.0800 Slater + 0.7200 B88
 Correlation:  0.1900 VWN1RPA + 0.8100 LYP
 Using SG-1 standard quadrature grid
 Dispersion:   Grimme D3
 SCF converges when DIIS error is below 1.0E-08
 Geometry optimization detected.  Setting ReadMinima to 0
 Setting SaveMinima to 0
 using 48 threads for integral computing
 -------------------------------------------------------
 OpenMP Integral computing Module                
 Release: version 1.0, May 2013, Q-Chem Inc. Pittsburgh 
 -------------------------------------------------------
 -------------------------------------------------------
 OpenMP BLAS3 based DFT computing Module                
 Release: version 1.0, May 2013, Q-Chem Inc. Pittsburgh 
 -------------------------------------------------------
 ---------------------------------------
  Cycle       Energy         DIIS Error
 ---------------------------------------
    1   -1510.0214203613      5.58E-03
    2   -1510.2265169458      1.10E-03
    3   -1510.2178828973      1.85E-03
    4   -1510.2316849056      5.04E-04
    5   -1510.2327812550      1.11E-04
    6   -1510.2328300001      4.30E-05
    7   -1510.2328348405      2.88E-05
    8   -1510.2328386465      4.37E-06
    9   -1510.2328387540      9.70E-07
   10   -1510.2328387562      1.00E-06
   11   -1510.2328387607      2.39E-07
   12   -1510.2328387610      8.01E-08
   13   -1510.2328387610      2.18E-08
   14   -1510.2328387611      1.04E-08
   15   -1510.2328387609      3.55E-09 Convergence criterion met
 ---------------------------------------
 SCF time:  CPU 117.40 s  wall 4.10 s
 SCF   energy in the final basis set = -1510.23283876
 Total energy in the final basis set = -1510.23283876
 
 --------------------------------------------------------------
 
                    Orbital Energies (a.u.)
 --------------------------------------------------------------
 
 Alpha MOs
 -- Occupied --
-18.935 -18.931 -18.925 -18.905 -18.902 -18.887 -18.867 -18.861
-18.855 -18.843 -10.097 -10.097 -10.091 -10.082 -10.073 -10.066
-10.066 -10.066 -10.061 -10.056 -10.052 -10.041 -10.038 -10.037
-10.029 -10.027 -10.019 -10.017 -10.012 -10.010  -1.024  -1.017
 -1.011  -0.997  -0.995  -0.979  -0.939  -0.928  -0.926  -0.913
 -0.770  -0.760  -0.730  -0.724  -0.718  -0.706  -0.696  -0.665
 -0.645  -0.620  -0.595  -0.579  -0.547  -0.541  -0.538  -0.529
 -0.519  -0.505  -0.484  -0.478  -0.467  -0.456  -0.455  -0.441
 -0.436  -0.433  -0.429  -0.418  -0.413  -0.400  -0.397  -0.392
 -0.390  -0.381  -0.376  -0.364  -0.361  -0.356  -0.347  -0.342
 -0.340  -0.337  -0.334  -0.325  -0.322  -0.320  -0.318  -0.310
 -0.302  -0.301  -0.297  -0.295  -0.287  -0.285  -0.275  -0.269
 -0.259  -0.252  -0.242  -0.240  -0.232  -0.227  -0.207  -0.181
 -0.168  -0.160  -0.158  -0.150  -0.144  -0.140  -0.136  -0.132
 -0.126
 -- Virtual --
  0.098   0.105   0.116   0.119   0.239   0.251   0.261   0.264
  0.281   0.295   0.305   0.315   0.322   0.333   0.338   0.345
  0.356   0.360   0.364   0.366   0.373   0.380   0.381   0.385
  0.386   0.396   0.401   0.408   0.410   0.413   0.413   0.417
  0.418   0.423   0.424   0.429   0.432   0.434   0.445   0.450
  0.454   0.456   0.465   0.468   0.469   0.472   0.482   0.486
  0.490   0.491   0.497   0.504   0.515   0.521   0.526   0.541
  0.554   0.555   0.560   0.644   0.663   0.666   0.671
 --------------------------------------------------------------
 
          Ground-State Mulliken Net Atomic Charges

     Atom                 Charge (a.u.)
  ----------------------------------------
      1 O                    -0.207357
      2 C                     0.220912
      3 C                    -0.079369
      4 C                    -0.080638
      5 C                     0.217369
      6 O                    -0.180871
      7 C                    -0.044287
      8 C                    -0.046652
      9 O                    -0.178957
     10 C                     0.225457
     11 C                    -0.079476
     12 C                    -0.076162
     13 C                     0.219948
     14 O                    -0.223905
     15 O                    -0.196668
     16 O                    -0.182729
     17 O                    -0.214577
     18 C                    -0.116100
     19 C                     0.033432
     20 C                    -0.144170
     21 C                    -0.145240
     22 C                     0.031481
     23 O                    -0.189804
     24 H                     0.081956
     25 H                     0.084844
     26 H                     0.087986
     27 H                     0.074678
     28 H                     0.071497
     29 H                     0.075394
     30 H                     0.072761
     31 H                     0.080193
     32 O                    -0.207147
     33 C                    -0.117234
     34 C                     0.028760
     35 C                    -0.144535
     36 C                    -0.144691
     37 C                     0.032890
     38 O                    -0.192658
     39 H                     0.088418
     40 H                     0.085372
     41 H                     0.083978
     42 H                     0.091590
     43 H                     0.076456
     44 H                     0.073131
     45 H                     0.077542
     46 H                     0.074167
     47 H                     0.085163
     48 H                     0.097265
     49 H                     0.089599
     50 H                     0.096883
     51 H                     0.085575
     52 H                     0.079429
     53 H                     0.105748
     54 H                     0.077579
     55 H                     0.098473
     56 H                     0.087299
  ----------------------------------------
  Sum of atomic charges =    -0.000000

 -----------------------------------------------------------------
                    Cartesian Multipole Moments
 -----------------------------------------------------------------
    Charge (ESU x 10^10)
                 0.0000
    Dipole Moment (Debye)
         X      -1.3657      Y       0.4079      Z       0.9370
       Tot       1.7057
    Quadrupole Moments (Debye-Ang)
        XX    -136.0043     XY       1.6932     YY    -147.0964
        XZ       2.9863     YZ       3.2585     ZZ    -167.1453
    Octopole Moments (Debye-Ang^2)
       XXX       1.1486    XXY      -4.9807    XYY      -4.8562
       YYY     -16.6084    XXZ       3.8726    XYZ       4.9076
       YYZ      12.5137    XZZ      -8.5036    YZZ       7.1113
       ZZZ       7.3966
    Hexadecapole Moments (Debye-Ang^3)
      XXXX   -8640.9945   XXXY      62.8998   XXYY   -2023.0922
      XYYY     109.8782   YYYY   -2931.1618   XXXZ     -36.2429
      XXYZ     -52.5675   XYYZ     -21.7410   YYYZ     -27.4186
      XXZZ   -1748.0356   XYZZ      34.1319   YYZZ    -753.3245
      XZZZ     -18.0714   YZZZ      -6.0601   ZZZZ   -1450.9209
 -----------------------------------------------------------------
 Calculating analytic gradient of the SCF energy
 Gradient of SCF Energy
            1           2           3           4           5           6
    1  -0.0059261   0.0043851   0.0023421   0.0140645  -0.0038688   0.0192847
    2  -0.0077931   0.0024549   0.0034958  -0.0061475   0.0057188  -0.0061844
    3  -0.0043243  -0.0507610   0.0166266  -0.0146729   0.0273914  -0.0185688
            7           8           9          10          11          12
    1  -0.0038099  -0.0022328  -0.0020915  -0.0076476  -0.0106419  -0.0035145
    2  -0.0114602  -0.0274103   0.0062597  -0.0016970  -0.0053710  -0.0100883
    3  -0.0097356  -0.0021649  -0.0183259   0.0317273  -0.0097656  -0.0116244
           13          14          15          16          17          18
    1   0.0108331   0.0012075   0.0300127  -0.0342908   0.0087299   0.0166195
    2   0.0352252   0.0016005   0.0028877  -0.0372293  -0.0005419   0.0222118
    3  -0.0034731  -0.0151515   0.0475656   0.0260970   0.0059183   0.0028967
           19          20          21          22          23          24
    1  -0.0098739  -0.0122716  -0.0082786  -0.0017664   0.0141656   0.0043149
    2  -0.0266477  -0.0022102   0.0047580   0.0212003   0.0111930   0.0036445
    3   0.0029263   0.0070714  -0.0036958  -0.0183885   0.0218444  -0.0057276
           25          26          27          28          29          30
    1  -0.0006429   0.0087848  -0.0021734   0.0036081   0.0019698  -0.0014260
    2  -0.0024970   0.0057364  -0.0035642   0.0009980   0.0016679  -0.0012765
    3   0.0019334   0.0029396  -0.0029233  -0.0008719  -0.0056437   0.0027855
           31          32          33          34          35          36
    1   0.0046110  -0.0079166  -0.0149497   0.0204448   0.0085893   0.0074825
    2  -0.0014205   0.0065098   0.0134601   0.0260898   0.0041275  -0.0063362
    3   0.0080643  -0.0105695  -0.0240129  -0.0016426   0.0085592   0.0045951
           37          38          39          40          41          42
    1   0.0064281  -0.0245578  -0.0022284  -0.0011824  -0.0014844  -0.0091357
    2  -0.0287169   0.0031712  -0.0039407   0.0024971   0.0005092  -0.0028025
    3  -0.0061781   0.0167427  -0.0033087   0.0004554  -0.0002099  -0.0000397
           43          44          45          46          47          48
    1   0.0031097  -0.0026725   0.0007290  -0.0005610  -0.0069807  -0.0002017
    2   0.0024410  -0.0014353  -0.0033957   0.0023030   0.0052396   0.0001976
    3  -0.0033782  -0.0009593  -0.0044624   0.0013193   0.0033992  -0.0018708
           49          50          51          52          53          54
    1   0.0009023  -0.0022576  -0.0029437  -0.0015013  -0.0039007  -0.0011227
    2  -0.0021712  -0.0018835  -0.0049687  -0.0015788   0.0102186   0.0000878
    3   0.0015679   0.0005491   0.0038538   0.0002930  -0.0002532  -0.0003188
           55          56
    1  -0.0016426   0.0030769
    2   0.0022071   0.0006566
    3   0.0052108   0.0006900
 Max gradient component =       5.076E-02
 RMS gradient           =       1.217E-02
 Gradient time:  CPU 32.77 s  wall 0.69 s
 Geometry Optimization Parameters
   NAtoms,    NIC,     NZ,  NCons,   NDum,   NFix, NCnnct, MaxDiis
       56     458       0       9       0       0       0       0

 Cartesian Hessian Update
 Hessian Updated using BFGS Update


** CONSTRAINED OPTIMIZATION IN DELOCALIZED INTERNAL COORDINATES **
   Searching for a Minimum

   Optimization Cycle:   3

                       Coordinates (Angstroms)
     ATOM                X               Y               Z
      1  O        -1.6455219774   -1.3182060882    1.9291588975
      2  C        -2.2925212307   -1.5254679262    0.8797087107
      3  C        -3.3957688451   -0.6075896925    0.2968166983
      4  C        -3.1325233175    0.9301462772    0.4154528346
      5  C        -1.7141326268    1.3205039944    0.9019275008
      6  O        -1.7298306222    2.6332654570    1.4151618287
      7  C        -0.4147254135    2.9461758267    1.9664625162
      8  C         0.6260232294    3.2120126380    0.8318654390
      9  O         1.7957473135    2.3642282314    1.0196090369
     10  C         2.1338578548    1.6932728741   -0.1646212278
     11  C         3.3817299828    0.8054458142    0.0472961269
     12  C         3.0863960788   -0.5805036197    0.7208238670
     13  C         1.5890678907   -0.9903865889    0.7630218446
     14  O         1.0581561263   -1.7089594094    1.6367722960
     15  O        -2.3804953604   -2.8120411740    0.3313967448
     16  O         0.9933110651   -0.7852735347   -0.4840603828
     17  O         1.6128348953    1.9337195444   -1.2727996839
     18  C        -0.0468894041   -1.6640261811   -0.9096250902
     19  C         4.0566179496    0.3402010016   -1.2993542160
     20  C         5.5492779776   -0.0189987150   -0.9977161345
     21  C         5.3742296966   -1.3307803900   -0.1804361920
     22  C         3.8241842465   -1.5347460703   -0.2989301797
     23  O         3.4814114760   -0.9620433528   -1.5897231141
     24  H         4.1294371041    1.4041174386    0.6045457776
     25  H         3.4878242017   -0.6755606650    1.7472731661
     26  H         3.9746653089    1.0811668066   -2.1194638831
     27  H         6.0279319129   -0.2607070029   -1.9643031020
     28  H         6.1355252284    0.7727186535   -0.4997820843
     29  H         5.9148219668   -2.1490127675   -0.6877429244
     30  H         5.6961776497   -1.2710157155    0.8738762422
     31  H         3.5330543522   -2.5973000265   -0.1714659826
     32  O        -0.6621065328    0.7453448765    0.5601549116
     33  C        -1.8160136859   -3.8734177190    1.1091603003
     34  C        -3.5216883845   -0.7493673257   -1.2720739164
     35  C        -4.9311392313   -0.2345459321   -1.7187935885
     36  C        -4.7487123196    1.3002550977   -1.5451317508
     37  C        -3.2485556856    1.3600598221   -1.0990265350
     38  O        -2.6210456593    0.2574435041   -1.8035158894
     39  H        -4.3518527893   -0.9252296719    0.7571450618
     40  H        -3.8888747472    1.4501843192    1.0336256329
     41  H        -2.3456186691   -3.9853400831    2.0812202556
     42  H        -3.3361467257   -1.7769405729   -1.6431263304
     43  H        -5.0521913103   -0.4621018166   -2.7933218641
     44  H        -5.7752676674   -0.6759066310   -1.1614653699
     45  H        -4.8660595655    1.7933698556   -2.5264316229
     46  H        -5.4253336319    1.7740820331   -0.8129467931
     47  H        -2.8001643510    2.3543596074   -1.2993877895
     48  H        -0.7365734760   -3.7166568292    1.3241481338
     49  H        -1.9339213985   -4.8102811703    0.5299848970
     50  H        -0.9732524898   -1.0853969471   -1.1086642396
     51  H        -0.2536076682   -2.4624748753   -0.1673298350
     52  H         0.2680745592   -2.1479759493   -1.8596541486
     53  H         0.1618683240    3.1463098977   -0.1769001236
     54  H         0.9730993668    4.2654952183    0.9270055107
     55  H        -0.0574559916    2.1654405221    2.6753255550
     56  H        -0.5486592370    3.8790043905    2.5523543329
   Point Group: c1    Number of degrees of freedom:   162


   Energy is  -1510.232838761

              Constraints and their Current Values
                                        Value     Constraint
   Dihedral:        1   2   3   4       38.887       38.887
   Dihedral:        3   4   5   6     -159.377     -159.387
   Dihedral:        4   5   6   7      175.482      175.477
   Dihedral:        5   6   7   8       74.738       74.678
   Dihedral:        6   7   8   9     -126.688     -126.622
   Dihedral:        7   8   9  10      130.458      130.383
   Dihedral:        8   9  10  11      179.620      179.655
   Dihedral:        9  10  11  12       81.102       81.044
   Dihedral:       11  12  13  14     -150.420     -150.420
 Hessian Updated using BFGS Update

   Using Lagrange Multiplier Algorithm


158 Hessian modes will be used to form the next step
  Hessian Eigenvalues:
    -0.977754   -0.977753   -0.977753   -0.977753   -0.977753   -0.977540
    -0.707739    0.042896    0.045000    0.045049    0.045460    0.045550
     0.045867    0.046842    0.046970    0.047332    0.048887    0.051053
     0.053857    0.058331    0.060049    0.062755    0.063336    0.065952
     0.067103    0.067237    0.067439    0.068698    0.070822    0.072986
     0.073524    0.073910    0.075930    0.076155    0.076414    0.077643
     0.082465    0.082705    0.083967    0.084182    0.084465    0.084703
     0.085546    0.085866    0.086539    0.086830    0.086969    0.087578
     0.088276    0.088872    0.089102    0.089492    0.089833    0.090673
     0.093788    0.093905    0.096630    0.096665    0.111536    0.111583
     0.112477    0.113757    0.115418    0.115837    0.116641    0.116842
     0.118007    0.118331    0.119312    0.123053    0.125311    0.125941
     0.130706    0.132104    0.139643    0.140193    0.145587    0.160033
     0.160644    0.163835    0.171352    0.172318    0.173626    0.176023
     0.219575    0.231601    0.232926    0.237736    0.239633    0.242157
     0.243529    0.246100    0.251891    0.258527    0.260413    0.266848
     0.267436    0.278894    0.280427    0.281640    0.287060    0.295185
     0.296734    0.301939    0.307592    0.309718    0.312106    0.316201
     0.321202    0.321858    0.321932    0.321979    0.322221    0.322504
     0.322890    0.322942    0.323058    0.323145    0.323330    0.323659
     0.324139    0.324196    0.324299    0.324380    0.324432    0.324647
     0.324690    0.324724    0.325875    0.326856    0.327576    0.329244
     0.330744    0.335692    0.357705    0.370491    0.371467    0.386396
     0.399183    0.406196    0.461093    0.492269    0.510581    0.519562
     0.523570    0.531258    0.678054    0.930245    0.942214    0.951179
     0.966663    1.022753    1.022753    1.022753    1.022753    1.022753
     1.024182    3.908465

 Minimum Search - Taking P-RFO Step
 Searching for Lamda that Maximizes Along the Constraint modes Only
 Value Taken    Lamda =   0.01968130
 Searching for Lamda that Minimizes Along All other modes
 Value Taken    Lamda =  -0.12232008
 Calculated Step too Large.  Step scaled by  0.498131
 Step Taken.  Stepsize is  0.300000

                             Maximum     Tolerance    Cnvgd?
         Gradient            0.217636       0.000300      NO
         Displacement        0.129368       0.001200      NO
         Energy change     -0.030437       0.000001      NO


 New Cartesian Coordinates Obtained by Inverse Iteration

 Displacement from previous Coordinates is:  2.650397
 Adding empirical dispersion correction 
 ----------------------------------------------------------------
 Doing -D3(op) with
 s6 =   1.00000
 s8 =   0.78311
 a1 =   0.30000
 a2 =   4.25000
 n  =  10.00000
 -D3 energy without 3body term =     -0.0746832529 hartrees
 ----------------------------------------------------------------
             Standard Nuclear Orientation (Angstroms)
    I     Atom           X                Y                Z
 ----------------------------------------------------------------
    1      O      -1.8451415623    -1.3957164218     2.0032978287
    2      C      -2.4953448342    -1.5826468666     0.9449352605
    3      C      -3.5663673192    -0.6210788031     0.3308445355
    4      C      -3.2300171812     0.9141937474     0.4418674671
    5      C      -1.7713808221     1.2573069690     0.8939207051
    6      O      -1.7651097742     2.5942104338     1.4012952162
    7      C      -0.4292098952     2.9142491828     1.9375281840
    8      C       0.6707084454     3.1765702745     0.8337384815
    9      O       1.8648840188     2.3411340596     1.0237232826
   10      C       2.2105988968     1.6930024104    -0.2017066893
   11      C       3.4859601192     0.8202245259     0.0272832615
   12      C       3.2036082607    -0.5823086858     0.6912861848
   13      C       1.7030542537    -1.0232122985     0.6488099684
   14      O       1.1137831862    -1.7556882732     1.4831593807
   15      O      -2.6478630553    -2.8776582335     0.3760970442
   16      O       1.2184795826    -0.7607621148    -0.6557316249
   17      O       1.6747567203     1.9531050088    -1.3049814309
   18      C       0.1831713199    -1.6728977968    -1.1146499293
   19      C       4.2159706575     0.3830179191    -1.3106451013
   20      C       5.7163880407     0.0586265733    -0.9466889484
   21      C       5.5454152466    -1.2737742973    -0.1350303609
   22      C       3.9970412896    -1.5261289636    -0.3173757776
   23      O       3.6782207262    -0.9504592708    -1.6365021672
   24      H       4.1962264264     1.4285099817     0.6169418680
   25      H       3.5720749944    -0.6757702221     1.7278322012
   26      H       4.1305509101     1.1213875576    -2.1309036653
   27      H       6.2444722360    -0.1599154759    -1.8891790357
   28      H       6.2527527782     0.8634331569    -0.4202129805
   29      H       6.1272152477    -2.0756909113    -0.6155162109
   30      H       5.8232285872    -1.2061598558     0.9283463705
   31      H       3.7183170272    -2.5930579662    -0.2151747014
   32      O      -0.7246414638     0.6476430599     0.5667817430
[...]
     15  O        -2.3957665099   -2.7291725583    0.4846090435
     16  O         1.1594263354   -0.8384012818   -0.8892983433
     17  O         1.5100652418    1.8561646260   -1.3043358802
     18  C        -0.1551126794   -1.3771906834   -1.3092262696
     19  C         4.1655736858    0.2486155397   -1.3396166939
     20  C         5.6617899521    0.0195605939   -0.8931269831
     21  C         5.5059055885   -1.2884273933   -0.0295562192
     22  C         3.9894971209   -1.6589037710   -0.2911706823
     23  O         3.7164354883   -1.1287399685   -1.6464824389
     24  H         4.0334820145    1.2172037505    0.6533944616
     25  H         3.2949062460   -0.7908868113    1.6863114639
     26  H         4.0106600878    0.9115021556   -2.2127249471
     27  H         6.3006268759   -0.1552643155   -1.7738878480
     28  H         6.0711896173    0.8663611909   -0.3196632036
     29  H         6.1687900694   -2.0932734839   -0.3844178091
     30  H         5.7049173565   -1.1143008011    1.0402062660
     31  H         3.7564094204   -2.7405752616   -0.2439991961
     32  O        -0.7771360091    0.5483551268    0.8027691147
     33  C        -1.5375066930   -3.6241330734    1.3060713823
     34  C        -3.5445445997   -0.7727101449   -1.2394316974
     35  C        -4.9367039710   -0.2947662104   -1.8006687416
     36  C        -4.8287560312    1.2595329130   -1.5716166489
     37  C        -3.3449161874    1.3983293107   -1.0483561213
     38  O        -2.6237777618    0.2870358447   -1.7201258397
     39  H        -4.5996171464   -0.7697648841    0.7036675524
     40  H        -3.9725216849    1.4983914413    1.1298299892
     41  H        -1.9871583758   -3.8108244080    2.3011986872
     42  H        -3.2018795732   -1.7715998001   -1.5697779502
     43  H        -5.0216575259   -0.5378094299   -2.8720307935
     44  H        -5.7848278628   -0.7499251511   -1.2649020408
     45  H        -4.9629075796    1.8200798301   -2.5103320101
     46  H        -5.5569009328    1.6299954166   -0.8321087985
     47  H        -2.8570341175    2.3669636735   -1.2723435306
     48  H        -0.5283184792   -3.1634881048    1.4224379045
     49  H        -1.4686408214   -4.5721572718    0.7424459890
     50  H        -0.8730995610   -0.5381860809   -1.4626551237
     51  H        -0.5761000732   -2.0696485194   -0.5577322529
     52  H        -0.0005741098   -1.9128536976   -2.2664234473
     53  H         0.2412879291    2.9724529856   -0.1410264377
     54  H         1.0396395817    4.1756796389    0.9395257979
     55  H        -0.0318710787    1.9947924010    2.6192853113
     56  H        -0.4941836659    3.7440242238    2.6572226466
   Point Group: c1    Number of degrees of freedom:   162


   Energy is  -1510.288325578

              Constraints and their Current Values
                                        Value     Constraint
   Dihedral:        1   2   3   4       38.887       38.887
   Dihedral:        3   4   5   6     -159.387     -159.387
   Dihedral:        4   5   6   7      175.477      175.477
   Dihedral:        5   6   7   8       74.678       74.678
   Dihedral:        6   7   8   9     -126.622     -126.622
   Dihedral:        7   8   9  10      130.383      130.383
   Dihedral:        8   9  10  11      179.655      179.655
   Dihedral:        9  10  11  12       81.044       81.044
   Dihedral:       11  12  13  14     -150.420     -150.420
 Hessian Updated using BFGS Update

153 Hessian modes will be used to form the next step
  Hessian Eigenvalues:
     0.004245    0.010278    0.015017    0.031762    0.042869    0.045568
     0.045724    0.046216    0.046801    0.048997    0.050787    0.052355
     0.055039    0.059867    0.060487    0.063977    0.065883    0.066970
     0.067427    0.067645    0.068838    0.069142    0.073465    0.074124
     0.075136    0.075696    0.077345    0.077639    0.079373    0.081214
     0.082808    0.083576    0.084504    0.084552    0.084855    0.085311
     0.085765    0.086501    0.087662    0.087894    0.088214    0.088928
     0.089190    0.089676    0.089887    0.092265    0.093416    0.094563
     0.095979    0.096619    0.097435    0.100780    0.111536    0.111583
     0.113546    0.114256    0.116216    0.117023    0.117867    0.118754
     0.120419    0.121283    0.123085    0.124047    0.125602    0.131676
     0.133048    0.146159    0.152179    0.158382    0.159300    0.159848
     0.160557    0.161091    0.163715    0.170754    0.173977    0.179479
     0.192642    0.218033    0.232021    0.235505    0.236833    0.239473
     0.242035    0.243342    0.248812    0.251466    0.253185    0.257941
     0.263405    0.266649    0.267169    0.270377    0.276540    0.278876
     0.281288    0.286211    0.294765    0.295998    0.298362    0.307828
     0.308554    0.310110    0.320450    0.321108    0.321200    0.321908
     0.321989    0.322110    0.322500    0.322921    0.322983    0.323152
     0.323230    0.323599    0.323760    0.324081    0.324211    0.324345
     0.324402    0.324536    0.324676    0.324723    0.325180    0.326102
     0.326977    0.327729    0.328083    0.331351    0.334097    0.342947
     0.367089    0.370745    0.375653    0.388887    0.412695    0.413990
     0.431641    0.466228    0.495662    0.500359    0.524106    0.525492
     0.547497    0.607850    0.929839    0.939546    0.951348    0.985403
     1.360608    1.578993    5.091313

 Minimum Search - Taking Simple RFO Step
 Searching for Lamda that Minimizes Along All modes
 Value Taken    Lamda =   0.00000000
 Step Taken.  Stepsize is  0.004140

                             Maximum     Tolerance    Cnvgd?
         Gradient           0.000075      0.000300     YES
         Displacement       0.001254      0.001200      NO
         Energy change     -0.000000      0.000001     YES

 Final energy is   -1510.28832557789     


 ******************************
 **  OPTIMIZATION CONVERGED  **
 ******************************

                       Coordinates (Angstroms)
     ATOM                X               Y               Z
      1  O        -2.2252052090   -1.2743043534    2.3479617850
      2  C        -2.6357001231   -1.5110056153    1.1912935386
      3  C        -3.5733310618   -0.5802907507    0.3350994640
      4  C        -3.2573101120    0.9616349069    0.4836704146
      5  C        -1.7866726845    1.2728709956    0.9278757076
      6  O        -1.7492856219    2.5948151450    1.4863667674
      7  C        -0.3860970387    2.8531696929    2.0077809555
      8  C         0.6780645838    3.1275221015    0.8710216680
      9  O         1.8410539541    2.2253266051    1.0193205110
     10  C         2.1261518635    1.5969725930   -0.2486773340
     11  C         3.3636175511    0.6671037464   -0.0327071172
     12  C         3.0445935606   -0.7467720311    0.6123764962
     13  C         1.5706070558   -1.2604170037    0.3990234340
     14  O         0.9390994433   -2.0085943303    1.1811561730
     15  O        -2.3957665099   -2.7291725583    0.4846090435
     16  O         1.1594263354   -0.8384012818   -0.8892983433
     17  O         1.5100652418    1.8561646260   -1.3043358802
     18  C        -0.1551126794   -1.3771906834   -1.3092262696
     19  C         4.1655736858    0.2486155397   -1.3396166939
     20  C         5.6617899521    0.0195605939   -0.8931269831
     21  C         5.5059055885   -1.2884273933   -0.0295562192
     22  C         3.9894971209   -1.6589037710   -0.2911706823
     23  O         3.7164354883   -1.1287399685   -1.6464824389
     24  H         4.0334820145    1.2172037505    0.6533944616
     25  H         3.2949062460   -0.7908868113    1.6863114639
     26  H         4.0106600878    0.9115021556   -2.2127249471
     27  H         6.3006268759   -0.1552643155   -1.7738878480
     28  H         6.0711896173    0.8663611909   -0.3196632036
     29  H         6.1687900694   -2.0932734839   -0.3844178091
     30  H         5.7049173565   -1.1143008011    1.0402062660
     31  H         3.7564094204   -2.7405752616   -0.2439991961
     32  O        -0.7771360091    0.5483551268    0.8027691147
     33  C        -1.5375066930   -3.6241330734    1.3060713823
     34  C        -3.5445445997   -0.7727101449   -1.2394316974
     35  C        -4.9367039710   -0.2947662104   -1.8006687416
     36  C        -4.8287560312    1.2595329130   -1.5716166489
     37  C        -3.3449161874    1.3983293107   -1.0483561213
     38  O        -2.6237777618    0.2870358447   -1.7201258397
     39  H        -4.5996171464   -0.7697648841    0.7036675524
     40  H        -3.9725216849    1.4983914413    1.1298299892
     41  H        -1.9871583758   -3.8108244080    2.3011986872
     42  H        -3.2018795732   -1.7715998001   -1.5697779502
     43  H        -5.0216575259   -0.5378094299   -2.8720307935
     44  H        -5.7848278628   -0.7499251511   -1.2649020408
     45  H        -4.9629075796    1.8200798301   -2.5103320101
     46  H        -5.5569009328    1.6299954166   -0.8321087985
     47  H        -2.8570341175    2.3669636735   -1.2723435306
     48  H        -0.5283184792   -3.1634881048    1.4224379045
     49  H        -1.4686408214   -4.5721572718    0.7424459890
     50  H        -0.8730995610   -0.5381860809   -1.4626551237
     51  H        -0.5761000732   -2.0696485194   -0.5577322529
     52  H        -0.0005741098   -1.9128536976   -2.2664234473
     53  H         0.2412879291    2.9724529856   -0.1410264377
     54  H         1.0396395817    4.1756796389    0.9395257979
     55  H        -0.0318710787    1.9947924010    2.6192853113
     56  H        -0.4941836659    3.7440242238    2.6572226466

Z-matrix Print:
$molecule
0 1
O 
C  1 1.248895
O  2 1.435565 1 123.513243
C  3 1.482195 2 108.742783 1 -6.484749 0
H  4 1.107736 3 104.873298 2 -164.896561 0
H  4 1.111857 3 110.604721 2 -47.245637 0
C  2 1.567470 1 127.939552 3 177.641067 0
H  7 1.103249 2 110.221335 1 151.836619 0
C  7 1.580974 2 114.068497 1 22.686961 0
H  9 1.106800 7 108.724510 2 141.705603 0
C  9 1.574309 7 113.980669 2 24.141822 0
O  11 1.249966 9 125.937420 7 38.886958 0
O  11 1.428601 9 109.579051 7 -145.371439 0
C  13 1.487402 11 109.680720 9 -178.609098 0
H  14 1.105064 13 105.691783 11 175.118422 0
H  14 1.107844 13 111.302021 11 55.952396 0
H  14 1.115435 13 109.341013 11 -65.860875 0
C  4 1.581117 3 113.348997 2 74.677948 0
H  18 1.110884 4 109.782458 3 113.998468 0
H  18 1.113131 4 111.432545 3 -6.072474 0
O  18 1.479356 4 110.561780 3 -126.621984 0
C  21 1.443582 18 109.430373 4 130.382961 0
O  22 1.249463 21 123.672869 18 3.583527 0
C  22 1.562889 21 107.095608 18 179.655014 0
H  24 1.105470 22 105.633438 21 -38.405545 0
C  24 1.586491 22 115.290265 21 81.043971 0
H  26 1.103603 24 112.686844 22 -101.974174 0
C  26 1.575432 24 115.064280 22 24.290260 0
O  28 1.253117 26 125.565487 24 -150.420026 0
O  28 1.416665 26 107.312824 24 35.623327 0
C  30 1.481434 28 114.015583 26 173.277152 0
H  31 1.105202 30 111.908794 28 -3.001817 0
H  31 1.107720 30 107.278795 28 -123.420860 0
H  31 1.114888 30 109.679612 28 117.654044 0
C  9 1.586506 7 102.000927 2 -103.171669 0
H  35 1.106494 9 114.293324 7 148.612184 0
O  35 1.483894 9 104.249050 7 27.452237 0
C  37 1.485358 35 94.965336 9 -53.843058 0
H  38 1.107453 37 110.427879 35 -178.597191 0
C  35 1.575286 9 107.502885 7 -80.852099 0
H  40 1.101603 35 112.443018 9 -50.443343 0
H  40 1.101864 35 110.342320 9 -172.121805 0
C  40 1.574790 35 100.780943 9 70.088226 0
H  43 1.101543 40 111.712886 35 122.952556 0
H  43 1.101957 40 112.589500 35 -114.423243 0
C  24 1.589427 22 116.265189 21 -160.189164 0
H  46 1.107129 24 114.847322 22 20.552395 0
O  46 1.480878 24 105.203443 22 -101.231369 0
C  48 1.480711 46 95.014999 24 -52.273045 0
H  49 1.107505 48 110.479269 46 -178.336465 0
C  46 1.578126 24 106.496058 22 150.787028 0
H  51 1.101608 46 112.833809 24 -51.251524 0
H  51 1.102005 46 110.274533 24 -173.165777 0
C  51 1.575083 46 100.475636 24 69.270420 0
H  54 1.101417 51 111.753406 46 124.563213 0
H  54 1.101961 51 112.529351 46 -112.889419 0
$end

 
 --------------------------------------------------------------
 
                    Orbital Energies (a.u.)
 --------------------------------------------------------------
 
 Alpha MOs
 -- Occupied --
-18.933 -18.924 -18.924 -18.921 -18.898 -18.882 -18.877 -18.873
-18.864 -18.861 -10.099 -10.094 -10.092 -10.091 -10.070 -10.066
-10.062 -10.061 -10.055 -10.054 -10.040 -10.037 -10.037 -10.032
-10.030 -10.026 -10.025 -10.023 -10.017 -10.016  -1.015  -1.004
 -1.001  -0.994  -0.977  -0.964  -0.938  -0.930  -0.925  -0.922
 -0.766  -0.758  -0.727  -0.719  -0.712  -0.703  -0.692  -0.648
 -0.640  -0.616  -0.593  -0.577  -0.547  -0.541  -0.539  -0.532
 -0.511  -0.504  -0.477  -0.470  -0.460  -0.453  -0.451  -0.439
 -0.435  -0.428  -0.426  -0.418  -0.405  -0.399  -0.392  -0.386
 -0.385  -0.375  -0.369  -0.360  -0.357  -0.356  -0.347  -0.340
 -0.338  -0.335  -0.331  -0.325  -0.323  -0.320  -0.317  -0.313
 -0.305  -0.302  -0.300  -0.299  -0.293  -0.284  -0.279  -0.272
 -0.266  -0.257  -0.244  -0.242  -0.240  -0.229  -0.227  -0.184
 -0.166  -0.165  -0.163  -0.153  -0.151  -0.149  -0.141  -0.141
 -0.135
 -- Virtual --
  0.097   0.106   0.112   0.114   0.224   0.242   0.250   0.254
  0.264   0.272   0.285   0.291   0.307   0.314   0.322   0.329
  0.337   0.342   0.346   0.353   0.356   0.363   0.368   0.370
  0.374   0.377   0.387   0.397   0.404   0.406   0.407   0.412
  0.412   0.420   0.421   0.433   0.436   0.436   0.440   0.443
  0.449   0.452   0.456   0.457   0.462   0.467   0.471   0.475
  0.485   0.487   0.488   0.494   0.505   0.507   0.512   0.535
  0.543   0.550   0.557   0.639   0.654   0.660   0.670
 --------------------------------------------------------------
 
          Ground-State Mulliken Net Atomic Charges

     Atom                 Charge (a.u.)
  ----------------------------------------
      1 O                    -0.213723
      2 C                     0.213033
      3 C                    -0.080226
      4 C                    -0.078082
      5 C                     0.213444
      6 O                    -0.173104
      7 C                    -0.051318
      8 C                    -0.058232
      9 O                    -0.175239
     10 C                     0.217774
     11 C                    -0.077931
     12 C                    -0.075173
     13 C                     0.220857
     14 O                    -0.223553
     15 O                    -0.176181
     16 O                    -0.161282
     17 O                    -0.205726
     18 C                    -0.145213
     19 C                     0.026400
     20 C                    -0.142076
     21 C                    -0.145191
     22 C                     0.024555
     23 O                    -0.184952
     24 H                     0.083334
     25 H                     0.085387
     26 H                     0.088312
     27 H                     0.077116
     28 H                     0.072349
     29 H                     0.077274
     30 H                     0.073378
     31 H                     0.081638
     32 O                    -0.209156
     33 C                    -0.146249
     34 C                     0.023880
     35 C                    -0.142006
     36 C                    -0.144394
     37 C                     0.025894
     38 O                    -0.188246
     39 H                     0.083439
     40 H                     0.089173
     41 H                     0.082645
     42 H                     0.095200
     43 H                     0.079388
     44 H                     0.074837
     45 H                     0.079804
     46 H                     0.075281
     47 H                     0.085390
     48 H                     0.118727
     49 H                     0.080884
     50 H                     0.108244
     51 H                     0.093564
     52 H                     0.077588
     53 H                     0.102556
     54 H                     0.079097
     55 H                     0.098829
     56 H                     0.087982
  ----------------------------------------
  Sum of atomic charges =    -0.000000

 -----------------------------------------------------------------
                    Cartesian Multipole Moments
 -----------------------------------------------------------------
    Charge (ESU x 10^10)
                 0.0000
    Dipole Moment (Debye)
         X      -0.8594      Y       1.1810      Z       0.4807
       Tot       1.5377
    Quadrupole Moments (Debye-Ang)
        XX    -135.6548     XY       0.0868     YY    -151.6031
        XZ       6.4986     YZ       2.8998     ZZ    -167.3358
    Octopole Moments (Debye-Ang^2)
       XXX       3.4679    XXY       5.4225    XYY       4.8659
       YYY      10.9356    XXZ      -0.0319    XYZ      -1.0946
       YYZ      10.5444    XZZ      -1.1884    YZZ      12.0828
       ZZZ       4.5489
    Hexadecapole Moments (Debye-Ang^3)
      XXXX   -8933.9245   XXXY     100.8377   XXYY   -2074.1579
      XYYY     148.9682   YYYY   -2842.3881   XXXZ      62.1119
      XXYZ     -51.8326   XYYZ      15.4394   YYYZ     -16.0626
      XXZZ   -1855.1987   XYZZ      56.4099   YYZZ    -742.8663
      XZZZ      83.4984   YZZZ      -4.8862   ZZZZ   -1580.3970
 -----------------------------------------------------------------
Archival summary:
1\1\vega02.cac.cornell.edu\OPT\ProcedureUnspecified\STO-3G\102026\jj585\TueJan1608:27:072018TueJan1608:27:072018\0\\#,OPT,ProcedureUnspecified,STO-3G,\\0,1\O\C,1,1.2489\O,2,1.43556,1,123.513\C,3,1.4822,2,108.743,1,-6.48475,0\H,4,1.10774,3,104.873,2,-164.897,0\H,4,1.11186,3,110.605,2,-47.2456,0\C,2,1.56747,1,127.94,3,177.641,0\H,7,1.10325,2,110.221,1,151.837,0\C,7,1.58097,2,114.068,1,22.687,0\H,9,1.1068,7,108.725,2,141.706,0\C,9,1.57431,7,113.981,2,24.1418,0\O,11,1.24997,9,125.937,7,38.887,0\O,11,1.4286,9,109.579,7,-145.371,0\C,13,1.4874,11,109.681,9,-178.609,0\H,14,1.10506,13,105.692,11,175.118,0\H,14,1.10784,13,111.302,11,55.9524,0\H,14,1.11544,13,109.341,11,-65.8609,0\C,4,1.58112,3,113.349,2,74.6779,0\H,18,1.11088,4,109.782,3,113.998,0\H,18,1.11313,4,111.433,3,-6.07247,0\O,18,1.47936,4,110.562,3,-126.622,0\C,21,1.44358,18,109.43,4,130.383,0\O,22,1.24946,21,123.673,18,3.58353,0\C,22,1.56289,21,107.096,18,179.655,0\H,24,1.10547,22,105.633,21,-38.4055,0\C,24,1.58649,22,115.29,21,81.044,0\H,26,1.1036,24,112.687,22,-101.974,0\C,26,1.57543,24,115.064,22,24.2903,0\O,28,1.25312,26,125.565,24,-150.42,0\O,28,1.41667,26,107.313,24,35.6233,0\C,30,1.48143,28,114.016,26,173.277,0\H,31,1.1052,30,111.909,28,-3.00182,0\H,31,1.10772,30,107.279,28,-123.421,0\H,31,1.11489,30,109.68,28,117.654,0\C,9,1.58651,7,102.001,2,-103.172,0\H,35,1.10649,9,114.293,7,148.612,0\O,35,1.48389,9,104.249,7,27.4522,0\C,37,1.48536,35,94.9653,9,-53.8431,0\H,38,1.10745,37,110.428,35,-178.597,0\C,35,1.57529,9,107.503,7,-80.8521,0\H,40,1.1016,35,112.443,9,-50.4433,0\H,40,1.10186,35,110.342,9,-172.122,0\C,40,1.57479,35,100.781,9,70.0882,0\H,43,1.10154,40,111.713,35,122.953,0\H,43,1.10196,40,112.59,35,-114.423,0\C,24,1.58943,22,116.265,21,-160.189,0\H,46,1.10713,24,114.847,22,20.5524,0\O,46,1.48088,24,105.203,22,-101.231,0\C,48,1.48071,46,95.015,24,-52.273,0\H,49,1.10751,48,110.479,46,-178.336,0\C,46,1.57813,24,106.496,22,150.787,0\H,51,1.10161,46,112.834,24,-51.2515,0\H,51,1.10201,46,110.275,24,-173.166,0\C,51,1.57508,46,100.476,24,69.2704,0\H,54,1.10142,51,111.753,46,124.563,0\H,54,1.10196,51,112.529,46,-112.889,0\\\@

 Total job time:  79.17s(wall), 3356.04s(cpu) 
 Tue Jan 16 08:27:07 2018

        *************************************************************
        *                                                           *
        *  Thank you very much for using Q-Chem.  Have a nice day.  *
        *                                                           *
        *************************************************************


0 sent ACK to 0 
now end server 0 ... 
