mFile = /opt/software/qchem/qchem-5.0.1//bin/mpi/machines
Process 0 of 1 is on vega02.cac.cornell.edu - thread support 0
initial socket setup ...start
initial socket setup ...done 
now start server 0 ... 
vega02.cac.cornell.edu 10.84.3
Q-Chem Developer Version! Running on 10.84.3.*
                  Welcome to Q-Chem
     A Quantum Leap Into The Future Of Chemistry


 Q-Chem 5.0, Q-Chem, Inc., Pleasanton, CA (2017)

 Yihan Shao,  Zhengting Gan,  E. Epifanovsky,  A. T. B. Gilbert,  M. Wormit,  
 J. Kussmann,  A. W. Lange,  A. Behn,  Jia Deng,  Xintian Feng,  D. Ghosh,  
 M. Goldey,  P. R. Horn,  L. D. Jacobson,  I. Kaliman,  T. Kus,  A. Landau,  
 Jie Liu,  E. I. Proynov,  R. M. Richard,  R. P. Steele,  E. J. Sundstrom,  
 H. L. Woodcock III,  P. M. Zimmerman,  D. Zuev,  B. Albrecht,  E. Alguire,  
 S. A. Baeppler,  Z. Benda,  Y. A. Bernard,  E. J. Berquist,  K. B. Bravaya,  
 D. Casanova,  Chun-Min Chang,  Yunqing Chen,  A. Chien,  K. D. Closser,  
 M. P. Coons,  S. Dasgupta,  M. Diedenhofen,  Hainam Do,  R. G. Edgar,  
 Po-Tung Fang,  S. Fatehi,  Qingguo Feng,  Qinghui Ge,  A. Ghysels,  
 J. Gomes,  J. Gonthier,  A. Gunina,  M. W. D. Hanson-Heine,  
 P. H. P. Harbach,  A. W. Hauser,  J. E. Herr,  E. G. Hohenstein,  
 Z. C. Holden,  Kerwin Hui,  T.-C. Jagau,  Hyunjun Ji,  B. Kaduk,  
 K. Khistyaev,  Jaehoon Kim,  P. Klunzinger,  K. Koh,  D. Kosenkov,  
 T. Kowalczyk,  C. M. Krauter,  A. Kunitsa,  Ka Un Lao,  A. Laurent,  
 K. V. Lawler,  Joonho Lee,  D. Lefrancois,  S. Lehtola,  D. S. Levine,  
 Yi-Pei Li,  You-Sheng Lin,  Fenglai Liu,  E. Livshits,  A. Luenser,  
 P. Manohar,  E. Mansoor,  S. F. Manzer,  Shan-Ping Mao,  Yuezhi Mao,  
 N. Mardirossian,  A. V. Marenich,  L. A. Martinez-Martinez,  S. A. Maurer,  
 N. J. Mayhall,  S. C. McKenzie,  J.-M. Mewes,  A. F. Morrison,  K. Nanda,  
 T. S. Nguyen-Beck,  R. Olivares-Amaya,  J. A. Parkhill,  T. M. Perrine,  
 F. Plasser,  S. Prager,  A. Prociuk,  D. R. Rehn,  F. Rob,  M. Schneider,  
 N. Sergueev,  S. M. Sharada,  S. Sharma,  D. W. Small,  T. Stauch,  
 T. Stein,  Yu-Chuan Su,  A. J. W. Thom,  T. Tsuchimochi,  L. Vogt,  
 O. Vydrov,  M. A. Watson,  J. Wenzel,  M. de Wergifosse,  T. A. Wesolowski,  
 A. White,  J. Witte,  A. Yamada,  Jun Yang,  K. Yao,  S. Yeganeh,  
 S. R. Yost,  Zhi-Qiang You,  A. Zech,  Igor Ying Zhang,  Xing Zhang,  
 Yan Zhao,  Ying Zhu,  B. R. Brooks,  G. K. L. Chan,  C. J. Cramer,  
 M. S. Gordon,  W. J. Hehre,  A. Klamt,  M. W. Schmidt,  C. D. Sherrill,  
 D. G. Truhlar,  A. Aspuru-Guzik,  R. Baer,  A. T. Bell,  N. A. Besley,  
 Jeng-Da Chai,  A. Dreuw,  B. D. Dunietz,  T. R. Furlani,  Chao-Ping Hsu,  
 Yousung Jung,  Jing Kong,  D. S. Lambrecht,  WanZhen Liang,  C. Ochsenfeld,  
 V. A. Rassolov,  L. V. Slipchenko,  J. E. Subotnik,  T. Van Voorhis,  
 J. M. Herbert,  A. I. Krylov,  P. M. W. Gill,  M. Head-Gordon

 Contributors to earlier versions of Q-Chem not listed above: 
 R. D. Adamson,  B. Austin,  J. Baker,  G. J. O. Beran,  K. Brandhorst,  
 S. T. Brown,  E. F. C. Byrd,  A. K. Chakraborty,  C.-L. Cheng,  
 Siu Hung Chien,  D. M. Chipman,  D. L. Crittenden,  H. Dachsel,  
 R. A. DiStasio Jr.,  R. J. Doerksen,  A. D. Dutoi,  L. Fusti-Molnar,  
 W. A. Goddard III,  A. Golubeva-Zadorozhnaya,  S. R. Gwaltney,  G. Hawkins,  
 A. Heyden,  S. Hirata,  G. Kedziora,  F. J. Keil,  C. Kelley,  Jihan Kim,  
 R. A. King,  R. Z. Khaliullin,  P. P. Korambath,  W. Kurlancheek,  
 A. M. Lee,  M. S. Lee,  S. V. Levchenko,  Ching Yeh Lin,  D. Liotard,  
 R. C. Lochan,  I. Lotan,  P. E. Maslen,  N. Nair,  D. P. O'Neill,  
 D. Neuhauser,  E. Neuscamman,  C. M. Oana,  R. Olson,  B. Peters,  
 R. Peverati,  P. A. Pieniazek,  Y. M. Rhee,  J. Ritchie,  M. A. Rohrdanz,  
 E. Rosta,  N. J. Russ,  H. F. Schaefer III,  N. E. Schultz,  N. Shenvi,  
 A. C. Simmonett,  A. Sodt,  D. Stuck,  K. S. Thanthiriwatte,  V. Vanovschi,  
 Tao Wang,  A. Warshel,  C. F. Williams,  Q. Wu,  X. Xu,  W. Zhang

 Please cite Q-Chem as follows:
 Y. Shao et al., Mol. Phys. 113, 184-215 (2015)
 DOI: 10.1080/00268976.2014.952696

 Q-Chem 5.0.1 for Intel X86 EM64T Linux

 Parts of Q-Chem use Armadillo 5.200.1 (Boston Tea Smuggler).
 http://arma.sourceforge.net/

 Q-Chem begins on Tue Jan 16 08:34:54 2018  

Host: vega02.cac.cornell.edu
0

     Scratch files written to /scratch/jj585/SOT1001/1097r.save//
 Parallel job on  1  processors

Checking the input file for inconsistencies... 	...done.

--------------------------------------------------------------
User input:
--------------------------------------------------------------
$molecule
0  1
O 1.9109683764 1.0755295165 2.2487363369
C 2.5160856982 1.4857595827 1.2344178091
C 3.4615596031 0.6328968364 0.3107964254
C 3.0947483618 -0.9057516789 0.256437875
C 1.6491394478 -1.2732007433 0.7504863781
O 1.735228517 -2.5752376621 1.3398209421
C 0.4223389198 -3.0210241057 1.8558939473
C -0.6959302257 -3.2998133988 0.7713627719
O -1.8296929908 -2.3580337855 0.8818506513
C -2.0244572434 -1.6287295952 -0.3468992281
C -3.24957826 -0.6845681741 -0.0939379604
C -2.9766682077 0.6674884424 0.6798875182
C -1.5543598782 1.2980128528 0.4448160147
O -0.9896241272 2.1251413599 1.199415811
O 2.4782439789 2.8304671482 0.7614200629
O -1.1366507862 0.9229135758 -0.8545118752
O -1.3705149748 -1.8325532331 -1.3908291712
C 0.0958258607 1.6185460907 -1.2890145558
C -4.0581680079 -0.1739627059 -1.3658261388
C -5.5683986631 -0.0808619049 -0.9169825709
C -5.484772009 1.1143115249 0.1059713935
C -3.9962094305 1.6095633731 -0.1085882365
O -3.6970881001 1.2548204191 -1.5154954951
H -3.9301245501 -1.2876800734 0.5354766353
H -3.1864452149 0.5947377267 1.7607905088
H -3.8563825217 -0.7280988853 -2.3029824743
H -6.2076182246 0.174233393 -1.7776864429
H -5.9393268012 -1.0129062598 -0.4616677856
H -6.199498437 1.9147395752 -0.1419849785
H -5.6625695074 0.7930670531 1.1450775898
H -3.8353257529 2.691993314 0.0621359481
O 0.5823637733 -0.6403667237 0.6130678381
C 1.5475278037 3.6252310971 1.6061986297
C 3.4869733716 1.017299083 -1.2282509223
C 4.8556567558 0.5185066252 -1.8285080214
C 4.6332207298 -1.0407243546 -1.8251348991
C 3.1411002516 -1.1443120145 -1.3173078305
O 2.5092834577 0.0890879132 -1.8473829005
H 4.4813109531 0.7437754337 0.7261950625
H 3.8226110738 -1.5349418145 0.7962381223
H 1.8990967529 3.6708966406 2.6563414961
H 3.2155644732 2.0694171179 -1.4381144762
H 4.9864711269 0.9026195776 -2.852798555
H 5.7192723697 0.829762286 -1.2196527859
H 4.7276591635 -1.466083484 -2.8367780929
H 5.3301640499 -1.5678201878 -1.1539761528
H 2.5866902514 -2.0387823838 -1.6622270737
H 0.5260187987 3.1763926653 1.5698335746
H 1.5438093907 4.6414202996 1.1721556488
H -0.1416366297 2.1603184641 -2.2253182063
H 0.8995923735 0.8660392772 -1.4790474946
H 0.4310570037 2.3369120793 -0.5194950639
H -0.2777582343 -3.2312925007 -0.2585430453
H -1.0985413542 -4.3233728082 0.9252917772
H 0.0213087703 -2.2792889332 2.5827352239
H 0.6495140012 -3.9602393798 2.398269757
$end

$rem
JOBTYPE                   OPT
METHOD                    B3LYP
DFT_D                     d3_op
BASIS                     STO-3G
GEOM_OPT_MAX_CYCLES       100
GEOM_OPT_TOL_GRADIENT     300
GEOM_OPT_TOL_DISPLACEMENT 1200
GEOM_OPT_TOL_ENERGY       100
SYMMETRY                  False
THRESH                    12
SCF_CONVERGENCE           8
MAX_SUB_FILE_NUM          128
MEM_STATIC                400
MEM_TOTAL                 4000
$end
--------------------------------------------------------------
 Adding empirical dispersion correction 
 ----------------------------------------------------------------
 Doing -D3(op) with
 s6 =   1.00000
 s8 =   0.78311
 a1 =   0.30000
 a2 =   4.25000
 n  =  10.00000
 -D3 energy without 3body term =     -0.0769679551 hartrees
 ----------------------------------------------------------------
             Standard Nuclear Orientation (Angstroms)
    I     Atom           X                Y                Z
 ----------------------------------------------------------------
    1      O       1.9241734060     1.0456483033     2.2606377319
    2      C       2.5269818703     1.4441416595     1.2402835010
    3      C       3.4713786861     0.5810016255     0.3251462624
    4      C       3.1057504531    -0.9584872247     0.2900084270
    5      C       1.6614089544    -1.3211435751     0.7912527559
    6      O       1.7497285675    -2.6159280015     1.3960334014
    7      C       0.4382142898    -3.0565431993     1.9199842972
    8      C      -0.6819193124    -3.3492653785     0.8410627703
    9      O      -1.8162536230    -2.4071475647     0.9424240825
   10      C      -2.0140071889    -1.6928328324    -0.2946256225
   11      C      -3.2394256375    -0.7466941816    -0.0506523115
   12      C      -2.9661489893     0.6147929029     0.7063256634
   13      C      -1.5448266354     1.2436012223     0.4609209123
   14      O      -0.9793229371     2.0802044817     1.2044190238
   15      O       2.4870990843     2.7830320475     0.7512240029
   16      O      -1.1293207898     0.8532420790    -0.8346129353
   17      O      -1.3619174223    -1.9086649846    -1.3372999295
   18      C       0.1017296216     1.5446008255    -1.2798475123
   19      C      -4.0509038759    -0.2520803853    -1.3270124191
   20      C      -5.5603398759    -0.1548165704    -0.8763821365
   21      C      -5.4757324899     1.0526410061     0.1319608354
   22      C      -3.9880031238     1.5464871769    -0.0914358320
   23      O      -3.6913101391     1.1750925726    -1.4945550318
   24      H      -3.9182468849    -1.3427459105     0.5872928270
   25      H      -3.1737714610     0.5548767503     1.7884316186
   26      H      -3.8504699931    -0.8172832543    -2.2578283302
   27      H      -6.2014382391     0.0893886567    -1.7388455327
   28      H      -5.9296055757    -1.0816188939    -0.4091710353
   29      H      -6.1916072564     1.8494473978    -0.1242113446
   30      H      -5.6512485381     0.7437724783     1.1751990621
   31      H      -3.8276949121     2.6310226167     0.0659459934
   32      O       0.5938400176    -0.6908759660     0.6483108188
   33      C       1.5573558983     3.5871412748     1.5881942048
   34      C       3.4934903483     0.9468866499    -1.2184589036
   35      C       4.8614256374     0.4420244853    -1.8153374062
   36      C       4.6403013195    -1.1172335667    -1.7927813611
   37      C       3.1492542575    -1.2159198028    -1.2808419681
   38      O       2.5153803232     0.0105014339    -1.8244799066
   39      H       4.4918394193     0.6976975863     0.7371958367
   40      H       3.8351833544    -1.5805474820     0.8359180716
   41      H       1.9109194819     3.6457194259     2.6370256977
   42      H       3.2207952919     1.9961834709    -1.4404306325
   43      H       4.9899347488     0.8138968964    -2.8444256314
   44      H       5.7259579505     0.7612826332    -1.2119512716
   45      H       4.7331363892    -1.5546519038    -2.7994182403
   46      H       5.3389838496    -1.6356522540    -1.1166904956
   47      H       2.5949259914    -2.1149244468    -1.6139002179
   48      H       0.5361543085     3.1370672028     1.5592175759
   49      H       1.5519466661     4.5980334296     1.1419706927
   50      H      -0.1379988413     2.0748798564    -2.2221344528
   51      H       0.9057559999     0.7905169613    -1.4623817227
   52      H       0.4378491216     2.2724422280    -0.5196761923
   53      H      -0.2658000237    -3.2927958905    -0.1904045606
   54      H      -1.0833749980    -4.3712266140     1.0080726194
   55      H       0.0379719341    -2.3064464702     2.6386326409
   56      H       0.6672250747    -3.9889823516     2.4731720189
 ----------------------------------------------------------------
 Molecular Point Group                 C1    NOp =  1
 Largest Abelian Subgroup              C1    NOp =  1
 Nuclear Repulsion Energy =  3383.0390180467 hartrees
 There are      113 alpha and      113 beta electrons
 Requested basis set is STO-3G
 There are 86 shells and 176 basis functions

 Total QAlloc Memory Limit   4000 MB
 Mega-Array Size       392 MB
 MEM_STATIC part       400 MB
 A cutoff of  1.0D-12 yielded   2521 shell pairs
 There are     12292 function pairs
 
 -------------------------------------------------------
 OpenMP Integral Computing Module                       
 Release: version 1.0, May 2013, Q-Chem Inc. Pittsburgh 
 -------------------------------------------------------
 Integral Job Info:
 Integral job number is                      11
 Integral operator is                         1
 short-range coefficients                     0
 long-range coefficients              100000000
 Omega coefficients                           0
 if combine SR and LR in K                    0
 Integral screening is                        0
 Integral computing path is                   2
 max size of driver memory is            800000
 size of driver memory is                 45569
 size of scratch memory is              1046100
 max col of scratch BK array                289
 max len of scratch array in speh3           22
 max len of scratch index in speh4            8
 max int batch size is                      520
 min int batch size is                       52
 fixed nKL is                                52
 max L of basis functions is                  1
 order of int derivative is                   0
 number of shells is                         86
 number of basis is                         176
 number of cartesian basis is               176
 number of contracted shell pairs          2521
 number of primitive shell pairs          12382
 maxK2 (contraction) of shell pair            9
 max number of K2 of shell pair               1
 max number of CS2 of shell pair            382
 max number of PS2 of shell pair           1350
 mem total for path MDJ                   53354
 -------------------------------------------------------
 Smallest overlap matrix eigenvalue = 2.13E-01

 Scale SEOQF with 1.000000e-02/1.000000e-01/1.000000e-01

 Standard Electronic Orientation quadrupole field applied
 Nucleus-field energy     =     0.0000000197 hartrees
 Guess from superposition of atomic densities
 Warning:  Energy on first SCF cycle will be non-variational
 A restricted hybrid HF-DFT SCF calculation will be
 performed using Pulay DIIS extrapolation
 Exchange:     0.2000 Hartree-Fock + 0.0800 Slater + 0.7200 B88
 Correlation:  0.1900 VWN1RPA + 0.8100 LYP
 Using SG-1 standard quadrature grid
 Dispersion:   Grimme D3
 SCF converges when DIIS error is below 1.0E-08
 using 48 threads for integral computing
 -------------------------------------------------------
 OpenMP Integral computing Module                
 Release: version 1.0, May 2013, Q-Chem Inc. Pittsburgh 
 -------------------------------------------------------
 -------------------------------------------------------
 OpenMP BLAS3 based DFT computing Module                
 Release: version 1.0, May 2013, Q-Chem Inc. Pittsburgh 
 -------------------------------------------------------
 ---------------------------------------
  Cycle       Energy         DIIS Error
 ---------------------------------------
    1   -1507.6649223731      7.47E-02
    2   -1509.7628480973      1.02E-02
    3   -1507.6337573389      2.57E-02
    4   -1510.1999224428      4.37E-03
    5   -1510.2792852284      1.38E-03
    6   -1510.2870835061      4.70E-04
    7   -1510.2879575483      1.65E-04
    8   -1510.2880743887      3.17E-05
    9   -1510.2880784977      1.09E-05
   10   -1510.2880789198      5.37E-06
   11   -1510.2880790404      1.68E-06
   12   -1510.2880790527      2.83E-07
   13   -1510.2880790530      1.51E-07
   14   -1510.2880790531      6.85E-08
   15   -1510.2880790531      1.66E-08
   16   -1510.2880790531      5.61E-09 Convergence criterion met
 ---------------------------------------
 SCF time:  CPU 124.84 s  wall 2.66 s
 SCF   energy in the final basis set = -1510.28807905
 Total energy in the final basis set = -1510.28807905
 
 --------------------------------------------------------------
 
                    Orbital Energies (a.u.)
 --------------------------------------------------------------
 
 Alpha MOs
 -- Occupied --
-18.931 -18.924 -18.921 -18.919 -18.904 -18.881 -18.874 -18.872
-18.865 -18.857 -10.098 -10.094 -10.092 -10.088 -10.070 -10.067
-10.064 -10.063 -10.054 -10.052 -10.040 -10.037 -10.037 -10.030
-10.029 -10.026 -10.024 -10.020 -10.016 -10.014  -1.013  -1.002
 -1.000  -0.993  -0.980  -0.962  -0.937  -0.928  -0.925  -0.919
 -0.767  -0.756  -0.727  -0.718  -0.713  -0.703  -0.691  -0.648
 -0.637  -0.617  -0.592  -0.576  -0.548  -0.542  -0.537  -0.531
 -0.511  -0.502  -0.475  -0.470  -0.460  -0.452  -0.449  -0.440
 -0.433  -0.426  -0.425  -0.416  -0.405  -0.399  -0.391  -0.386
 -0.383  -0.375  -0.369  -0.359  -0.359  -0.356  -0.346  -0.339
 -0.337  -0.335  -0.331  -0.326  -0.323  -0.319  -0.316  -0.314
 -0.305  -0.300  -0.299  -0.296  -0.291  -0.287  -0.275  -0.273
 -0.264  -0.255  -0.243  -0.241  -0.239  -0.227  -0.224  -0.182
 -0.166  -0.165  -0.162  -0.153  -0.151  -0.147  -0.141  -0.139
 -0.133
 -- Virtual --
  0.099   0.108   0.113   0.116   0.228   0.239   0.251   0.255
  0.264   0.274   0.282   0.293   0.305   0.315   0.322   0.330
  0.338   0.343   0.350   0.354   0.357   0.364   0.368   0.371
  0.375   0.377   0.387   0.399   0.405   0.408   0.410   0.413
  0.413   0.418   0.422   0.430   0.433   0.437   0.441   0.442
  0.450   0.453   0.455   0.459   0.461   0.466   0.469   0.475
  0.484   0.486   0.494   0.497   0.503   0.509   0.518   0.536
  0.544   0.549   0.559   0.642   0.659   0.665   0.671
 --------------------------------------------------------------
 
          Ground-State Mulliken Net Atomic Charges

     Atom                 Charge (a.u.)
  ----------------------------------------
      1 O                    -0.211593
      2 C                     0.210961
      3 C                    -0.080480
      4 C                    -0.078827
      5 C                     0.215644
      6 O                    -0.174744
      7 C                    -0.051023
      8 C                    -0.056800
      9 O                    -0.176771
     10 C                     0.221801
     11 C                    -0.077349
     12 C                    -0.074316
     13 C                     0.223915
     14 O                    -0.227490
     15 O                    -0.176196
     16 O                    -0.159300
     17 O                    -0.206450
     18 C                    -0.148955
     19 C                     0.026250
     20 C                    -0.141607
     21 C                    -0.145461
     22 C                     0.024006
     23 O                    -0.186250
     24 H                     0.082431
     25 H                     0.085869
     26 H                     0.087956
     27 H                     0.076667
     28 H                     0.072083
     29 H                     0.077083
     30 H                     0.073202
     31 H                     0.081880
     32 O                    -0.209045
     33 C                    -0.146262
     34 C                     0.024952
     35 C                    -0.142263
     36 C                    -0.143897
     37 C                     0.027270
     38 O                    -0.184840
     39 H                     0.083900
     40 H                     0.088653
     41 H                     0.081044
     42 H                     0.095586
     43 H                     0.079940
     44 H                     0.075423
     45 H                     0.080214
     46 H                     0.075676
     47 H                     0.087241
     48 H                     0.119673
     49 H                     0.080999
     50 H                     0.076522
     51 H                     0.113018
     52 H                     0.085948
     53 H                     0.099692
     54 H                     0.080850
     55 H                     0.095547
     56 H                     0.088023
  ----------------------------------------
  Sum of atomic charges =    -0.000000

 -----------------------------------------------------------------
                    Cartesian Multipole Moments
 -----------------------------------------------------------------
    Charge (ESU x 10^10)
                -0.0000
    Dipole Moment (Debye)
         X       1.1411      Y      -1.5419      Z       0.5108
       Tot       1.9851
    Quadrupole Moments (Debye-Ang)
        XX    -136.7588     XY       0.8984     YY    -151.2859
        XZ      -6.0785     YZ      -1.9895     ZZ    -165.6035
    Octopole Moments (Debye-Ang^2)
       XXX       7.6734    XXY      -3.1706    XYY      -0.6045
       YYY      -9.0389    XXZ      -0.3051    XYZ      -0.1060
       YYZ      13.6014    XZZ       7.4241    YZZ      -5.9064
       ZZZ       7.1113
    Hexadecapole Moments (Debye-Ang^3)
      XXXX   -8558.2944   XXXY      -2.8728   XXYY   -2035.8596
      XYYY      39.3031   YYYY   -2930.5664   XXXZ       9.5499
      XXYZ      44.4687   XYYZ      11.1360   YYYZ     -21.0886
      XXZZ   -1772.3558   XYZZ      26.4563   YYZZ    -758.6471
      XZZZ      16.1496   YZZZ     -10.6052   ZZZZ   -1603.4606
 -----------------------------------------------------------------
 Calculating analytic gradient of the SCF energy
 Gradient of SCF Energy
            1           2           3           4           5           6
    1  -0.0017437   0.0029405  -0.0037622   0.0031901  -0.0009350  -0.0000698
    2  -0.0006193   0.0007917   0.0005222  -0.0009632  -0.0002514   0.0021253
    3  -0.0012350   0.0023305  -0.0065010   0.0073403  -0.0027828   0.0014908
            7           8           9          10          11          12
    1   0.0044635  -0.0025385  -0.0024911  -0.0012445   0.0023921  -0.0005962
    2  -0.0029762   0.0030663  -0.0027064  -0.0020974   0.0064699  -0.0029007
    3  -0.0046391   0.0060777  -0.0025118   0.0017977  -0.0077116   0.0062684
           13          14          15          16          17          18
    1   0.0013944  -0.0011219   0.0000015  -0.0000114   0.0000117  -0.0000133
    2  -0.0025407   0.0019981  -0.0000417   0.0000608  -0.0000052  -0.0000026
    3   0.0013030  -0.0013428  -0.0000067   0.0000323  -0.0000049   0.0000323
           19          20          21          22          23          24
    1   0.0000058  -0.0000322   0.0000148   0.0000500  -0.0000095  -0.0000062
    2  -0.0000282  -0.0000073   0.0000551  -0.0000531   0.0000422   0.0000092
    3  -0.0000180  -0.0000298  -0.0000107  -0.0000334   0.0000147  -0.0000045
           25          26          27          28          29          30
    1   0.0000028   0.0000088   0.0000000   0.0000027   0.0000078  -0.0000074
    2  -0.0000163   0.0000091   0.0000121  -0.0000004   0.0000028  -0.0000182
    3   0.0000001  -0.0000153  -0.0000072  -0.0000129  -0.0000056  -0.0000166
           31          32          33          34          35          36
    1  -0.0000038  -0.0000065  -0.0000309   0.0000110  -0.0000185   0.0000127
    2  -0.0000022  -0.0000141   0.0000410   0.0000903  -0.0000240   0.0000247
    3   0.0000009  -0.0000061   0.0000292   0.0000548  -0.0000358   0.0000331
           37          38          39          40          41          42
    1   0.0000267   0.0000296   0.0000073   0.0000093   0.0000011   0.0000063
    2  -0.0000253  -0.0000061  -0.0000171   0.0000055  -0.0000119  -0.0000023
    3   0.0000256   0.0000150   0.0000123   0.0000010   0.0000126  -0.0000009
           43          44          45          46          47          48
    1   0.0000250   0.0000128  -0.0000040   0.0000023   0.0000031  -0.0000040
    2   0.0000205   0.0000028   0.0000171   0.0000063   0.0000110  -0.0000190
    3   0.0000164   0.0000240   0.0000081   0.0000191  -0.0000134   0.0000123
           49          50          51          52          53          54
    1   0.0000020   0.0000005   0.0000192  -0.0000006   0.0000039  -0.0000095
    2  -0.0000050   0.0000050  -0.0000015  -0.0000109  -0.0000109  -0.0000050
    3   0.0000065  -0.0000038   0.0000147   0.0000066  -0.0000046  -0.0000170
           55          56
    1   0.0000038  -0.0000024
    2  -0.0000009  -0.0000047
    3   0.0000060  -0.0000144
 Max gradient component =       7.712E-03
 RMS gradient           =       1.657E-03
 Gradient time:  CPU 33.26 s  wall 0.71 s
 Geometry Optimization Parameters
   NAtoms,    NIC,     NZ,  NCons,   NDum,   NFix, NCnnct, MaxDiis
       56     458       0       0       0       0       0       0


** GEOMETRY OPTIMIZATION IN DELOCALIZED INTERNAL COORDINATES **
   Searching for a Minimum

   Optimization Cycle:   1

                       Coordinates (Angstroms)
     ATOM                X               Y               Z
      1  O         1.9241734060    1.0456483033    2.2606377319
      2  C         2.5269818703    1.4441416595    1.2402835010
      3  C         3.4713786861    0.5810016255    0.3251462624
      4  C         3.1057504531   -0.9584872247    0.2900084270
      5  C         1.6614089544   -1.3211435751    0.7912527559
      6  O         1.7497285675   -2.6159280015    1.3960334014
      7  C         0.4382142898   -3.0565431993    1.9199842972
      8  C        -0.6819193124   -3.3492653785    0.8410627703
      9  O        -1.8162536230   -2.4071475647    0.9424240825
     10  C        -2.0140071889   -1.6928328324   -0.2946256225
     11  C        -3.2394256375   -0.7466941816   -0.0506523115
     12  C        -2.9661489893    0.6147929029    0.7063256634
     13  C        -1.5448266354    1.2436012223    0.4609209123
     14  O        -0.9793229371    2.0802044817    1.2044190238
     15  O         2.4870990843    2.7830320475    0.7512240029
     16  O        -1.1293207898    0.8532420790   -0.8346129353
     17  O        -1.3619174223   -1.9086649846   -1.3372999295
     18  C         0.1017296216    1.5446008255   -1.2798475123
     19  C        -4.0509038759   -0.2520803853   -1.3270124191
     20  C        -5.5603398759   -0.1548165704   -0.8763821365
     21  C        -5.4757324899    1.0526410061    0.1319608354
     22  C        -3.9880031238    1.5464871769   -0.0914358320
     23  O        -3.6913101391    1.1750925726   -1.4945550318
     24  H        -3.9182468849   -1.3427459105    0.5872928270
     25  H        -3.1737714610    0.5548767503    1.7884316186
     26  H        -3.8504699931   -0.8172832543   -2.2578283302
     27  H        -6.2014382391    0.0893886567   -1.7388455327
     28  H        -5.9296055757   -1.0816188939   -0.4091710353
     29  H        -6.1916072564    1.8494473978   -0.1242113446
     30  H        -5.6512485381    0.7437724783    1.1751990621
     31  H        -3.8276949121    2.6310226167    0.0659459934
     32  O         0.5938400176   -0.6908759660    0.6483108188
     33  C         1.5573558983    3.5871412748    1.5881942048
     34  C         3.4934903483    0.9468866499   -1.2184589036
     35  C         4.8614256374    0.4420244853   -1.8153374062
     36  C         4.6403013195   -1.1172335667   -1.7927813611
     37  C         3.1492542575   -1.2159198028   -1.2808419681
     38  O         2.5153803232    0.0105014339   -1.8244799066
     39  H         4.4918394193    0.6976975863    0.7371958367
     40  H         3.8351833544   -1.5805474820    0.8359180716
     41  H         1.9109194819    3.6457194259    2.6370256977
     42  H         3.2207952919    1.9961834709   -1.4404306325
     43  H         4.9899347488    0.8138968964   -2.8444256314
     44  H         5.7259579505    0.7612826332   -1.2119512716
     45  H         4.7331363892   -1.5546519038   -2.7994182403
     46  H         5.3389838496   -1.6356522540   -1.1166904956
     47  H         2.5949259914   -2.1149244468   -1.6139002179
     48  H         0.5361543085    3.1370672028    1.5592175759
     49  H         1.5519466661    4.5980334296    1.1419706927
     50  H        -0.1379988413    2.0748798564   -2.2221344528
     51  H         0.9057559999    0.7905169613   -1.4623817227
     52  H         0.4378491216    2.2724422280   -0.5196761923
     53  H        -0.2658000237   -3.2927958905   -0.1904045606
     54  H        -1.0833749980   -4.3712266140    1.0080726194
     55  H         0.0379719341   -2.3064464702    2.6386326409
     56  H         0.6672250747   -3.9889823516    2.4731720189
   Point Group: c1    Number of degrees of freedom:   162


   Energy is  -1510.288079053


 Attempting to Generate Delocalized Internal Coordinates

162 Hessian modes will be used to form the next step
  Hessian Eigenvalues:
     0.002000    0.002000    0.002000    0.002000    0.002000    0.002712
     0.002869    0.004037    0.004121    0.004302    0.004506    0.005005
     0.005137    0.005323    0.005860    0.006764    0.006807    0.010077
     0.011440    0.012210    0.013605    0.021327    0.021510    0.024977
     0.025646    0.030553    0.030603    0.034536    0.035248    0.037260
     0.038961    0.041566    0.041992    0.042394    0.043524    0.044167
     0.046453    0.048131    0.048579    0.050842    0.051006    0.054185
     0.054570    0.055037    0.055528    0.055743    0.056319    0.056503
     0.056819    0.058520    0.060055    0.060636    0.060920    0.062738
     0.063717    0.064527    0.064541    0.069840    0.070425    0.073310
     0.073584    0.090645    0.092117    0.092818    0.093312    0.096231
     0.097770    0.098253    0.099253    0.102473    0.103587    0.111143
     0.111905    0.114319    0.118033    0.122531    0.123769    0.138421
     0.141118    0.157073    0.157941    0.160000    0.160000    0.160000
     0.160000    0.160000    0.160000    0.165161    0.165191    0.217153
     0.219792    0.220771    0.221415    0.229422    0.229461    0.237852
     0.237901    0.238930    0.240470    0.242314    0.245806    0.247686
     0.249319    0.249516    0.249923    0.250000    0.250000    0.250000
     0.250000    0.250000    0.250000    0.250000    0.250000    0.250592
     0.252057    0.254528    0.257489    0.257836    0.259191    0.262331
     0.290548    0.292544    0.305074    0.307370    0.318364    0.319359
     0.322141    0.322598    0.325351    0.327731    0.328011    0.328599
     0.328655    0.328729    0.328908    0.329540    0.329581    0.330363
     0.331341    0.331565    0.333011    0.333308    0.334546    0.334578
     0.334813    0.334907    0.335016    0.335111    0.335183    0.335318
     0.337668    0.345195    0.346340    0.347960    0.392992    0.407330
     0.415735    0.431566    0.817801    0.831191    0.837604    0.839998

 Minimum Search - Taking Simple RFO Step
 Searching for Lamda that Minimizes Along All modes
 Value Taken    Lamda =  -0.01646946
 Calculated Step too Large.  Step scaled by  0.347360
 Step Taken.  Stepsize is  0.300000

                             Maximum     Tolerance    Cnvgd?
         Gradient           0.012226      0.000300      NO
         Displacement       0.171366      0.001200      NO
         Energy change     *********      0.000001      NO


 New Cartesian Coordinates Obtained by Inverse Iteration

 Displacement from previous Coordinates is:  6.266850
 Adding empirical dispersion correction 
 ----------------------------------------------------------------
 Doing -D3(op) with
 s6 =   1.00000
 s8 =   0.78311
 a1 =   0.30000
 a2 =   4.25000
 n  =  10.00000
 -D3 energy without 3body term =     -0.0706432540 hartrees
 ----------------------------------------------------------------
             Standard Nuclear Orientation (Angstroms)
    I     Atom           X                Y                Z
 ----------------------------------------------------------------
    1      O       2.3058526778     0.9076694706     2.5729475116
    2      C       2.8750544373     1.3618313279     1.5565643821
    3      C       3.6918001417     0.5286449448     0.5015230250
    4      C       3.1826803554    -0.9584112753     0.3192827537
    5      C       1.7392269378    -1.2504266847     0.8670635222
    6      O       1.7613463432    -2.5806782633     1.3961915028
    7      C       0.4427302164    -2.9635606532     1.9469664000
    8      C      -0.7011701492    -3.2440392653     0.8899385328
    9      O      -1.8078539835    -2.2695575354     0.9910726401
   10      C      -2.0944734783    -1.6701483940    -0.2888608900
   11      C      -3.3363383449    -0.7434950764    -0.0533793745
   12      C      -3.0558224469     0.7296651834     0.4499641657
   13      C      -1.6987161574     1.3575414948    -0.0396989638
   14      O      -1.0878535920     2.3007348433     0.5168118454
   15      O       2.9309899263     2.7449437409     1.2141251224
   16      O      -1.4013352299     0.7895435100    -1.3016245504
   17      O      -1.5415912893    -2.0108166430    -1.3552753048
   18      C      -0.2485579005     1.4353461914    -1.9692952801
   19      C      -4.2943270269    -0.4788553022    -1.2970061114
   20      C      -5.7541904685    -0.3636193607    -0.7084244914
   21      C      -5.6292471464     0.9884439794     0.0905146091
   22      C      -4.1981565251     1.4915303969    -0.3634439132
   23      O      -4.0255280915     0.9159350934    -1.7171230676
   24      H      -3.9186521252    -1.2593412634     0.7326607683
   25      H      -3.1477079044     0.8318686917     1.5448406032
   26      H      -4.1600714450    -1.1747797640    -2.1477168320
   27      H      -6.4896845543    -0.2785450697    -1.5246978981
   28      H      -6.0282588504    -1.2182694290    -0.0696297351
   29      H      -6.4061691064     1.7108767450    -0.2052747262
   30      H      -5.6832834843     0.8402047356     1.1812271736
   31      H      -4.0766836924     2.5920786265    -0.3904100643
   32      O       0.7223098857    -0.5275465652     0.8406436151
   33      C       2.1298784136     3.5285113517     2.1917421828
   34      C       3.6718978010     1.0615768831    -0.9931926888
   35      C       4.9569529597     0.5108906404    -1.7197636105
   36      C       4.5944705169    -1.0161594184    -1.8528502227
   37      C       3.1269041399    -1.0429745005    -1.2692807326
   38      O       2.5835826525     0.2871449231    -1.6393591908
   39      H       4.7376321864     0.5106302850     0.8629732685
   40      H       3.8783294562    -1.6952920210     0.7553187103
   41      H       2.5475726588     3.4403183182     3.2146020588
   42      H       3.4866619606     2.1487494606    -1.0848654931
   43      H       5.0692967592     0.9837579524    -2.7084970107
   44      H       5.8753660034     0.6844401411    -1.1368377695
   45      H       4.5982846341    -1.3439471290    -2.9044287199
   46      H       5.2741082036    -1.6656049355    -1.2781126194
   47      H       2.4767352809    -1.8478713271    -1.6640468687
   48      H       1.0714091887     3.1737607353     2.1849278277
   49      H       2.1922757721     4.5792206320     1.8553517019
   50      H      -0.6020238748     1.8150243424    -2.9477971977
   51      H       0.5609521100     0.6810329318    -2.1245652837
   52      H       0.1346815803     2.2749621787    -1.3620273009
   53      H      -0.3081456268    -3.2316532802    -0.1520084972
   54      H      -1.1278429450    -4.2480937665     1.0979876536
   55      H       0.0821018640    -2.1925566343     2.6644500348
   56      H       0.6480039291    -3.8978775621     2.5062732071
 ----------------------------------------------------------------
 Molecular Point Group                 C1    NOp =  1
 Largest Abelian Subgroup              C1    NOp =  1
 Nuclear Repulsion Energy =  3301.9259456817 hartrees
 There are      113 alpha and      113 beta electrons
 Applying Cartesian multipole field
    Component          Value
    ---------          -----
     (2,0,0)        1.00000E-12
     (0,2,0)        2.00000E-11
     (0,0,2)       -3.00000E-11
 Nucleus-field energy     =     0.0000000119 hartrees
 Requested basis set is STO-3G
 There are 86 shells and 176 basis functions
 A cutoff of  1.0D-12 yielded   2429 shell pairs
 There are     11789 function pairs
 Smallest overlap matrix eigenvalue = 2.13E-01
 Guess MOs from SCF MO coefficient file
 Reading MOs from coefficient file
 Reading MOs from coefficient file
 A restricted hybrid HF-DFT SCF calculation will be
 performed using Pulay DIIS extrapolation
 Exchange:     0.2000 Hartree-Fock + 0.0800 Slater + 0.7200 B88
 Correlation:  0.1900 VWN1RPA + 0.8100 LYP
 Using SG-1 standard quadrature grid
 Dispersion:   Grimme D3
 SCF converges when DIIS error is below 1.0E-08
 Geometry optimization detected.  Setting ReadMinima to 0
 Setting SaveMinima to 0
 using 48 threads for integral computing
 -------------------------------------------------------
 OpenMP Integral computing Module                
 Release: version 1.0, May 2013, Q-Chem Inc. Pittsburgh 
 -------------------------------------------------------
 -------------------------------------------------------
 OpenMP BLAS3 based DFT computing Module                
 Release: version 1.0, May 2013, Q-Chem Inc. Pittsburgh 
 -------------------------------------------------------
 ---------------------------------------
  Cycle       Energy         DIIS Error
 ---------------------------------------
    1   -1509.9235389225      8.41E-03
    2   -1510.2678668822      1.32E-03
    3   -1510.2599424673      2.01E-03
    4   -1510.2761301804      6.88E-04
    5   -1510.2782170543      1.31E-04
    6   -1510.2782890850      5.00E-05
    7   -1510.2782989069      2.39E-05
    8   -1510.2783010878      1.00E-05
    9   -1510.2783015364      1.28E-06
   10   -1510.2783015440      7.99E-07
   11   -1510.2783015462      4.80E-07
   12   -1510.2783015473      9.32E-08
   13   -1510.2783015473      4.05E-08
   14   -1510.2783015474      1.71E-08
   15   -1510.2783015474      6.15E-09 Convergence criterion met
 ---------------------------------------
 SCF time:  CPU 110.67 s  wall 2.31 s
 SCF   energy in the final basis set = -1510.27830155
 Total energy in the final basis set = -1510.27830155
 
 --------------------------------------------------------------
 
                    Orbital Energies (a.u.)
 --------------------------------------------------------------
 
 Alpha MOs
 -- Occupied --
-18.931 -18.929 -18.922 -18.918 -18.890 -18.880 -18.873 -18.871
-18.868 -18.850 -10.096 -10.096 -10.094 -10.083 -10.069 -10.063
-10.062 -10.060 -10.057 -10.053 -10.052 -10.037 -10.036 -10.034
-10.029 -10.027 -10.022 -10.021 -10.015 -10.014  -1.011  -1.006
 -1.002  -0.992  -0.972  -0.962  -0.935  -0.930  -0.928  -0.917
 -0.763  -0.756  -0.725  -0.718  -0.711  -0.701  -0.690  -0.656
 -0.641  -0.616  -0.592  -0.575  -0.545  -0.539  -0.536  -0.530
 -0.511  -0.502  -0.476  -0.468  -0.461  -0.450  -0.447  -0.435
 -0.433  -0.427  -0.424  -0.408  -0.406  -0.399  -0.396  -0.390
 -0.386  -0.374  -0.369  -0.361  -0.358  -0.355  -0.346  -0.340
 -0.337  -0.333  -0.330  -0.325  -0.323  -0.320  -0.318  -0.312
 -0.303  -0.301  -0.299  -0.294  -0.291  -0.288  -0.275  -0.272
 -0.263  -0.255  -0.247  -0.239  -0.235  -0.227  -0.224  -0.182
 -0.172  -0.162  -0.157  -0.154  -0.151  -0.145  -0.143  -0.136
 -0.133
 -- Virtual --
  0.100   0.106   0.111   0.119   0.229   0.243   0.248   0.256
  0.264   0.273   0.285   0.293   0.305   0.315   0.325   0.331
  0.339   0.344   0.351   0.357   0.358   0.365   0.368   0.373
  0.375   0.377   0.387   0.402   0.408   0.409   0.410   0.415
  0.416   0.421   0.422   0.429   0.431   0.436   0.436   0.437
  0.441   0.443   0.452   0.454   0.456   0.461   0.468   0.470
  0.476   0.479   0.485   0.489   0.496   0.505   0.506   0.539
  0.544   0.552   0.559   0.641   0.657   0.665   0.667
 --------------------------------------------------------------
 
          Ground-State Mulliken Net Atomic Charges

     Atom                 Charge (a.u.)
  ----------------------------------------
      1 O                    -0.213368
      2 C                     0.213134
      3 C                    -0.079373
      4 C                    -0.078527
      5 C                     0.214377
      6 O                    -0.174753
      7 C                    -0.051027
      8 C                    -0.057155
      9 O                    -0.175429
     10 C                     0.219060
     11 C                    -0.077803
     12 C                    -0.075131
     13 C                     0.215210
     14 O                    -0.225264
     15 O                    -0.170908
     16 O                    -0.164078
     17 O                    -0.208112
     18 C                    -0.135301
     19 C                     0.026188
     20 C                    -0.141681
     21 C                    -0.145507
     22 C                     0.023918
     23 O                    -0.186714
     24 H                     0.083059
     25 H                     0.085410
     26 H                     0.087185
     27 H                     0.076601
     28 H                     0.072047
     29 H                     0.076847
     30 H                     0.073182
     31 H                     0.081804
     32 O                    -0.209447
     33 C                    -0.127698
     34 C                     0.024527
     35 C                    -0.142661
     36 C                    -0.144336
     37 C                     0.025031
     38 O                    -0.190822
     39 H                     0.083391
     40 H                     0.087396
     41 H                     0.087311
     42 H                     0.093398
     43 H                     0.078701
     44 H                     0.073855
     45 H                     0.078850
     46 H                     0.074231
     47 H                     0.084730
     48 H                     0.102110
     49 H                     0.089912
     50 H                     0.081618
     51 H                     0.103754
     52 H                     0.093486
     53 H                     0.099838
     54 H                     0.080705
     55 H                     0.096784
     56 H                     0.087443
  ----------------------------------------
  Sum of atomic charges =    -0.000000

 -----------------------------------------------------------------
                    Cartesian Multipole Moments
 -----------------------------------------------------------------
    Charge (ESU x 10^10)
                -0.0000
    Dipole Moment (Debye)
         X       1.2480      Y      -1.1008      Z       0.8791
       Tot       1.8821
    Quadrupole Moments (Debye-Ang)
        XX    -138.1473     XY       2.1121     YY    -151.1066
        XZ      -6.5055     YZ      -0.6220     ZZ    -163.5400
    Octopole Moments (Debye-Ang^2)
       XXX       7.2931    XXY      -1.7762    XYY       2.5410
       YYY      -5.6450    XXZ       8.9212    XYZ       5.5644
       YYZ      21.3735    XZZ      11.8414    YZZ       3.1757
       ZZZ      11.9062
    Hexadecapole Moments (Debye-Ang^3)
      XXXX   -9377.1869   XXXY    -122.4479   XXYY   -2135.1368
      XYYY     -58.1900   YYYY   -2824.4215   XXXZ    -224.5067
      XXYZ      48.2815   XYYZ     -44.5974   YYYZ     -13.2220
      XXZZ   -1980.0002   XYZZ      -5.3662   YYZZ    -753.8268
      XZZZ    -229.9551   YZZZ       1.7742   ZZZZ   -1859.5986
 -----------------------------------------------------------------
 Calculating analytic gradient of the SCF energy
 Gradient of SCF Energy
            1           2           3           4           5           6
    1  -0.0004858   0.0010460  -0.0028823   0.0029457  -0.0015017   0.0009953
    2  -0.0009224   0.0028623   0.0010255  -0.0005516  -0.0020080   0.0027242
    3  -0.0006769   0.0021597  -0.0043890   0.0059860  -0.0046869   0.0026790
            7           8           9          10          11          12
    1   0.0029202  -0.0022903  -0.0041915   0.0057871  -0.0000234   0.0009540
    2  -0.0021075   0.0030216  -0.0048271   0.0048653   0.0018746  -0.0013260
    3  -0.0049667   0.0039854  -0.0021848   0.0020172  -0.0075910   0.0069697
           13          14          15          16          17          18
    1   0.0011847  -0.0027199   0.0010836  -0.0033273  -0.0030440  -0.0013771
    2  -0.0064259   0.0043531  -0.0023115   0.0028601  -0.0024072   0.0042874
    3  -0.0084455   0.0028149  -0.0006922   0.0039326   0.0000429   0.0011257
           19          20          21          22          23          24
    1   0.0000689   0.0000357  -0.0000481  -0.0000060   0.0001843  -0.0007015
    2   0.0003370   0.0002100   0.0000137   0.0000180   0.0002742  -0.0004690
    3   0.0004626   0.0002400   0.0000360  -0.0004754   0.0001240  -0.0001686
           25          26          27          28          29          30
    1  -0.0000842   0.0002688  -0.0000391  -0.0000655   0.0001116  -0.0000461
    2  -0.0003194  -0.0000331   0.0000492   0.0001240  -0.0000278   0.0000222
    3  -0.0000670  -0.0000010   0.0000966  -0.0000859  -0.0000306  -0.0000370
           31          32          33          34          35          36
    1  -0.0000578   0.0019312   0.0021981   0.0044723  -0.0008164  -0.0003687
    2   0.0000437  -0.0008013   0.0048651   0.0009314   0.0003253   0.0007883
    3   0.0000257   0.0035439   0.0047249   0.0008543  -0.0000457  -0.0004309
           37          38          39          40          41          42
    1  -0.0008004   0.0012257   0.0000170   0.0000368   0.0011875  -0.0000753
    2  -0.0035036   0.0014213   0.0002282   0.0003880   0.0003310  -0.0002370
    3   0.0011874  -0.0006277  -0.0006513   0.0001353  -0.0009630   0.0001597
           43          44          45          46          47          48
    1  -0.0000980  -0.0002906  -0.0000274  -0.0003071  -0.0000927  -0.0040974
    2  -0.0000550   0.0000230   0.0000549  -0.0000089   0.0001195  -0.0040769
    3   0.0000460   0.0000107   0.0000392   0.0001451  -0.0001409  -0.0017879
           49          50          51          52          53          54
    1   0.0015957  -0.0006797   0.0010951  -0.0007716  -0.0003336  -0.0000707
    2  -0.0002642   0.0001261  -0.0052225  -0.0009563  -0.0000728   0.0005854
    3   0.0000969   0.0007990  -0.0036011  -0.0028343  -0.0002759   0.0010358
           55          56
    1   0.0003803  -0.0000041
    2  -0.0001818  -0.0000371
    3   0.0007634  -0.0003824
 Max gradient component =       8.445E-03
 RMS gradient           =       2.256E-03
 Gradient time:  CPU 30.78 s  wall 0.65 s
 Geometry Optimization Parameters
   NAtoms,    NIC,     NZ,  NCons,   NDum,   NFix, NCnnct, MaxDiis
       56     458       0       0       0       0       0       0

 Cartesian Hessian Update
 Hessian Updated using BFGS Update


** GEOMETRY OPTIMIZATION IN DELOCALIZED INTERNAL COORDINATES **
   Searching for a Minimum

   Optimization Cycle:   2

                       Coordinates (Angstroms)
     ATOM                X               Y               Z
      1  O         2.3058526778    0.9076694706    2.5729475116
      2  C         2.8750544373    1.3618313279    1.5565643821
      3  C         3.6918001417    0.5286449448    0.5015230250
      4  C         3.1826803554   -0.9584112753    0.3192827537
      5  C         1.7392269378   -1.2504266847    0.8670635222
      6  O         1.7613463432   -2.5806782633    1.3961915028
      7  C         0.4427302164   -2.9635606532    1.9469664000
      8  C        -0.7011701492   -3.2440392653    0.8899385328
      9  O        -1.8078539835   -2.2695575354    0.9910726401
     10  C        -2.0944734783   -1.6701483940   -0.2888608900
     11  C        -3.3363383449   -0.7434950764   -0.0533793745
     12  C        -3.0558224469    0.7296651834    0.4499641657
     13  C        -1.6987161574    1.3575414948   -0.0396989638
     14  O        -1.0878535920    2.3007348433    0.5168118454
     15  O         2.9309899263    2.7449437409    1.2141251224
     16  O        -1.4013352299    0.7895435100   -1.3016245504
     17  O        -1.5415912893   -2.0108166430   -1.3552753048
     18  C        -0.2485579005    1.4353461914   -1.9692952801
     19  C        -4.2943270269   -0.4788553022   -1.2970061114
     20  C        -5.7541904685   -0.3636193607   -0.7084244914
     21  C        -5.6292471464    0.9884439794    0.0905146091
     22  C        -4.1981565251    1.4915303969   -0.3634439132
     23  O        -4.0255280915    0.9159350934   -1.7171230676
     24  H        -3.9186521252   -1.2593412634    0.7326607683
     25  H        -3.1477079044    0.8318686917    1.5448406032
     26  H        -4.1600714450   -1.1747797640   -2.1477168320
     27  H        -6.4896845543   -0.2785450697   -1.5246978981
     28  H        -6.0282588504   -1.2182694290   -0.0696297351
     29  H        -6.4061691064    1.7108767450   -0.2052747262
     30  H        -5.6832834843    0.8402047356    1.1812271736
     31  H        -4.0766836924    2.5920786265   -0.3904100643
     32  O         0.7223098857   -0.5275465652    0.8406436151
     33  C         2.1298784136    3.5285113517    2.1917421828
     34  C         3.6718978010    1.0615768831   -0.9931926888
     35  C         4.9569529597    0.5108906404   -1.7197636105
     36  C         4.5944705169   -1.0161594184   -1.8528502227
     37  C         3.1269041399   -1.0429745005   -1.2692807326
     38  O         2.5835826525    0.2871449231   -1.6393591908
     39  H         4.7376321864    0.5106302850    0.8629732685
     40  H         3.8783294562   -1.6952920210    0.7553187103
     41  H         2.5475726588    3.4403183182    3.2146020588
     42  H         3.4866619606    2.1487494606   -1.0848654931
     43  H         5.0692967592    0.9837579524   -2.7084970107
     44  H         5.8753660034    0.6844401411   -1.1368377695
     45  H         4.5982846341   -1.3439471290   -2.9044287199
     46  H         5.2741082036   -1.6656049355   -1.2781126194
     47  H         2.4767352809   -1.8478713271   -1.6640468687
     48  H         1.0714091887    3.1737607353    2.1849278277
     49  H         2.1922757721    4.5792206320    1.8553517019
     50  H        -0.6020238748    1.8150243424   -2.9477971977
     51  H         0.5609521100    0.6810329318   -2.1245652837
     52  H         0.1346815803    2.2749621787   -1.3620273009
     53  H        -0.3081456268   -3.2316532802   -0.1520084972
     54  H        -1.1278429450   -4.2480937665    1.0979876536
     55  H         0.0821018640   -2.1925566343    2.6644500348
     56  H         0.6480039291   -3.8978775621    2.5062732071
   Point Group: c1    Number of degrees of freedom:   162


   Energy is  -1510.278301547

 Hessian Updated using BFGS Update

149 Hessian modes will be used to form the next step
  Hessian Eigenvalues:
     0.001956    0.002320    0.002711    0.002830    0.004121    0.004187
     0.004373    0.004522    0.004971    0.005214    0.005562    0.006716
     0.006765    0.009887    0.011176    0.012190    0.013583    0.021219
     0.021451    0.024599    0.025244    0.029117    0.030593    0.032129
     0.034623    0.035547    0.036088    0.038696    0.041567    0.041999
     0.042562    0.043730    0.044564    0.047278    0.048522    0.050838
     0.050988    0.054008    0.054243    0.054966    0.055241    0.055588
     0.055857    0.056341    0.056698    0.058391    0.059110    0.060566
     0.060898    0.062737    0.063716    0.064526    0.064538    0.069646
     0.070403    0.073285    0.073546    0.084567    0.090650    0.092405
     0.092825    0.094758    0.096289    0.098147    0.098257    0.100558
     0.103059    0.103729    0.111292    0.113870    0.114466    0.118059
     0.122466    0.124203    0.139480    0.141877    0.157222    0.158577
     0.160000    0.161378    0.164799    0.166208    0.216932    0.219482
     0.221000    0.229381    0.229433    0.235347    0.237871    0.237967
     0.238916    0.240472    0.242321    0.245806    0.247738    0.249319
     0.249508    0.249922    0.249998    0.250573    0.252057    0.254526
     0.257443    0.257834    0.259154    0.262281    0.290534    0.292531
     0.304961    0.307233    0.317808    0.319062    0.322141    0.322597
     0.325349    0.327727    0.328010    0.328599    0.328651    0.328729
     0.328908    0.329539    0.329580    0.330358    0.331339    0.331442
     0.333010    0.333307    0.334546    0.334578    0.334813    0.334907
     0.335016    0.335110    0.335183    0.335318    0.337630    0.345195
     0.345928    0.347753    0.391842    0.407059    0.415633    0.431526
     0.730096    0.821780    0.831191    0.837735    0.842069

 Minimum Search - Taking Simple RFO Step
 Searching for Lamda that Minimizes Along All modes
 Value Taken    Lamda =  -0.01369818
 Calculated Step too Large.  Step scaled by  0.741161
 Step Taken.  Stepsize is  0.300000

                             Maximum     Tolerance    Cnvgd?
         Gradient           0.060482      0.000300      NO
         Displacement       0.079992      0.001200      NO
         Energy change      0.009778      0.000001      NO


 New Cartesian Coordinates Obtained by Inverse Iteration

 Displacement from previous Coordinates is:  4.099899
 Adding empirical dispersion correction 
 ----------------------------------------------------------------
 Doing -D3(op) with
 s6 =   1.00000
 s8 =   0.78311
 a1 =   0.30000
 a2 =   4.25000
 n  =  10.00000
 -D3 energy without 3body term =     -0.0750690170 hartrees
 ----------------------------------------------------------------
             Standard Nuclear Orientation (Angstroms)
    I     Atom           X                Y                Z
 ----------------------------------------------------------------
    1      O       2.3457494429     0.8742311506     2.6256710581
    2      C       2.7838063122     1.3531354002     1.5570142177
    3      C       3.5394772578     0.5631006378     0.4265457775
    4      C       3.0443447128    -0.9276553621     0.2461609688
    5      C       1.6650459864    -1.2522010196     0.9215608163
    6      O       1.7539812803    -2.5797055970     1.4527376490
    7      C       0.4583963972    -2.9730682295     2.0454468902
    8      C      -0.6737150220    -3.2764165888     0.9880015551
    9      O      -1.7543951965    -2.2734623415     1.0743735154
   10      C      -2.0109355137    -1.6965110787    -0.2202599561
   11      C      -3.2389226124    -0.7428221656    -0.0361272833
   12      C      -2.9368481883     0.7428063195     0.4207089529
   13      C      -1.5187198588     1.3059270518     0.0290531072
   14      O      -0.8938572676     2.2003433473     0.6461619757
   15      O       2.7381079529     2.7374344357     1.2159325816
   16      O      -1.0896440896     0.6546033512    -1.1525061677
   17      O      -1.4284694618    -2.0543637295    -1.2652041736
   18      C       0.1934206915     1.2000102504    -1.6506943645
   19      C      -4.1311536798    -0.4932454627    -1.3325892630
   20      C      -5.6115348231    -0.3002116858    -0.8221738054
   21      C      -5.4732436253     1.0821501315    -0.0794424942
   22      C      -4.0031027980     1.5123724630    -0.4822785155
   23      O      -3.7884103441     0.8708616764    -1.7988425597
   24      H      -3.8662602002    -1.2187134208     0.7401729134
   25      H      -3.0935076689     0.8862822696     1.5035632424
   26      H      -3.9834140855    -1.2279091781    -2.1477182178
   27      H      -6.3033221363    -0.2260255565    -1.6768435543
   28      H      -5.9479077172    -1.1147238200    -0.1610348777
   29      H      -6.2069050051     1.8179039454    -0.4448178413
   30      H      -5.5853060293     0.9859927589     1.0126974280
   31      H      -3.8380738038     2.6056285342    -0.5473183545
   32      O       0.6302774795    -0.5554733331     0.9658096939
   33      C       1.9841953162     3.4807320752     2.2595547767
   34      C       3.3738629747     1.1264347759    -1.0496180865
   35      C       4.6026913056     0.6234168132    -1.8990526608
   36      C       4.2626345254    -0.9082185204    -2.0390216921
   37      C       2.8519134992    -0.9812639939    -1.3319698316
   38      O       2.2494714935     0.3426969414    -1.6186898811
   39      H       4.6123225451     0.5672720165     0.6983308675
   40      H       3.7891441970    -1.6574569914     0.6065144454
   41      H       2.4887004361     3.4143373053     3.2444099305
   42      H       3.1574074558     2.2106862454    -1.0985310493
   43      H       4.6179973454     1.1215914591    -2.8816252066
   44      H       5.5647307501     0.8050453492    -1.3940236453
   45      H       4.1819940838    -1.2116828892    -3.0948332477
   46      H       5.0034708346    -1.5546078073    -1.5415991223
   47      H       2.1865629887    -1.7921480766    -1.6871970274
   48      H       0.9479965018     3.0791900753     2.3433682654
   49      H       1.9650415337     4.5331317355     1.9230096290
   50      H       0.0331330759     1.5374937924    -2.6934341469
   51      H       0.9739116975     0.4034986122    -1.6224170152
   52      H       0.5167695782     2.0544034977    -1.0277250616
   53      H      -0.2755800976    -3.2839399293    -0.0520026145
   54      H      -1.1126558667    -4.2718807225     1.2117938288
   55      H       0.0954084793    -2.1906714543     2.7491191987
   56      H       0.6793205132    -3.8955768311     2.6183488412
 ----------------------------------------------------------------
 Molecular Point Group                 C1    NOp =  1
 Largest Abelian Subgroup              C1    NOp =  1
 Nuclear Repulsion Energy =  3369.9245385948 hartrees
 There are      113 alpha and      113 beta electrons
 Applying Cartesian multipole field
    Component          Value
    ---------          -----
     (2,0,0)        1.00000E-12
     (0,2,0)        2.00000E-11
     (0,0,2)       -3.00000E-11
 Nucleus-field energy     =     0.0000000086 hartrees
 Requested basis set is STO-3G
 There are 86 shells and 176 basis functions
 A cutoff of  1.0D-12 yielded   2491 shell pairs
 There are     12097 function pairs
 Smallest overlap matrix eigenvalue = 2.13E-01
 Guess MOs from SCF MO coefficient file
 Reading MOs from coefficient file
 Reading MOs from coefficient file
 A restricted hybrid HF-DFT SCF calculation will be
 performed using Pulay DIIS extrapolation
 Exchange:     0.2000 Hartree-Fock + 0.0800 Slater + 0.7200 B88
 Correlation:  0.1900 VWN1RPA + 0.8100 LYP
 Using SG-1 standard quadrature grid
 Dispersion:   Grimme D3
 SCF converges when DIIS error is below 1.0E-08
 Geometry optimization detected.  Setting ReadMinima to 0
 Setting SaveMinima to 0
 using 48 threads for integral computing
 -------------------------------------------------------
 OpenMP Integral computing Module                
 Release: version 1.0, May 2013, Q-Chem Inc. Pittsburgh 
 -------------------------------------------------------
 -------------------------------------------------------
 OpenMP BLAS3 based DFT computing Module                
 Release: version 1.0, May 2013, Q-Chem Inc. Pittsburgh 
 -------------------------------------------------------
 ---------------------------------------
  Cycle       Energy         DIIS Error
 ---------------------------------------
    1   -1510.2682803594      7.40E-03
    2   -1510.2246688053      1.11E-03
    3   -1510.2225833893      1.38E-03
    4   -1510.2299089073      6.14E-04
    5   -1510.2315577679      9.70E-05
    6   -1510.2315941513      3.93E-05
    7   -1510.2316006567      1.40E-05
    8   -1510.2316012791      8.88E-06
    9   -1510.2316016323      1.18E-06
   10   -1510.2316016376      7.47E-07
   11   -1510.2316016400      3.20E-07
   12   -1510.2316016404      1.12E-07
   13   -1510.2316016405      2.36E-08
   14   -1510.2316016406      1.42E-08
   15   -1510.2316016405      5.52E-09 Convergence criterion met
 ---------------------------------------
 SCF time:  CPU 109.85 s  wall 2.29 s
 SCF   energy in the final basis set = -1510.23160164
 Total energy in the final basis set = -1510.23160164
 
 --------------------------------------------------------------
 
                    Orbital Energies (a.u.)
 --------------------------------------------------------------
 
 Alpha MOs
 -- Occupied --
-18.935 -18.934 -18.934 -18.920 -18.891 -18.878 -18.874 -18.873
-18.867 -18.828 -10.101 -10.101 -10.090 -10.080 -10.079 -10.070
-10.063 -10.062 -10.057 -10.048 -10.047 -10.046 -10.045 -10.035
-10.034 -10.023 -10.017 -10.010 -10.009  -9.963  -1.018  -1.009
 -1.007  -1.000  -0.971  -0.954  -0.939  -0.933  -0.926  -0.895
 -0.783  -0.749  -0.736  -0.723  -0.712  -0.700  -0.686  -0.659
 -0.622  -0.619  -0.595  -0.572  -0.561  -0.553  -0.532  -0.524
 -0.519  -0.498  -0.481  -0.476  -0.462  -0.457  -0.449  -0.442
 -0.435  -0.421  -0.415  -0.415  -0.407  -0.399  -0.391  -0.390
 -0.381  -0.379  -0.373  -0.365  -0.361  -0.351  -0.350  -0.344
 -0.341  -0.333  -0.331  -0.328  -0.323  -0.319  -0.312  -0.311
 -0.309  -0.301  -0.295  -0.293  -0.290  -0.287  -0.282  -0.269
 -0.260  -0.255  -0.251  -0.238  -0.221  -0.212  -0.204  -0.184
 -0.176  -0.174  -0.161  -0.155  -0.149  -0.147  -0.130  -0.119
 -0.110
 -- Virtual --
  0.094   0.105   0.111   0.137   0.225   0.234   0.242   0.251
  0.264   0.274   0.292   0.299   0.303   0.309   0.325   0.329
  0.334   0.340   0.343   0.357   0.360   0.363   0.367   0.370
  0.377   0.391   0.393   0.394   0.397   0.404   0.408   0.411
  0.416   0.422   0.425   0.428   0.430   0.432   0.437   0.440
  0.442   0.449   0.450   0.452   0.466   0.474   0.476   0.478
  0.484   0.490   0.492   0.501   0.506   0.515   0.527   0.539
  0.550   0.565   0.635   0.654   0.662   0.665   0.689
 --------------------------------------------------------------
 
          Ground-State Mulliken Net Atomic Charges

     Atom                 Charge (a.u.)
  ----------------------------------------
      1 O                    -0.210878
      2 C                     0.214764
      3 C                    -0.078931
      4 C                    -0.078938
      5 C                     0.212378
      6 O                    -0.173697
      7 C                    -0.050780
      8 C                    -0.057871
      9 O                    -0.175079
     10 C                     0.221353
     11 C                    -0.077671
     12 C                    -0.076122
     13 C                     0.208163
     14 O                    -0.238091
     15 O                    -0.170034
     16 O                    -0.173464
     17 O                    -0.211060
     18 C                    -0.185513
     19 C                     0.026201
     20 C                    -0.142184
     21 C                    -0.145720
     22 C                     0.024157
     23 O                    -0.186609
     24 H                     0.081374
     25 H                     0.081126
     26 H                     0.085386
     27 H                     0.075515
     28 H                     0.070806
     29 H                     0.075206
     30 H                     0.071951
     31 H                     0.081193
     32 O                    -0.204407
     33 C                    -0.127833
     34 C                     0.031144
     35 C                    -0.141304
     36 C                    -0.142935
     37 C                     0.026400
     38 O                    -0.166854
     39 H                     0.086835
     40 H                     0.090902
     41 H                     0.086766
     42 H                     0.103037
     43 H                     0.083281
     44 H                     0.078863
     45 H                     0.083209
     46 H                     0.078597
     47 H                     0.092884
     48 H                     0.106586
     49 H                     0.090829
     50 H                     0.053412
     51 H                     0.162113
     52 H                     0.065003
     53 H                     0.099493
     54 H                     0.080323
     55 H                     0.099265
     56 H                     0.087462
  ----------------------------------------
  Sum of atomic charges =    -0.000000

 -----------------------------------------------------------------
                    Cartesian Multipole Moments
 -----------------------------------------------------------------
    Charge (ESU x 10^10)
                -0.0000
    Dipole Moment (Debye)
         X       2.8866      Y      -1.5258      Z       0.7264
       Tot       3.3449
    Quadrupole Moments (Debye-Ang)
        XX    -135.9856     XY       2.7408     YY    -151.6749
        XZ      -8.9207     YZ       0.2901     ZZ    -164.0634
    Octopole Moments (Debye-Ang^2)
       XXX      23.0136    XXY       2.8782    XYY       2.9129
       YYY      -5.6887    XXZ      -4.4138    XYZ       4.9625
       YYZ      22.9399    XZZ      15.5450    YZZ       0.4887
       ZZZ       9.7741
    Hexadecapole Moments (Debye-Ang^3)
      XXXX   -8469.8502   XXXY    -138.4165   XXYY   -1968.7450
      XYYY     -90.4354   YYYY   -2781.9134   XXXZ    -230.8879
      XXYZ      43.7042   XYYZ     -42.4827   YYYZ      -4.6153
      XXZZ   -1826.7680   XYZZ     -12.2134   YYZZ    -756.4861
      XZZZ    -236.6844   YZZZ      19.0161   ZZZZ   -1936.9343
 -----------------------------------------------------------------
 Calculating analytic gradient of the SCF energy
 Gradient of SCF Energy
            1           2           3           4           5           6
    1  -0.0000123   0.0006198   0.0002554   0.0023661  -0.0010423  -0.0008327
    2   0.0000942  -0.0007128   0.0006715  -0.0002808   0.0004486  -0.0007790
    3   0.0003151   0.0002463   0.0005709   0.0028503  -0.0029115   0.0022051
            7           8           9          10          11          12
    1   0.0019257  -0.0008871  -0.0020514   0.0058892   0.0005038   0.0007773
    2   0.0016275   0.0022640  -0.0018222   0.0016313  -0.0011720  -0.0035696
    3  -0.0041582  -0.0006425  -0.0004667   0.0023405  -0.0032772   0.0044227
           13          14          15          16          17          18
    1  -0.0022738  -0.0007166   0.0014345   0.0104396  -0.0021460   0.0602476
    2   0.0066659  -0.0014351  -0.0005780  -0.0100200  -0.0002758  -0.0098704
    3  -0.0023125   0.0000999  -0.0003363  -0.0036707   0.0004696   0.0065555
           19          20          21          22          23          24
    1  -0.0004035  -0.0000654   0.0002542  -0.0003999  -0.0008971  -0.0013507
    2   0.0001832  -0.0000741  -0.0004659   0.0016006   0.0013156   0.0000428
    3   0.0009346   0.0001814  -0.0000792  -0.0018721   0.0002285  -0.0003125
           25          26          27          28          29          30
    1   0.0010858   0.0003779  -0.0000071  -0.0000134   0.0002416  -0.0000066
    2  -0.0003089   0.0001305   0.0001620   0.0000131   0.0000988  -0.0001076
    3  -0.0003103  -0.0000413   0.0000485  -0.0002223  -0.0000244   0.0000319
           31          32          33          34          35          36
    1  -0.0001798   0.0004344   0.0017498  -0.0032591   0.0018614   0.0012276
    2   0.0001616  -0.0015514   0.0036594  -0.0078192   0.0006770   0.0001571
    3   0.0001888   0.0024008   0.0030650  -0.0046796   0.0011751  -0.0001306
           37          38          39          40          41          42
    1  -0.0083910  -0.1187563   0.0003895   0.0000216   0.0005875   0.0005994
    2   0.0070112   0.0408254   0.0001863   0.0008907   0.0004630  -0.0001642
    3   0.0008773  -0.0000782  -0.0000383   0.0012419  -0.0007094   0.0003989
           43          44          45          46          47          48
    1  -0.0000394   0.0003006   0.0000413   0.0003184   0.0004972  -0.0026391
    2  -0.0000543  -0.0003971  -0.0000730   0.0000683  -0.0003934  -0.0030274
    3   0.0001239  -0.0003881   0.0000269  -0.0001888   0.0001364   0.0000781
           49          50          51          52          53          54
    1   0.0011607   0.0017888   0.0475741   0.0014867  -0.0003007   0.0004861
    2  -0.0000520  -0.0022904  -0.0243547   0.0007492  -0.0003378   0.0001370
    3   0.0001117  -0.0011837  -0.0038648  -0.0008001  -0.0002434   0.0008310
           55          56
    1   0.0005331  -0.0008053
    2   0.0003026  -0.0002510
    3   0.0009854  -0.0001993
 Max gradient component =       1.188E-01
 RMS gradient           =       1.174E-02
 Gradient time:  CPU 33.66 s  wall 0.74 s
 Geometry Optimization Parameters
   NAtoms,    NIC,     NZ,  NCons,   NDum,   NFix, NCnnct, MaxDiis
       56     458       0       0       0       0       0       0

 Cartesian Hessian Update
 Hessian Updated using BFGS Update


** GEOMETRY OPTIMIZATION IN DELOCALIZED INTERNAL COORDINATES **
   Searching for a Minimum

   Optimization Cycle:   3

                       Coordinates (Angstroms)
     ATOM                X               Y               Z
      1  O         2.3457494429    0.8742311506    2.6256710581
      2  C         2.7838063122    1.3531354002    1.5570142177
      3  C         3.5394772578    0.5631006378    0.4265457775
      4  C         3.0443447128   -0.9276553621    0.2461609688
      5  C         1.6650459864   -1.2522010196    0.9215608163
      6  O         1.7539812803   -2.5797055970    1.4527376490
      7  C         0.4583963972   -2.9730682295    2.0454468902
      8  C        -0.6737150220   -3.2764165888    0.9880015551
      9  O        -1.7543951965   -2.2734623415    1.0743735154
     10  C        -2.0109355137   -1.6965110787   -0.2202599561
     11  C        -3.2389226124   -0.7428221656   -0.0361272833
     12  C        -2.9368481883    0.7428063195    0.4207089529
     13  C        -1.5187198588    1.3059270518    0.0290531072
     14  O        -0.8938572676    2.2003433473    0.6461619757
     15  O         2.7381079529    2.7374344357    1.2159325816
     16  O        -1.0896440896    0.6546033512   -1.1525061677
     17  O        -1.4284694618   -2.0543637295   -1.2652041736
     18  C         0.1934206915    1.2000102504   -1.6506943645
     19  C        -4.1311536798   -0.4932454627   -1.3325892630
     20  C        -5.6115348231   -0.3002116858   -0.8221738054
     21  C        -5.4732436253    1.0821501315   -0.0794424942
     22  C        -4.0031027980    1.5123724630   -0.4822785155
     23  O        -3.7884103441    0.8708616764   -1.7988425597
     24  H        -3.8662602002   -1.2187134208    0.7401729134
     25  H        -3.0935076689    0.8862822696    1.5035632424
     26  H        -3.9834140855   -1.2279091781   -2.1477182178
     27  H        -6.3033221363   -0.2260255565   -1.6768435543
     28  H        -5.9479077172   -1.1147238200   -0.1610348777
     29  H        -6.2069050051    1.8179039454   -0.4448178413
     30  H        -5.5853060293    0.9859927589    1.0126974280
     31  H        -3.8380738038    2.6056285342   -0.5473183545
     32  O         0.6302774795   -0.5554733331    0.9658096939
     33  C         1.9841953162    3.4807320752    2.2595547767
     34  C         3.3738629747    1.1264347759   -1.0496180865
     35  C         4.6026913056    0.6234168132   -1.8990526608
     36  C         4.2626345254   -0.9082185204   -2.0390216921
     37  C         2.8519134992   -0.9812639939   -1.3319698316
     38  O         2.2494714935    0.3426969414   -1.6186898811
     39  H         4.6123225451    0.5672720165    0.6983308675
     40  H         3.7891441970   -1.6574569914    0.6065144454
     41  H         2.4887004361    3.4143373053    3.2444099305
     42  H         3.1574074558    2.2106862454   -1.0985310493
     43  H         4.6179973454    1.1215914591   -2.8816252066
     44  H         5.5647307501    0.8050453492   -1.3940236453
     45  H         4.1819940838   -1.2116828892   -3.0948332477
     46  H         5.0034708346   -1.5546078073   -1.5415991223
     47  H         2.1865629887   -1.7921480766   -1.6871970274
     48  H         0.9479965018    3.0791900753    2.3433682654
     49  H         1.9650415337    4.5331317355    1.9230096290
     50  H         0.0331330759    1.5374937924   -2.6934341469
     51  H         0.9739116975    0.4034986122   -1.6224170152
     52  H         0.5167695782    2.0544034977   -1.0277250616
     53  H        -0.2755800976   -3.2839399293   -0.0520026145
     54  H        -1.1126558667   -4.2718807225    1.2117938288
     55  H         0.0954084793   -2.1906714543    2.7491191987
     56  H         0.6793205132   -3.8955768311    2.6183488412
   Point Group: c1    Number of degrees of freedom:   162


   Energy is  -1510.231601640

 Hessian Updated using BFGS Update

152 Hessian modes will be used to form the next step
  Hessian Eigenvalues:
     0.001546    0.002140    0.002470    0.002695    0.003040    0.003969
     0.004124    0.004397    0.004515    0.004842    0.005108    0.006337
     0.006607    0.006911    0.009432    0.012118    0.013225    0.015676
     0.021308    0.021731    0.024638    0.026179    0.029583    0.030838
     0.030950    0.034714    0.035257    0.038314    0.040372    0.041488
     0.041795    0.043512    0.043900    0.045564    0.048148    0.049920
     0.050937    0.051047    0.053441    0.054218    0.054974    0.055172
     0.055576    0.055922    0.056356    0.056807    0.058329    0.058780
     0.060678    0.060897    0.062740    0.063717    0.064525    0.064538
     0.069655    0.070346    0.073289    0.073524    0.085814    0.090631
     0.092260    0.092831    0.093903    0.096174    0.096931    0.098254
     0.099267    0.102471    0.103574    0.110731    0.113809    0.114416
     0.118163    0.121579    0.122938    0.139469    0.142136    0.153721
     0.157429    0.159647    0.160000    0.160043    0.164864    0.166257
     0.202773    0.217401    0.219809    0.223016    0.229389    0.229615
     0.237694    0.237880    0.238927    0.240389    0.240637    0.242384
     0.245816    0.247832    0.249319    0.249519    0.249923    0.250000
     0.250563    0.252057    0.254524    0.257445    0.257832    0.259145
     0.262249    0.290546    0.292541    0.304734    0.307302    0.317528
     0.319116    0.322141    0.322597    0.325350    0.327728    0.328010
     0.328599    0.328652    0.328729    0.328908    0.329539    0.329580
     0.330359    0.331340    0.331469    0.333011    0.333307    0.334546
     0.334578    0.334813    0.334907    0.335016    0.335110    0.335183
     0.335318    0.337636    0.344746    0.345943    0.347589    0.392527
     0.407182    0.415687    0.431332    0.817553    0.831191    0.837590
     0.839891   18.627031

 Minimum Search - Taking Simple RFO Step
 Searching for Lamda that Minimizes Along All modes
 Value Taken    Lamda =  -0.19347624
 Step Taken.  Stepsize is  0.248233

                             Maximum     Tolerance    Cnvgd?
         Gradient           1.719019      0.000300      NO
         Displacement       0.171916      0.001200      NO
         Energy change      0.046700      0.000001      NO


 New Cartesian Coordinates Obtained by Inverse Iteration

 Displacement from previous Coordinates is:  6.923090
 Adding empirical dispersion correction 
 ----------------------------------------------------------------
 Doing -D3(op) with
 s6 =   1.00000
 s8 =   0.78311
 a1 =   0.30000
 a2 =   4.25000
 n  =  10.00000
 -D3 energy without 3body term =     -0.0744097562 hartrees
 ----------------------------------------------------------------
             Standard Nuclear Orientation (Angstroms)
    I     Atom           X                Y                Z
 ----------------------------------------------------------------
    1      O       2.1427705083     0.9779127333     2.2866575771
    2      C       2.7297523700     1.3508269060     1.2476052687
    3      C       3.6349731017     0.4643692959     0.3178523967
    4      C       3.1582190932    -1.0373877295     0.2098157891
    5      C       1.7041535748    -1.2899392019     0.7491102287
    6      O       1.7331083780    -2.5767260773     1.3794550300
    7      C       0.4154641675    -2.9607618977     1.9300258834
    8      C      -0.6588115559    -3.2594446112     0.8212446972
    9      O      -1.7429440959    -2.2594501322     0.9351248693
   10      C      -1.9993904402    -1.5555367543    -0.2907722606
   11      C      -3.2992501853    -0.7203374388    -0.0213209889
   12      C      -3.1558308229     0.7147457040     0.6435850359
   13      C      -1.7900261681     1.4709728735     0.4368088824
   14      O      -1.3034231760     2.3165093005     1.2211743891
   15      O       2.7305560698     2.6928608390     0.7598990684
   16      O      -1.1987836097     1.0768690123    -0.7857659517
   17      O      -1.3675265676    -1.7405204009    -1.3522922215
   18      C       0.0139786530     1.8873718295    -1.0145459667
   19      C      -4.1588337935    -0.3744914842    -1.3188529484
   20      C      -5.6702034565    -0.3808724337    -0.8697258286
   21      C      -5.6926230229     0.8917032188     0.0543801337
   22      C      -4.2537218016     1.5003419362    -0.2053706979
   23      O      -3.9229224125     1.0661492055    -1.5828709555
   24      H      -3.9089185270    -1.3426267554     0.6588026851
   25      H      -3.3701885359     0.6892599981     1.7258805472
   26      H      -3.9138045182    -0.9786464981    -2.2137320732
   27      H      -6.3287331709    -0.2512617083    -1.7438988945
   28      H      -5.9571141783    -1.3039015654    -0.3408867923
   29      H      -6.4757423419     1.6040648785    -0.2498971994
   30      H      -5.8416524558     0.6370869334     1.1162737121
   31      H      -4.1939706672     2.6023493785    -0.1126071018
   32      O       0.6776806976    -0.5901028207     0.6163769309
   33      C       1.8297195392     3.5303120578     1.5921980124
   34      C       3.6754090282     0.8839970037    -1.2148980803
   35      C       5.0096849471     0.3108935518    -1.8322207927
   36      C       4.6820205535    -1.2298061607    -1.8722458317
   37      C       3.1848838817    -1.2409383902    -1.3671747013
   38      O       2.6408631396     0.0419171855    -1.8583893646
   39      H       4.6617046837     0.5045587778     0.7295694318
   40      H       3.8403662471    -1.7325193852     0.7285673942
   41      H       2.1783446512     3.5786226672     2.6439425571
   42      H       3.4732236506     1.9570422103    -1.3968672044
   43      H       5.1659581260     0.7128528098    -2.8461464368
   44      H       5.8928166273     0.5469944332    -1.2170612765
   45      H       4.7479945813    -1.6328790279    -2.8953049656
   46      H       5.3410758678    -1.8218788256    -1.2169464783
   47      H       2.5678089501    -2.0844935170    -1.7332606697
   48      H       0.7937529987     3.1360825554     1.5700377071
   49      H       1.8588908019     4.5406273191     1.1449693652
   50      H      -0.0865632055     2.3897880050    -1.9970812179
   51      H       0.9071974791     1.2323555239    -1.0065519341
   52      H       0.1157287699     2.6449415171    -0.2118852813
   53      H      -0.2149033355    -3.2411159114    -0.1997627938
   54      H      -1.1094849668    -4.2598897671     0.9957394185
   55      H       0.0046027198    -2.1813780560     2.6098304519
   56      H       0.6280667066    -3.8747144778     2.5198798560
 ----------------------------------------------------------------
 Molecular Point Group                 C1    NOp =  1
 Largest Abelian Subgroup              C1    NOp =  1
 Nuclear Repulsion Energy =  3338.4361655068 hartrees
 There are      113 alpha and      113 beta electrons
 Applying Cartesian multipole field
    Component          Value
    ---------          -----
     (2,0,0)        1.00000E-12
     (0,2,0)        2.00000E-11
     (0,0,2)       -3.00000E-11
 Nucleus-field energy     =     0.0000000194 hartrees
 Requested basis set is STO-3G
 There are 86 shells and 176 basis functions
 A cutoff of  1.0D-12 yielded   2462 shell pairs
 There are     11939 function pairs
 Smallest overlap matrix eigenvalue = 2.13E-01
 Guess MOs from SCF MO coefficient file
 Reading MOs from coefficient file
 Reading MOs from coefficient file
 A restricted hybrid HF-DFT SCF calculation will be
 performed using Pulay DIIS extrapolation
[...]
      6  O         1.7588171229   -2.5793623666    1.3806629059
      7  C         0.4442137159   -2.8959931949    1.9846635113
      8  C        -0.6349500695   -3.3132721026    0.9041487016
      9  O        -1.8514298993   -2.4863465669    1.0559134044
     10  C        -1.9852796443   -1.5671230373   -0.0444870568
     11  C        -3.2925992017   -0.7486785615    0.2082332838
     12  C        -3.1047129614    0.8156523576    0.4200615671
     13  C        -1.6364096325    1.3668111487    0.3218539159
     14  O        -0.9870305627    1.8468195637    1.2821674333
     15  O         2.5469798453    2.4918236175    0.9717786951
     16  O        -1.2259181637    1.3223172006   -1.0319380425
     17  O        -1.2047397310   -1.5269768291   -1.0191357070
     18  C         0.0972419713    1.9602602592   -1.2431409725
     19  C        -4.2564398107   -0.7652678022   -1.0592236702
     20  C        -5.7066947577   -0.3698096173   -0.5721963832
     21  C        -5.5359915489    1.1783663252   -0.3456850352
     22  C        -4.0216288247    1.3807058886   -0.7515396442
     23  O        -3.8220926341    0.4070587231   -1.8472448342
     24  H        -3.7853375339   -1.1954647609    1.0895222400
     25  H        -3.4888706754    1.1092570940    1.4130004882
     26  H        -4.1956647129   -1.6863000279   -1.6706276626
     27  H        -6.4484616447   -0.5841385073   -1.3579842514
     28  H        -5.9975033418   -0.9062843317    0.3448582572
     29  H        -6.1937195986    1.7593164692   -1.0117544915
     30  H        -5.7303022489    1.4817477773    0.6953850302
     31  H        -3.7559904231    2.4010581612   -1.0886469092
     32  O         0.7139338540   -0.5492665586    0.7301910079
     33  C         1.6026613701    3.1753411720    1.8935112673
     34  C         3.7628553793    1.0515209453   -1.0213044351
     35  C         4.9601558669    0.4121104159   -1.8253063928
     36  C         4.3864361586   -1.0191720597   -2.1455182411
     37  C         2.9554256854   -0.9313988215   -1.4873066738
     38  O         2.5692653372    0.4827054515   -1.6949083732
     39  H         4.7380611678    0.2914184639    0.8381184787
     40  H         3.7968468332   -1.8469906233    0.3837927167
     41  H         1.9459846604    3.1079328365    2.9445202447
     42  H         3.7131008015    2.1567100404   -1.0211078955
     43  H         5.1543199409    0.9834231820   -2.7471116851
     44  H         5.8866016721    0.3760790308   -1.2301102388
     45  H         4.3007634347   -1.1868902003   -3.2309209129
     46  H         4.9919173155   -1.8291198150   -1.7085322880
     47  H         2.1894008702   -1.6054922391   -1.9179807393
     48  H         0.5891951006    2.7160598925    1.7914056853
     49  H         1.5801309224    4.2327747923    1.5729953804
     50  H         0.0489359984    2.4318169209   -2.2427763093
     51  H         0.9282812506    1.2114344028   -1.2357427065
     52  H         0.2918862494    2.7333899149   -0.4775770845
     53  H        -0.2277630931   -3.1635705827   -0.1207351463
     54  H        -0.9317579546   -4.3732911627    1.0382742459
     55  H         0.0507035942   -2.0236362632    2.5505589693
     56  H         0.6392933856   -3.7313184920    2.6852508828
   Point Group: c1    Number of degrees of freedom:   162


   Energy is  -1510.294617399

 Hessian Updated using BFGS Update

162 Hessian modes will be used to form the next step
  Hessian Eigenvalues:
     0.000238    0.001138    0.002056    0.002645    0.003301    0.003787
     0.004523    0.006026    0.006614    0.007929    0.010994    0.013268
     0.020922    0.021905    0.022050    0.023985    0.026454    0.028125
     0.029076    0.030740    0.031616    0.033513    0.034189    0.035728
     0.037516    0.039246    0.041218    0.042087    0.042515    0.042735
     0.043870    0.046519    0.046643    0.050480    0.051087    0.051508
     0.052184    0.053886    0.054671    0.055121    0.055770    0.055901
     0.056251    0.056833    0.057196    0.059619    0.061498    0.062504
     0.062840    0.063866    0.064615    0.064729    0.066262    0.068096
     0.070142    0.070821    0.073516    0.073715    0.083014    0.086888
     0.092534    0.093062    0.093449    0.098004    0.101664    0.102397
     0.104569    0.106000    0.106498    0.108821    0.111910    0.114987
     0.117981    0.122857    0.123784    0.136640    0.142495    0.143912
     0.158188    0.158830    0.159950    0.161061    0.163018    0.165259
     0.168397    0.172565    0.181185    0.191443    0.214207    0.218726
     0.223279    0.233287    0.237010    0.237739    0.238700    0.240440
     0.243268    0.244450    0.246256    0.246415    0.249111    0.250552
     0.251923    0.253452    0.253895    0.255391    0.258558    0.260979
     0.261156    0.263380    0.265848    0.273020    0.285375    0.292733
     0.295726    0.298800    0.306473    0.310110    0.315085    0.317830
     0.322083    0.322972    0.323655    0.325430    0.327935    0.328261
     0.328686    0.328827    0.329020    0.329154    0.329669    0.329989
     0.330723    0.331457    0.332862    0.333407    0.333986    0.334581
     0.334745    0.334862    0.334919    0.335075    0.335189    0.335231
     0.335629    0.338121    0.358203    0.359740    0.379281    0.382854
     0.409482    0.440335    0.445461    0.487459    0.675480    0.815548
     0.831873    0.838287    0.847602    1.320773    2.429980    7.550343

 Minimum Search - Taking Simple RFO Step
 Searching for Lamda that Minimizes Along All modes
 Value Taken    Lamda =   0.00000000
 Step Taken.  Stepsize is  0.003996

                             Maximum     Tolerance    Cnvgd?
         Gradient           0.000183      0.000300     YES
         Displacement       0.001543      0.001200      NO
         Energy change      0.000001      0.000001     YES

 Final energy is   -1510.29461739884     


 ******************************
 **  OPTIMIZATION CONVERGED  **
 ******************************

                       Coordinates (Angstroms)
     ATOM                X               Y               Z
      1  O         2.4975534303    0.7627102090    2.5895104340
      2  C         2.8526200016    1.1939012324    1.4695771170
      3  C         3.7198489716    0.3995280162    0.4206980891
      4  C         3.1131230777   -1.0315665201    0.0913334956
      5  C         1.7201372367   -1.2905618285    0.7550267433
      6  O         1.7588171229   -2.5793623666    1.3806629059
      7  C         0.4442137159   -2.8959931949    1.9846635113
      8  C        -0.6349500695   -3.3132721026    0.9041487016
      9  O        -1.8514298993   -2.4863465669    1.0559134044
     10  C        -1.9852796443   -1.5671230373   -0.0444870568
     11  C        -3.2925992017   -0.7486785615    0.2082332838
     12  C        -3.1047129614    0.8156523576    0.4200615671
     13  C        -1.6364096325    1.3668111487    0.3218539159
     14  O        -0.9870305627    1.8468195637    1.2821674333
     15  O         2.5469798453    2.4918236175    0.9717786951
     16  O        -1.2259181637    1.3223172006   -1.0319380425
     17  O        -1.2047397310   -1.5269768291   -1.0191357070
     18  C         0.0972419713    1.9602602592   -1.2431409725
     19  C        -4.2564398107   -0.7652678022   -1.0592236702
     20  C        -5.7066947577   -0.3698096173   -0.5721963832
     21  C        -5.5359915489    1.1783663252   -0.3456850352
     22  C        -4.0216288247    1.3807058886   -0.7515396442
     23  O        -3.8220926341    0.4070587231   -1.8472448342
     24  H        -3.7853375339   -1.1954647609    1.0895222400
     25  H        -3.4888706754    1.1092570940    1.4130004882
     26  H        -4.1956647129   -1.6863000279   -1.6706276626
     27  H        -6.4484616447   -0.5841385073   -1.3579842514
     28  H        -5.9975033418   -0.9062843317    0.3448582572
     29  H        -6.1937195986    1.7593164692   -1.0117544915
     30  H        -5.7303022489    1.4817477773    0.6953850302
     31  H        -3.7559904231    2.4010581612   -1.0886469092
     32  O         0.7139338540   -0.5492665586    0.7301910079
     33  C         1.6026613701    3.1753411720    1.8935112673
     34  C         3.7628553793    1.0515209453   -1.0213044351
     35  C         4.9601558669    0.4121104159   -1.8253063928
     36  C         4.3864361586   -1.0191720597   -2.1455182411
     37  C         2.9554256854   -0.9313988215   -1.4873066738
     38  O         2.5692653372    0.4827054515   -1.6949083732
     39  H         4.7380611678    0.2914184639    0.8381184787
     40  H         3.7968468332   -1.8469906233    0.3837927167
     41  H         1.9459846604    3.1079328365    2.9445202447
     42  H         3.7131008015    2.1567100404   -1.0211078955
     43  H         5.1543199409    0.9834231820   -2.7471116851
     44  H         5.8866016721    0.3760790308   -1.2301102388
     45  H         4.3007634347   -1.1868902003   -3.2309209129
     46  H         4.9919173155   -1.8291198150   -1.7085322880
     47  H         2.1894008702   -1.6054922391   -1.9179807393
     48  H         0.5891951006    2.7160598925    1.7914056853
     49  H         1.5801309224    4.2327747923    1.5729953804
     50  H         0.0489359984    2.4318169209   -2.2427763093
     51  H         0.9282812506    1.2114344028   -1.2357427065
     52  H         0.2918862494    2.7333899149   -0.4775770845
     53  H        -0.2277630931   -3.1635705827   -0.1207351463
     54  H        -0.9317579546   -4.3732911627    1.0382742459
     55  H         0.0507035942   -2.0236362632    2.5505589693
     56  H         0.6392933856   -3.7313184920    2.6852508828

Z-matrix Print:
$molecule
0 1
O 
C  1 1.250032
O  2 1.433152 1 124.311259
C  3 1.480964 2 110.264250 1 0.019058 0
H  4 1.107541 3 105.241358 2 -163.557572 0
H  4 1.111798 3 110.733038 2 -45.442486 0
C  2 1.564601 1 127.593664 3 177.581939 0
H  7 1.103597 2 108.473291 1 175.139447 0
C  4 1.583107 3 112.525223 2 75.838578 0
H  9 1.108930 4 110.600909 3 114.349449 0
H  9 1.112923 4 110.100945 3 -7.113601 0
O  9 1.478736 4 110.079975 3 -126.908828 0
C  12 1.440059 9 110.793218 4 109.616036 0
O  13 1.249318 12 123.957504 9 3.009119 0
C  13 1.562947 12 106.765173 9 179.901125 0
H  15 1.104119 13 106.884646 12 -6.394042 0
C  7 1.588908 2 113.648792 1 49.917411 0
H  17 1.105750 7 109.987399 2 126.033650 0
C  17 1.575837 7 112.448757 2 5.955152 0
O  19 1.251499 17 125.315865 7 52.995500 0
O  19 1.423314 17 110.186162 7 -128.084543 0
C  21 1.486111 19 109.812623 17 173.541502 0
H  22 1.105171 21 105.851687 19 168.149279 0
H  22 1.107716 21 111.318230 19 48.815999 0
H  22 1.117353 21 109.306265 19 -72.962013 0
C  17 1.583135 7 101.098412 2 -116.531223 0
H  26 1.106308 17 114.207122 7 153.893497 0
O  26 1.483897 17 103.518334 7 33.946325 0
C  28 1.480510 26 95.317674 17 -56.405584 0
H  29 1.107554 28 110.267793 26 179.825430 0
C  29 1.577573 28 103.369761 26 -56.096882 0
H  31 1.101621 29 110.427024 28 -84.099273 0
H  31 1.101626 29 111.960368 28 154.551726 0
C  31 1.574884 29 101.247709 28 34.155331 0
H  34 1.101736 31 111.429529 29 -116.602676 0
H  34 1.101752 31 112.733648 29 120.845258 0
C  15 1.589750 13 115.974492 12 116.865356 0
H  37 1.104404 15 109.894319 13 -120.300492 0
C  37 1.571412 15 116.566546 13 1.256231 0
O  39 1.254712 37 124.746131 15 -112.791736 0
O  39 1.415357 37 108.647715 15 71.627765 0
C  41 1.484025 39 112.408150 37 173.827113 0
H  42 1.105307 41 111.046276 39 -26.774895 0
H  42 1.106332 41 105.836248 39 -145.635162 0
H  42 1.118669 41 111.941582 39 95.872163 0
C  37 1.591436 15 100.555821 13 122.019117 0
H  46 1.106943 37 114.407275 15 -156.204653 0
O  46 1.479315 37 103.525616 15 -36.002037 0
C  48 1.477831 46 95.020721 37 57.151788 0
H  49 1.107163 48 110.445605 46 -179.578366 0
C  49 1.580134 48 103.625219 46 56.281056 0
H  51 1.101528 49 112.149125 48 -155.494145 0
H  51 1.101643 49 110.453331 48 83.034293 0
C  51 1.573943 49 101.010404 48 -35.107500 0
H  54 1.101646 51 112.814647 49 -119.680466 0
H  54 1.101707 51 111.526381 49 117.631128 0
$end

 
 --------------------------------------------------------------
 
                    Orbital Energies (a.u.)
 --------------------------------------------------------------
 
 Alpha MOs
 -- Occupied --
-18.932 -18.926 -18.923 -18.922 -18.901 -18.884 -18.874 -18.873
-18.861 -18.860 -10.097 -10.094 -10.090 -10.090 -10.069 -10.065
-10.064 -10.061 -10.056 -10.055 -10.037 -10.036 -10.034 -10.033
-10.030 -10.024 -10.023 -10.022 -10.017 -10.016  -1.013  -1.004
 -0.999  -0.995  -0.977  -0.965  -0.937  -0.930  -0.924  -0.921
 -0.764  -0.757  -0.726  -0.719  -0.711  -0.704  -0.693  -0.646
 -0.639  -0.617  -0.592  -0.577  -0.547  -0.540  -0.538  -0.533
 -0.509  -0.506  -0.477  -0.467  -0.462  -0.454  -0.448  -0.439
 -0.436  -0.429  -0.427  -0.413  -0.406  -0.397  -0.392  -0.387
 -0.384  -0.374  -0.367  -0.359  -0.358  -0.354  -0.344  -0.341
 -0.336  -0.336  -0.331  -0.327  -0.324  -0.322  -0.320  -0.311
 -0.305  -0.302  -0.300  -0.296  -0.291  -0.283  -0.274  -0.272
 -0.270  -0.257  -0.243  -0.242  -0.236  -0.231  -0.229  -0.181
 -0.166  -0.165  -0.163  -0.153  -0.150  -0.146  -0.141  -0.139
 -0.137
 -- Virtual --
  0.097   0.103   0.110   0.117   0.225   0.239   0.249   0.257
  0.266   0.276   0.285   0.292   0.309   0.316   0.324   0.331
  0.338   0.345   0.345   0.356   0.360   0.365   0.372   0.374
  0.376   0.378   0.385   0.403   0.405   0.407   0.409   0.413
  0.414   0.419   0.423   0.427   0.433   0.434   0.439   0.442
  0.451   0.453   0.457   0.459   0.464   0.468   0.470   0.472
  0.486   0.488   0.491   0.498   0.504   0.506   0.512   0.537
  0.544   0.551   0.556   0.647   0.653   0.657   0.670
 --------------------------------------------------------------
 
          Ground-State Mulliken Net Atomic Charges

     Atom                 Charge (a.u.)
  ----------------------------------------
      1 O                    -0.218568
      2 C                     0.210619
      3 C                    -0.079526
      4 C                    -0.079855
      5 C                     0.211866
      6 O                    -0.171682
      7 C                    -0.052052
      8 C                    -0.057757
      9 O                    -0.175145
     10 C                     0.213047
     11 C                    -0.078320
     12 C                    -0.077803
     13 C                     0.218343
     14 O                    -0.221184
     15 O                    -0.173948
     16 O                    -0.159310
     17 O                    -0.203499
     18 C                    -0.145465
     19 C                     0.026776
     20 C                    -0.143911
     21 C                    -0.144492
     22 C                     0.027532
     23 O                    -0.182190
     24 H                     0.085977
     25 H                     0.083144
     26 H                     0.082730
     27 H                     0.077123
     28 H                     0.073132
     29 H                     0.077057
     30 H                     0.073238
     31 H                     0.083861
     32 O                    -0.210558
     33 C                    -0.147183
     34 C                     0.024610
     35 C                    -0.143439
     36 C                    -0.143421
     37 C                     0.027214
     38 O                    -0.184883
     39 H                     0.083926
     40 H                     0.087183
     41 H                     0.084831
     42 H                     0.095897
     43 H                     0.079109
     44 H                     0.074561
     45 H                     0.079795
     46 H                     0.075306
     47 H                     0.089185
     48 H                     0.118662
     49 H                     0.078923
     50 H                     0.078648
     51 H                     0.116620
     52 H                     0.083427
     53 H                     0.099343
     54 H                     0.083660
     55 H                     0.100061
     56 H                     0.088786
  ----------------------------------------
  Sum of atomic charges =    -0.000000

 -----------------------------------------------------------------
                    Cartesian Multipole Moments
 -----------------------------------------------------------------
    Charge (ESU x 10^10)
                -0.0000
    Dipole Moment (Debye)
         X       0.5357      Y      -1.2381      Z       0.0847
       Tot       1.3517
    Quadrupole Moments (Debye-Ang)
        XX    -137.6279     XY      -0.3826     YY    -149.0155
        XZ      -8.3751     YZ      -0.9114     ZZ    -167.5814
    Octopole Moments (Debye-Ang^2)
       XXX      -3.7082    XXY       3.6035    XYY      -8.2404
       YYY       0.5115    XXZ      -7.0919    XYZ       1.9506
       YYZ       5.7755    XZZ       4.6029    YZZ      -4.7952
       ZZZ      -0.6620
    Hexadecapole Moments (Debye-Ang^3)
      XXXX   -8924.8797   XXXY     -76.4638   XXYY   -2043.9292
      XYYY     -36.6177   YYYY   -2716.1962   XXXZ    -101.5101
      XXYZ      49.6395   XYYZ       3.8460   YYYZ      29.7818
      XXZZ   -1906.3543   XYZZ      -6.1095   YYZZ    -729.8461
      XZZZ    -121.7111   YZZZ      46.1949   ZZZZ   -1800.7475
 -----------------------------------------------------------------
Archival summary:
1\1\vega02.cac.cornell.edu\OPT\ProcedureUnspecified\STO-3G\102026\jj585\TueJan1608:37:172018TueJan1608:37:172018\0\\#,OPT,ProcedureUnspecified,STO-3G,\\0,1\O\C,1,1.25003\O,2,1.43315,1,124.311\C,3,1.48096,2,110.264,1,0.0190578,0\H,4,1.10754,3,105.241,2,-163.558,0\H,4,1.1118,3,110.733,2,-45.4425,0\C,2,1.5646,1,127.594,3,177.582,0\H,7,1.1036,2,108.473,1,175.139,0\C,4,1.58311,3,112.525,2,75.8386,0\H,9,1.10893,4,110.601,3,114.349,0\H,9,1.11292,4,110.101,3,-7.1136,0\O,9,1.47874,4,110.08,3,-126.909,0\C,12,1.44006,9,110.793,4,109.616,0\O,13,1.24932,12,123.958,9,3.00912,0\C,13,1.56295,12,106.765,9,179.901,0\H,15,1.10412,13,106.885,12,-6.39404,0\C,7,1.58891,2,113.649,1,49.9174,0\H,17,1.10575,7,109.987,2,126.034,0\C,17,1.57584,7,112.449,2,5.95515,0\O,19,1.2515,17,125.316,7,52.9955,0\O,19,1.42331,17,110.186,7,-128.085,0\C,21,1.48611,19,109.813,17,173.542,0\H,22,1.10517,21,105.852,19,168.149,0\H,22,1.10772,21,111.318,19,48.816,0\H,22,1.11735,21,109.306,19,-72.962,0\C,17,1.58313,7,101.098,2,-116.531,0\H,26,1.10631,17,114.207,7,153.893,0\O,26,1.4839,17,103.518,7,33.9463,0\C,28,1.48051,26,95.3177,17,-56.4056,0\H,29,1.10755,28,110.268,26,179.825,0\C,29,1.57757,28,103.37,26,-56.0969,0\H,31,1.10162,29,110.427,28,-84.0993,0\H,31,1.10163,29,111.96,28,154.552,0\C,31,1.57488,29,101.248,28,34.1553,0\H,34,1.10174,31,111.43,29,-116.603,0\H,34,1.10175,31,112.734,29,120.845,0\C,15,1.58975,13,115.974,12,116.865,0\H,37,1.1044,15,109.894,13,-120.3,0\C,37,1.57141,15,116.567,13,1.25623,0\O,39,1.25471,37,124.746,15,-112.792,0\O,39,1.41536,37,108.648,15,71.6278,0\C,41,1.48403,39,112.408,37,173.827,0\H,42,1.10531,41,111.046,39,-26.7749,0\H,42,1.10633,41,105.836,39,-145.635,0\H,42,1.11867,41,111.942,39,95.8722,0\C,37,1.59144,15,100.556,13,122.019,0\H,46,1.10694,37,114.407,15,-156.205,0\O,46,1.47932,37,103.526,15,-36.002,0\C,48,1.47783,46,95.0207,37,57.1518,0\H,49,1.10716,48,110.446,46,-179.578,0\C,49,1.58013,48,103.625,46,56.2811,0\H,51,1.10153,49,112.149,48,-155.494,0\H,51,1.10164,49,110.453,48,83.0343,0\C,51,1.57394,49,101.01,48,-35.1075,0\H,54,1.10165,51,112.815,49,-119.68,0\H,54,1.10171,51,111.526,49,117.631,0\\\@

 Total job time:  142.97s(wall), 6385.92s(cpu) 
 Tue Jan 16 08:37:17 2018

        *************************************************************
        *                                                           *
        *  Thank you very much for using Q-Chem.  Have a nice day.  *
        *                                                           *
        *************************************************************


0 sent ACK to 0 
now end server 0 ... 
