mFile = /opt/software/qchem/qchem-5.0.1//bin/mpi/machines
Process 0 of 1 is on vega02.cac.cornell.edu - thread support 0
initial socket setup ...start
initial socket setup ...done 
now start server 0 ... 
vega02.cac.cornell.edu 10.84.3
Q-Chem Developer Version! Running on 10.84.3.*
                  Welcome to Q-Chem
     A Quantum Leap Into The Future Of Chemistry


 Q-Chem 5.0, Q-Chem, Inc., Pleasanton, CA (2017)

 Yihan Shao,  Zhengting Gan,  E. Epifanovsky,  A. T. B. Gilbert,  M. Wormit,  
 J. Kussmann,  A. W. Lange,  A. Behn,  Jia Deng,  Xintian Feng,  D. Ghosh,  
 M. Goldey,  P. R. Horn,  L. D. Jacobson,  I. Kaliman,  T. Kus,  A. Landau,  
 Jie Liu,  E. I. Proynov,  R. M. Richard,  R. P. Steele,  E. J. Sundstrom,  
 H. L. Woodcock III,  P. M. Zimmerman,  D. Zuev,  B. Albrecht,  E. Alguire,  
 S. A. Baeppler,  Z. Benda,  Y. A. Bernard,  E. J. Berquist,  K. B. Bravaya,  
 D. Casanova,  Chun-Min Chang,  Yunqing Chen,  A. Chien,  K. D. Closser,  
 M. P. Coons,  S. Dasgupta,  M. Diedenhofen,  Hainam Do,  R. G. Edgar,  
 Po-Tung Fang,  S. Fatehi,  Qingguo Feng,  Qinghui Ge,  A. Ghysels,  
 J. Gomes,  J. Gonthier,  A. Gunina,  M. W. D. Hanson-Heine,  
 P. H. P. Harbach,  A. W. Hauser,  J. E. Herr,  E. G. Hohenstein,  
 Z. C. Holden,  Kerwin Hui,  T.-C. Jagau,  Hyunjun Ji,  B. Kaduk,  
 K. Khistyaev,  Jaehoon Kim,  P. Klunzinger,  K. Koh,  D. Kosenkov,  
 T. Kowalczyk,  C. M. Krauter,  A. Kunitsa,  Ka Un Lao,  A. Laurent,  
 K. V. Lawler,  Joonho Lee,  D. Lefrancois,  S. Lehtola,  D. S. Levine,  
 Yi-Pei Li,  You-Sheng Lin,  Fenglai Liu,  E. Livshits,  A. Luenser,  
 P. Manohar,  E. Mansoor,  S. F. Manzer,  Shan-Ping Mao,  Yuezhi Mao,  
 N. Mardirossian,  A. V. Marenich,  L. A. Martinez-Martinez,  S. A. Maurer,  
 N. J. Mayhall,  S. C. McKenzie,  J.-M. Mewes,  A. F. Morrison,  K. Nanda,  
 T. S. Nguyen-Beck,  R. Olivares-Amaya,  J. A. Parkhill,  T. M. Perrine,  
 F. Plasser,  S. Prager,  A. Prociuk,  D. R. Rehn,  F. Rob,  M. Schneider,  
 N. Sergueev,  S. M. Sharada,  S. Sharma,  D. W. Small,  T. Stauch,  
 T. Stein,  Yu-Chuan Su,  A. J. W. Thom,  T. Tsuchimochi,  L. Vogt,  
 O. Vydrov,  M. A. Watson,  J. Wenzel,  M. de Wergifosse,  T. A. Wesolowski,  
 A. White,  J. Witte,  A. Yamada,  Jun Yang,  K. Yao,  S. Yeganeh,  
 S. R. Yost,  Zhi-Qiang You,  A. Zech,  Igor Ying Zhang,  Xing Zhang,  
 Yan Zhao,  Ying Zhu,  B. R. Brooks,  G. K. L. Chan,  C. J. Cramer,  
 M. S. Gordon,  W. J. Hehre,  A. Klamt,  M. W. Schmidt,  C. D. Sherrill,  
 D. G. Truhlar,  A. Aspuru-Guzik,  R. Baer,  A. T. Bell,  N. A. Besley,  
 Jeng-Da Chai,  A. Dreuw,  B. D. Dunietz,  T. R. Furlani,  Chao-Ping Hsu,  
 Yousung Jung,  Jing Kong,  D. S. Lambrecht,  WanZhen Liang,  C. Ochsenfeld,  
 V. A. Rassolov,  L. V. Slipchenko,  J. E. Subotnik,  T. Van Voorhis,  
 J. M. Herbert,  A. I. Krylov,  P. M. W. Gill,  M. Head-Gordon

 Contributors to earlier versions of Q-Chem not listed above: 
 R. D. Adamson,  B. Austin,  J. Baker,  G. J. O. Beran,  K. Brandhorst,  
 S. T. Brown,  E. F. C. Byrd,  A. K. Chakraborty,  C.-L. Cheng,  
 Siu Hung Chien,  D. M. Chipman,  D. L. Crittenden,  H. Dachsel,  
 R. A. DiStasio Jr.,  R. J. Doerksen,  A. D. Dutoi,  L. Fusti-Molnar,  
 W. A. Goddard III,  A. Golubeva-Zadorozhnaya,  S. R. Gwaltney,  G. Hawkins,  
 A. Heyden,  S. Hirata,  G. Kedziora,  F. J. Keil,  C. Kelley,  Jihan Kim,  
 R. A. King,  R. Z. Khaliullin,  P. P. Korambath,  W. Kurlancheek,  
 A. M. Lee,  M. S. Lee,  S. V. Levchenko,  Ching Yeh Lin,  D. Liotard,  
 R. C. Lochan,  I. Lotan,  P. E. Maslen,  N. Nair,  D. P. O'Neill,  
 D. Neuhauser,  E. Neuscamman,  C. M. Oana,  R. Olson,  B. Peters,  
 R. Peverati,  P. A. Pieniazek,  Y. M. Rhee,  J. Ritchie,  M. A. Rohrdanz,  
 E. Rosta,  N. J. Russ,  H. F. Schaefer III,  N. E. Schultz,  N. Shenvi,  
 A. C. Simmonett,  A. Sodt,  D. Stuck,  K. S. Thanthiriwatte,  V. Vanovschi,  
 Tao Wang,  A. Warshel,  C. F. Williams,  Q. Wu,  X. Xu,  W. Zhang

 Please cite Q-Chem as follows:
 Y. Shao et al., Mol. Phys. 113, 184-215 (2015)
 DOI: 10.1080/00268976.2014.952696

 Q-Chem 5.0.1 for Intel X86 EM64T Linux

 Parts of Q-Chem use Armadillo 5.200.1 (Boston Tea Smuggler).
 http://arma.sourceforge.net/

 Q-Chem begins on Tue Jan 16 08:51:41 2018  

Host: vega02.cac.cornell.edu
0

     Scratch files written to /scratch/jj585/SOT1001/1101r.save//
 Parallel job on  1  processors

Checking the input file for inconsistencies... 	...done.

--------------------------------------------------------------
User input:
--------------------------------------------------------------
$molecule
0  1
O -2.5587196402 -0.8636284631 2.3082521047
C -3.0475188706 -1.200050174 1.2069098901
C -3.813317276 -0.2519142409 0.2063182084
C -3.1733007964 1.1968401326 0.1094024836
C -1.7626805812 1.2769739234 0.7804443864
O -1.589924473 2.568079757 1.3767062243
C -0.3080537839 2.579018848 2.1219840015
C 0.8813432758 3.0674241627 1.2126359928
O 1.927155686 2.0187023455 1.2978560137
C 2.42087875 1.6425914278 0.0065691544
C 3.521241533 0.5570374073 0.2625079286
C 3.0284171036 -0.9255156883 0.5531010078
C 1.5351303724 -1.307760263 0.2467774466
O 0.8614485059 -2.1245104259 0.9213092201
O -2.9004940086 -2.493054313 0.6245863595
O 1.1526710357 -0.7566026482 -1.0037829309
O 2.0407607127 2.1450502787 -1.0716628593
C -0.0776152604 -1.4060220609 -1.5275354913
C 4.4772447481 0.3321702619 -0.9861371436
C 5.8587694272 -0.1979079297 -0.4366432706
C 5.4556127323 -1.6529862265 0.0080920632
C 3.9514633232 -1.7213640765 -0.4765972439
O 3.9178788026 -0.8537486834 -1.6735227169
H 4.1029316617 0.9094224091 1.1333907086
H 3.2357710026 -1.2136717913 1.5987383701
H 4.5293331072 1.1921984277 -1.6815165906
H 6.610804698 -0.2170669046 -1.2417969186
H 6.2437200937 0.4133578585 0.3950417563
H 6.0616942829 -2.4178298727 -0.5026738251
H 5.5423580615 -1.8031392184 1.0961642907
H 3.5854903591 -2.737230919 -0.7229207289
O -0.8600332643 0.4122399662 0.7440035568
C -1.9317364177 -3.2939505442 1.4166825846
C -3.7884747957 -0.7065122451 -1.3135162447
C -4.9860406414 0.0037281341 -2.0524665361
C -4.470707987 1.4911183794 -2.1027248415
C -3.03187401 1.3451420986 -1.4663765729
O -2.6066905142 -0.0109464169 -1.8810728638
H -4.8592140468 -0.1696708893 0.5568383017
H -3.8240584408 1.9762422414 0.5418562334
H -2.2156578654 -3.332264455 2.487080469
H -3.7003566245 -1.8000931382 -1.4573804043
H -5.1116580686 -0.4116981039 -3.0651931262
H -5.9366143239 -0.1015058039 -1.5057517468
H -4.3992852168 1.8625720435 -3.1372432733
H -5.1063592622 2.179170272 -1.5226856096
H -2.2897724948 2.0993502957 -1.7937552499
H -0.9040973593 -2.8677568247 1.3160141452
H -1.9626800692 -4.3120047484 0.987265677
H 0.1452741488 -1.7126114636 -2.5678952167
H -0.9488458803 -0.706124909 -1.5259707285
H -0.3248004553 -2.2954859165 -0.918113757
H 0.5611627365 3.1873011739 0.1541268468
H 1.30092467 4.0289529896 1.5764587953
H -0.0643438161 1.5590845418 2.4878712959
H -0.4606738552 3.2655866853 2.9782755514
$end

$rem
JOBTYPE                   OPT
METHOD                    B3LYP
DFT_D                     d3_op
BASIS                     STO-3G
GEOM_OPT_MAX_CYCLES       100
GEOM_OPT_TOL_GRADIENT     300
GEOM_OPT_TOL_DISPLACEMENT 1200
GEOM_OPT_TOL_ENERGY       100
SYMMETRY                  False
THRESH                    12
SCF_CONVERGENCE           8
MAX_SUB_FILE_NUM          128
MEM_STATIC                400
MEM_TOTAL                 4000
$end
--------------------------------------------------------------
 Adding empirical dispersion correction 
 ----------------------------------------------------------------
 Doing -D3(op) with
 s6 =   1.00000
 s8 =   0.78311
 a1 =   0.30000
 a2 =   4.25000
 n  =  10.00000
 -D3 energy without 3body term =     -0.0738113640 hartrees
 ----------------------------------------------------------------
             Standard Nuclear Orientation (Angstroms)
    I     Atom           X                Y                Z
 ----------------------------------------------------------------
    1      O      -2.4811929268    -0.7559801726     2.4466132039
    2      C      -2.9757915624    -1.2046192714     1.3887124158
    3      C      -3.7934737432    -0.3755434767     0.3254053873
    4      C      -3.2098300441     1.0811624343     0.0903077312
    5      C      -1.7919480246     1.2700303834     0.7231643720
    6      O      -1.6574458173     2.6136496775     1.2016238528
    7      C      -0.3643501081     2.7355137167     1.9170284483
    8      C       0.7902598832     3.1848198769     0.9448563132
    9      O       1.8758609091     2.1856367969     1.0994754721
   10      C       2.3611971352     1.7160314145    -0.1640763360
   11      C       3.5055929862     0.6970494892     0.1626719064
   12      C       3.0735858176    -0.7711155412     0.5906265615
   13      C       1.5906285847    -1.2318318870     0.3489064866
   14      O       0.9595698542    -2.0100883022     1.1052153059
   15      O      -2.7904742408    -2.5374723940     0.9178230958
   16      O       1.1665414978    -0.8060921254    -0.9367244544
   17      O       1.9442111589     2.1084319989    -1.2738886496
   18      C      -0.0473564740    -1.5423818662    -1.3771740204
   19      C       4.4478903355     0.3982733203    -1.0808836425
   20      C       5.8574469703    -0.0320063721    -0.5155993563
   21      C       5.5166345996    -1.4561429175     0.0616871547
   22      C       4.0080427552    -1.6203690918    -0.3846816506
   23      O       3.9216165007    -0.8624199226    -1.6513933534
   24      H       4.0884744483     1.1447652657     0.9877629295
   25      H       3.3093833436    -0.9591984159     1.6528936803
   26      H       4.4559067390     1.1955593051    -1.8491186418
   27      H       6.5958238437    -0.0945360804    -1.3311274920
   28      H       6.2334051918     0.6629714573     0.2519904402
   29      H       6.1420904383    -2.2405225420    -0.3930171891
   30      H       5.6274888015    -1.5074451565     1.1566991508
   31      H       3.6761654748    -2.6663119721    -0.5345411623
   32      O      -0.8583475945     0.4382615400     0.7435545051
   33      C      -1.7790684313    -3.2309253599     1.7565863196
   34      C      -3.7775866492    -0.9600272080    -1.1494843127
   35      C      -5.0133102429    -0.3603652346    -1.9228183944
   36      C      -4.5548936572     1.1344211950    -2.1122679857
   37      C      -3.1009580580     1.0961667848    -1.4949355952
   38      O      -2.6324976618    -0.2748921116    -1.7990284111
   39      H      -4.8355808028    -0.3004486590     0.6885885431
   40      H      -3.8818049791     1.8715944709     0.4666536982
   41      H      -2.0430516879    -3.1856907088     2.8318061305
   42      H      -3.6511019892    -2.0581418183    -1.1997517145
   43      H      -5.1405674063    -0.8669221358    -2.8929624887
   44      H      -5.9498159278    -0.4513568577    -1.3498967636
   45      H      -4.5150754196     1.4163724837    -3.1763287928
   46      H      -5.2058404102     1.8473476636    -1.5813088194
   47      H      -2.3932747974     1.8449426006    -1.9014336173
   48      H      -0.7699538158    -2.7786751820     1.5985523839
   49      H      -1.7792420965    -4.2830613231     1.4177638919
   50      H       0.1690570127    -1.9305372462    -2.3913365875
   51      H      -0.9439976030    -0.8766372264    -1.4186472063
   52      H      -0.2506708279    -2.3834614383    -0.6880515726
   53      H       0.4478044472     3.2002150525    -0.1133567800
   54      H       1.1797373507     4.1888522277     1.2153736025
   55      H      -0.0764607940     1.7608247189     2.3649515999
   56      H      -0.5279044033     3.4883793046     2.7134874233
 ----------------------------------------------------------------
 Molecular Point Group                 C1    NOp =  1
 Largest Abelian Subgroup              C1    NOp =  1
 Nuclear Repulsion Energy =  3335.1688301641 hartrees
 There are      113 alpha and      113 beta electrons
 Requested basis set is STO-3G
 There are 86 shells and 176 basis functions

 Total QAlloc Memory Limit   4000 MB
 Mega-Array Size       392 MB
 MEM_STATIC part       400 MB
 A cutoff of  1.0D-12 yielded   2446 shell pairs
 There are     11809 function pairs
 
 -------------------------------------------------------
 OpenMP Integral Computing Module                       
 Release: version 1.0, May 2013, Q-Chem Inc. Pittsburgh 
 -------------------------------------------------------
 Integral Job Info:
 Integral job number is                      11
 Integral operator is                         1
 short-range coefficients                     0
 long-range coefficients              100000000
 Omega coefficients                           0
 if combine SR and LR in K                    0
 Integral screening is                        0
 Integral computing path is                   2
 max size of driver memory is            800000
 size of driver memory is                 45569
 size of scratch memory is              1046100
 max col of scratch BK array                289
 max len of scratch array in speh3           22
 max len of scratch index in speh4            8
 max int batch size is                      520
 min int batch size is                       52
 fixed nKL is                                52
 max L of basis functions is                  1
 order of int derivative is                   0
 number of shells is                         86
 number of basis is                         176
 number of cartesian basis is               176
 number of contracted shell pairs          2446
 number of primitive shell pairs          12154
 maxK2 (contraction) of shell pair            9
 max number of K2 of shell pair               1
 max number of CS2 of shell pair            364
 max number of PS2 of shell pair           1314
 mem total for path MDJ                   49782
 -------------------------------------------------------
 Smallest overlap matrix eigenvalue = 2.13E-01

 Scale SEOQF with 1.000000e-02/1.000000e-01/1.000000e-01

 Standard Electronic Orientation quadrupole field applied
 Nucleus-field energy     =     0.0000000127 hartrees
 Guess from superposition of atomic densities
 Warning:  Energy on first SCF cycle will be non-variational
 A restricted hybrid HF-DFT SCF calculation will be
 performed using Pulay DIIS extrapolation
 Exchange:     0.2000 Hartree-Fock + 0.0800 Slater + 0.7200 B88
 Correlation:  0.1900 VWN1RPA + 0.8100 LYP
 Using SG-1 standard quadrature grid
 Dispersion:   Grimme D3
 SCF converges when DIIS error is below 1.0E-08
 using 48 threads for integral computing
 -------------------------------------------------------
 OpenMP Integral computing Module                
 Release: version 1.0, May 2013, Q-Chem Inc. Pittsburgh 
 -------------------------------------------------------
 -------------------------------------------------------
 OpenMP BLAS3 based DFT computing Module                
 Release: version 1.0, May 2013, Q-Chem Inc. Pittsburgh 
 -------------------------------------------------------
 ---------------------------------------
  Cycle       Energy         DIIS Error
 ---------------------------------------
    1   -1507.6549066499      7.47E-02
    2   -1509.7561287208      1.03E-02
    3   -1507.5499184287      2.61E-02
    4   -1510.1993165443      4.38E-03
    5   -1510.2790188154      1.41E-03
    6   -1510.2872777987      4.47E-04
    7   -1510.2880629902      1.66E-04
    8   -1510.2881829725      3.39E-05
    9   -1510.2881878407      9.51E-06
   10   -1510.2881881843      4.27E-06
   11   -1510.2881882499      1.92E-06
   12   -1510.2881882659      3.02E-07
   13   -1510.2881882663      9.83E-08
   14   -1510.2881882662      3.60E-08
   15   -1510.2881882663      2.05E-08
   16   -1510.2881882663      6.92E-09 Convergence criterion met
 ---------------------------------------
 SCF time:  CPU 122.96 s  wall 2.62 s
 SCF   energy in the final basis set = -1510.28818827
 Total energy in the final basis set = -1510.28818827
 
 --------------------------------------------------------------
 
                    Orbital Energies (a.u.)
 --------------------------------------------------------------
 
 Alpha MOs
 -- Occupied --
-18.932 -18.924 -18.924 -18.919 -18.904 -18.883 -18.873 -18.873
-18.864 -18.859 -10.098 -10.095 -10.093 -10.089 -10.069 -10.068
-10.066 -10.064 -10.055 -10.053 -10.041 -10.039 -10.038 -10.032
-10.030 -10.026 -10.024 -10.021 -10.016 -10.015  -1.014  -1.005
 -1.000  -0.994  -0.981  -0.964  -0.937  -0.931  -0.925  -0.919
 -0.767  -0.757  -0.728  -0.719  -0.712  -0.704  -0.693  -0.648
 -0.637  -0.615  -0.593  -0.577  -0.549  -0.542  -0.538  -0.532
 -0.512  -0.506  -0.480  -0.466  -0.463  -0.452  -0.450  -0.441
 -0.437  -0.428  -0.425  -0.411  -0.407  -0.399  -0.396  -0.389
 -0.384  -0.375  -0.368  -0.359  -0.358  -0.355  -0.347  -0.341
 -0.338  -0.338  -0.333  -0.327  -0.325  -0.322  -0.318  -0.314
 -0.305  -0.302  -0.300  -0.296  -0.291  -0.285  -0.277  -0.275
 -0.265  -0.255  -0.243  -0.242  -0.239  -0.229  -0.228  -0.184
 -0.167  -0.166  -0.162  -0.152  -0.151  -0.149  -0.142  -0.140
 -0.137
 -- Virtual --
  0.096   0.104   0.112   0.113   0.222   0.238   0.251   0.257
  0.265   0.274   0.284   0.290   0.308   0.313   0.321   0.330
  0.338   0.342   0.344   0.353   0.356   0.365   0.368   0.370
  0.376   0.379   0.389   0.399   0.401   0.405   0.406   0.412
  0.417   0.420   0.422   0.432   0.433   0.433   0.442   0.443
  0.449   0.453   0.455   0.457   0.461   0.464   0.470   0.474
  0.485   0.488   0.491   0.497   0.503   0.506   0.514   0.535
  0.545   0.548   0.558   0.639   0.654   0.657   0.662
 --------------------------------------------------------------
 
          Ground-State Mulliken Net Atomic Charges

     Atom                 Charge (a.u.)
  ----------------------------------------
      1 O                    -0.215447
      2 C                     0.211969
      3 C                    -0.079886
      4 C                    -0.079331
      5 C                     0.212387
      6 O                    -0.173389
      7 C                    -0.052367
      8 C                    -0.055369
      9 O                    -0.176281
     10 C                     0.216010
     11 C                    -0.078310
     12 C                    -0.075968
     13 C                     0.218294
     14 O                    -0.224109
     15 O                    -0.174745
     16 O                    -0.163288
     17 O                    -0.208695
     18 C                    -0.148517
     19 C                     0.025552
     20 C                    -0.143140
     21 C                    -0.144902
     22 C                     0.025765
     23 O                    -0.184756
     24 H                     0.083847
     25 H                     0.084218
     26 H                     0.087311
     27 H                     0.077085
     28 H                     0.072259
     29 H                     0.077187
     30 H                     0.073417
     31 H                     0.081539
     32 O                    -0.210660
     33 C                    -0.142577
     34 C                     0.025032
     35 C                    -0.142669
     36 C                    -0.143583
     37 C                     0.027293
     38 O                    -0.185806
     39 H                     0.083363
     40 H                     0.087945
     41 H                     0.084884
     42 H                     0.097676
     43 H                     0.079797
     44 H                     0.075214
     45 H                     0.080417
     46 H                     0.075770
     47 H                     0.088060
     48 H                     0.115729
     49 H                     0.081580
     50 H                     0.076980
     51 H                     0.113365
     52 H                     0.085235
     53 H                     0.100840
     54 H                     0.082772
     55 H                     0.107581
     56 H                     0.087420
  ----------------------------------------
  Sum of atomic charges =    -0.000000

 -----------------------------------------------------------------
                    Cartesian Multipole Moments
 -----------------------------------------------------------------
    Charge (ESU x 10^10)
                -0.0000
    Dipole Moment (Debye)
         X      -1.0196      Y       1.1095      Z       0.5565
       Tot       1.6063
    Quadrupole Moments (Debye-Ang)
        XX    -136.3631     XY      -1.0035     YY    -152.1781
        XZ       9.5683     YZ       2.4202     ZZ    -166.2446
    Octopole Moments (Debye-Ang^2)
       XXX      -8.7851    XXY       3.5845    XYY       4.3085
       YYY       0.7612    XXZ       1.0617    XYZ       5.1731
       YYZ      13.2264    XZZ     -11.0641    YZZ       4.8898
       ZZZ       8.1372
    Hexadecapole Moments (Debye-Ang^3)
      XXXX   -9382.5864   XXXY       2.1277   XXYY   -2122.7248
      XYYY      60.0002   YYYY   -2706.4455   XXXZ       7.9373
      XXYZ     -28.8459   XYYZ     -19.2339   YYYZ      31.3053
      XXZZ   -1972.2890   XYZZ      22.7257   YYZZ    -725.4309
      XZZZ      -3.5182   YZZZ       3.1938   ZZZZ   -1724.5388
 -----------------------------------------------------------------
 Calculating analytic gradient of the SCF energy
 Gradient of SCF Energy
            1           2           3           4           5           6
    1   0.0055356  -0.0093098   0.0050745  -0.0004535  -0.0040980   0.0032090
    2   0.0014356  -0.0013902   0.0000846   0.0000243  -0.0015427   0.0035695
    3  -0.0032188   0.0061120  -0.0034837  -0.0008485   0.0073201  -0.0060914
            7           8           9          10          11          12
    1   0.0033397  -0.0031188  -0.0024273   0.0030278  -0.0003857  -0.0003203
    2  -0.0081292   0.0064395  -0.0026241   0.0031853  -0.0010260  -0.0002423
    3   0.0014271  -0.0006990  -0.0002508  -0.0007306   0.0005498  -0.0000060
           13          14          15          16          17          18
    1  -0.0007739   0.0008987  -0.0001374  -0.0000279   0.0000236  -0.0001845
    2   0.0018887  -0.0013529   0.0000154  -0.0000174  -0.0000436  -0.0002835
    3   0.0008664  -0.0009362  -0.0000926  -0.0000388   0.0001049   0.0000531
           19          20          21          22          23          24
    1  -0.0001587   0.0002666  -0.0002749   0.0002232  -0.0000471  -0.0000108
    2   0.0001435   0.0001645  -0.0001860   0.0000420  -0.0001621   0.0001023
    3   0.0002732   0.0001190  -0.0001754   0.0000195  -0.0001219  -0.0000027
           25          26          27          28          29          30
    1   0.0000201  -0.0000079   0.0000765  -0.0000901  -0.0000246  -0.0000043
    2  -0.0000110  -0.0000183   0.0000427   0.0000570   0.0000012   0.0000864
    3   0.0000069   0.0001035  -0.0000053  -0.0000548   0.0000276   0.0000193
           31          32          33          34          35          36
    1  -0.0000006   0.0000569   0.0000228  -0.0002124   0.0002788  -0.0005849
    2  -0.0000304  -0.0000030  -0.0000076  -0.0005538   0.0001967  -0.0002263
    3  -0.0000271  -0.0000064   0.0000057  -0.0002793   0.0003745  -0.0002441
           37          38          39          40          41          42
    1   0.0005236  -0.0002396   0.0000063   0.0000317  -0.0000115   0.0000583
    2   0.0002114   0.0002501  -0.0000331   0.0000739  -0.0000132   0.0000541
    3  -0.0000580  -0.0001114  -0.0001511   0.0000064  -0.0000198   0.0001365
           43          44          45          46          47          48
    1   0.0000378  -0.0000510   0.0000676   0.0000356   0.0000589   0.0000294
    2  -0.0000659  -0.0000375   0.0000452  -0.0001155   0.0000224  -0.0000676
    3   0.0000513  -0.0001138  -0.0000076   0.0001289  -0.0000489  -0.0000167
           49          50          51          52          53          54
    1   0.0000113   0.0000185   0.0000400   0.0000190  -0.0000086   0.0000251
    2  -0.0000041   0.0000018   0.0000807   0.0000457   0.0000172   0.0000057
    3  -0.0000272  -0.0000205  -0.0000170   0.0000454   0.0001017   0.0000275
           55          56
    1   0.0000452  -0.0000983
    2  -0.0000533  -0.0000468
    3  -0.0000251   0.0000502
 Max gradient component =       9.310E-03
 RMS gradient           =       1.754E-03
 Gradient time:  CPU 32.97 s  wall 0.71 s
 Geometry Optimization Parameters
   NAtoms,    NIC,     NZ,  NCons,   NDum,   NFix, NCnnct, MaxDiis
       56     458       0       0       0       0       0       0


** GEOMETRY OPTIMIZATION IN DELOCALIZED INTERNAL COORDINATES **
   Searching for a Minimum

   Optimization Cycle:   1

                       Coordinates (Angstroms)
     ATOM                X               Y               Z
      1  O        -2.4811929268   -0.7559801726    2.4466132039
      2  C        -2.9757915624   -1.2046192714    1.3887124158
      3  C        -3.7934737432   -0.3755434767    0.3254053873
      4  C        -3.2098300441    1.0811624343    0.0903077312
      5  C        -1.7919480246    1.2700303834    0.7231643720
      6  O        -1.6574458173    2.6136496775    1.2016238528
      7  C        -0.3643501081    2.7355137167    1.9170284483
      8  C         0.7902598832    3.1848198769    0.9448563132
      9  O         1.8758609091    2.1856367969    1.0994754721
     10  C         2.3611971352    1.7160314145   -0.1640763360
     11  C         3.5055929862    0.6970494892    0.1626719064
     12  C         3.0735858176   -0.7711155412    0.5906265615
     13  C         1.5906285847   -1.2318318870    0.3489064866
     14  O         0.9595698542   -2.0100883022    1.1052153059
     15  O        -2.7904742408   -2.5374723940    0.9178230958
     16  O         1.1665414978   -0.8060921254   -0.9367244544
     17  O         1.9442111589    2.1084319989   -1.2738886496
     18  C        -0.0473564740   -1.5423818662   -1.3771740204
     19  C         4.4478903355    0.3982733203   -1.0808836425
     20  C         5.8574469703   -0.0320063721   -0.5155993563
     21  C         5.5166345996   -1.4561429175    0.0616871547
     22  C         4.0080427552   -1.6203690918   -0.3846816506
     23  O         3.9216165007   -0.8624199226   -1.6513933534
     24  H         4.0884744483    1.1447652657    0.9877629295
     25  H         3.3093833436   -0.9591984159    1.6528936803
     26  H         4.4559067390    1.1955593051   -1.8491186418
     27  H         6.5958238437   -0.0945360804   -1.3311274920
     28  H         6.2334051918    0.6629714573    0.2519904402
     29  H         6.1420904383   -2.2405225420   -0.3930171891
     30  H         5.6274888015   -1.5074451565    1.1566991508
     31  H         3.6761654748   -2.6663119721   -0.5345411623
     32  O        -0.8583475945    0.4382615400    0.7435545051
     33  C        -1.7790684313   -3.2309253599    1.7565863196
     34  C        -3.7775866492   -0.9600272080   -1.1494843127
     35  C        -5.0133102429   -0.3603652346   -1.9228183944
     36  C        -4.5548936572    1.1344211950   -2.1122679857
     37  C        -3.1009580580    1.0961667848   -1.4949355952
     38  O        -2.6324976618   -0.2748921116   -1.7990284111
     39  H        -4.8355808028   -0.3004486590    0.6885885431
     40  H        -3.8818049791    1.8715944709    0.4666536982
     41  H        -2.0430516879   -3.1856907088    2.8318061305
     42  H        -3.6511019892   -2.0581418183   -1.1997517145
     43  H        -5.1405674063   -0.8669221358   -2.8929624887
     44  H        -5.9498159278   -0.4513568577   -1.3498967636
     45  H        -4.5150754196    1.4163724837   -3.1763287928
     46  H        -5.2058404102    1.8473476636   -1.5813088194
     47  H        -2.3932747974    1.8449426006   -1.9014336173
     48  H        -0.7699538158   -2.7786751820    1.5985523839
     49  H        -1.7792420965   -4.2830613231    1.4177638919
     50  H         0.1690570127   -1.9305372462   -2.3913365875
     51  H        -0.9439976030   -0.8766372264   -1.4186472063
     52  H        -0.2506708279   -2.3834614383   -0.6880515726
     53  H         0.4478044472    3.2002150525   -0.1133567800
     54  H         1.1797373507    4.1888522277    1.2153736025
     55  H        -0.0764607940    1.7608247189    2.3649515999
     56  H        -0.5279044033    3.4883793046    2.7134874233
   Point Group: c1    Number of degrees of freedom:   162


   Energy is  -1510.288188266


 Attempting to Generate Delocalized Internal Coordinates

162 Hessian modes will be used to form the next step
  Hessian Eigenvalues:
     0.002000    0.002000    0.002000    0.002000    0.002000    0.002702
     0.002732    0.004166    0.004204    0.004307    0.004414    0.004599
     0.004690    0.004693    0.005760    0.006789    0.006832    0.011319
     0.011334    0.012248    0.013114    0.021577    0.021701    0.025871
     0.025985    0.030573    0.030696    0.035037    0.035547    0.039221
     0.040157    0.041438    0.041659    0.043101    0.045739    0.047167
     0.048138    0.048222    0.051012    0.051320    0.052855    0.053401
     0.054324    0.054370    0.055135    0.055185    0.055446    0.056728
     0.056731    0.058259    0.058869    0.060569    0.060802    0.063247
     0.063883    0.064354    0.064413    0.069838    0.070362    0.072998
     0.073214    0.091791    0.092335    0.092877    0.093552    0.096441
     0.096455    0.097432    0.097534    0.102457    0.103426    0.108447
     0.110610    0.111559    0.112576    0.120948    0.122133    0.133698
     0.137369    0.156783    0.158508    0.160000    0.160000    0.160000
     0.160000    0.160000    0.160000    0.164042    0.164440    0.219472
     0.219628    0.219858    0.221146    0.226502    0.227280    0.237847
     0.238516    0.239121    0.240182    0.243701    0.246637    0.247784
     0.249401    0.249488    0.249874    0.250000    0.250000    0.250000
     0.250000    0.250000    0.250000    0.250000    0.250000    0.252768
     0.254124    0.254855    0.256427    0.258953    0.262742    0.264823
     0.291693    0.293842    0.305928    0.308287    0.318143    0.318641
     0.323522    0.325317    0.325594    0.328012    0.328046    0.328582
     0.328642    0.328918    0.328972    0.329715    0.330075    0.330130
     0.330977    0.331376    0.332155    0.332853    0.334722    0.334833
     0.334834    0.334863    0.335039    0.335053    0.335165    0.335218
     0.338365    0.339237    0.341708    0.342489    0.406031    0.406188
     0.416156    0.425905    0.812885    0.828599    0.830355    0.836762

 Minimum Search - Taking Simple RFO Step
 Searching for Lamda that Minimizes Along All modes
 Value Taken    Lamda =  -0.01736525
 Calculated Step too Large.  Step scaled by  0.347671
 Step Taken.  Stepsize is  0.300000

                             Maximum     Tolerance    Cnvgd?
         Gradient           0.013107      0.000300      NO
         Displacement       0.171266      0.001200      NO
         Energy change     *********      0.000001      NO


 New Cartesian Coordinates Obtained by Inverse Iteration

 Displacement from previous Coordinates is:  5.401958
 Adding empirical dispersion correction 
 ----------------------------------------------------------------
 Doing -D3(op) with
 s6 =   1.00000
 s8 =   0.78311
 a1 =   0.30000
 a2 =   4.25000
 n  =  10.00000
 -D3 energy without 3body term =     -0.0783780389 hartrees
 ----------------------------------------------------------------
             Standard Nuclear Orientation (Angstroms)
    I     Atom           X                Y                Z
 ----------------------------------------------------------------
    1      O      -2.1610551393    -0.9008640595     2.2115037664
    2      C      -2.6326902990    -1.2630090518     1.1108319013
    3      C      -3.6028909401    -0.4200864813     0.1969905504
    4      C      -3.1796773301     1.1063792192     0.0860822125
    5      C      -1.7447224099     1.3726409274     0.6485972243
    6      O      -1.6897331744     2.6857844957     1.2187211401
    7      C      -0.3818587839     2.8503261567     1.8975585757
    8      C       0.7509285707     3.2402444215     0.8752447253
    9      O       1.8342526486     2.2433769241     1.0579271005
   10      C       2.2286074982     1.6423063667    -0.1813838806
   11      C       3.3963369566     0.6575129747     0.1666682957
   12      C       2.9991070390    -0.7500534853     0.7875106970
   13      C       1.5015443950    -1.2208039940     0.7119886781
   14      O       0.9227558895    -1.8891430787     1.6032490326
   15      O      -2.3336701130    -2.5050318161     0.4780239243
   16      O       0.9821979586    -0.9395706459    -0.5784306534
   17      O       1.7309111265     1.9179985698    -1.2930909758
   18      C      -0.2673165252    -1.7018958301    -0.8372782618
   19      C       4.2409544743     0.2145392991    -1.1039601830
   20      C       5.6897171009    -0.1618768689    -0.6030746154
   21      C       5.3949137747    -1.5097929792     0.1543704380
   22      C       3.8565129495    -1.7105748768    -0.1545616889
   23      O       3.6731116005    -1.0977169571    -1.4878446671
   24      H       4.0399555692     1.1889503548     0.8907321508
   25      H       3.3148746298    -0.8191898963     1.8433906678
   26      H       4.1898107166     0.9209802096    -1.9550448110
   27      H       6.3632545376    -0.3212586479    -1.4604419920
   28      H       6.1235192701     0.6111208808     0.0510420819
   29      H       5.9840099661    -2.3450314491    -0.2562022037
   30      H       5.5895114705    -1.4396500405     1.2365747500
   31      H       3.5144849730    -2.7639166448    -0.1607981785
   32      O      -0.7435575525     0.6311887628     0.5401588281
   33      C      -1.2226988596    -3.1803045229     1.1970783792
   34      C      -3.6289304557    -0.8459764399    -1.3313733534
   35      C      -4.9664184797    -0.3027242906    -1.9648365054
   36      C      -4.6685867453     1.2428334325    -2.0183544753
   37      C      -3.1799648408     1.2919763122    -1.4919903944
   38      O      -2.6017597092     0.0151816919    -1.9674275066
   39      H      -4.6204608466    -0.4963537550     0.6239911068
   40      H      -3.8958651368     1.7845031257     0.5812066949
   41      H      -1.4443512281    -3.2883529414     2.2773751040
   42      H      -3.3998638629    -1.9142185080    -1.5069755990
   43      H      -5.1088305193    -0.7188628025    -2.9750581237
   44      H      -5.8489710310    -0.5476221987    -1.3527082169
   45      H      -4.7276334506     1.6333048629    -3.0466184165
   46      H      -5.3483641910     1.8277364647    -1.3782443677
   47      H      -2.5767292611     2.1468439649    -1.8552294451
   48      H      -0.2723707410    -2.6083826085     1.0644123809
   49      H      -1.1302554067    -4.1800710820     0.7347971100
   50      H      -0.1328471473    -2.2069747411    -1.8134004656
   51      H      -1.1598853170    -1.0312674415    -0.8868576029
   52      H      -0.4225935924    -2.4553547212    -0.0423953822
   53      H       0.3777589639     3.1941683021    -0.1716838745
   54      H       1.1533335172     4.2559962374     1.0733512952
   55      H      -0.0763272847     1.8945105753     2.3735272491
   56      H      -0.5299373398     3.6315814857     2.6693067953
 ----------------------------------------------------------------
 Molecular Point Group                 C1    NOp =  1
 Largest Abelian Subgroup              C1    NOp =  1
 Nuclear Repulsion Energy =  3401.1412412829 hartrees
 There are      113 alpha and      113 beta electrons
 Applying Cartesian multipole field
    Component          Value
    ---------          -----
     (2,0,0)        1.00000E-12
     (0,2,0)        2.00000E-11
     (0,0,2)       -3.00000E-11
 Nucleus-field energy     =     0.0000000174 hartrees
 Requested basis set is STO-3G
 There are 86 shells and 176 basis functions
 A cutoff of  1.0D-12 yielded   2513 shell pairs
 There are     12197 function pairs
 Smallest overlap matrix eigenvalue = 2.13E-01
 Guess MOs from SCF MO coefficient file
 Reading MOs from coefficient file
 Reading MOs from coefficient file
 A restricted hybrid HF-DFT SCF calculation will be
 performed using Pulay DIIS extrapolation
 Exchange:     0.2000 Hartree-Fock + 0.0800 Slater + 0.7200 B88
 Correlation:  0.1900 VWN1RPA + 0.8100 LYP
 Using SG-1 standard quadrature grid
 Dispersion:   Grimme D3
 SCF converges when DIIS error is below 1.0E-08
 Geometry optimization detected.  Setting ReadMinima to 0
 Setting SaveMinima to 0
 using 48 threads for integral computing
 -------------------------------------------------------
 OpenMP Integral computing Module                
 Release: version 1.0, May 2013, Q-Chem Inc. Pittsburgh 
 -------------------------------------------------------
 -------------------------------------------------------
 OpenMP BLAS3 based DFT computing Module                
 Release: version 1.0, May 2013, Q-Chem Inc. Pittsburgh 
 -------------------------------------------------------
 ---------------------------------------
  Cycle       Energy         DIIS Error
 ---------------------------------------
    1   -1510.0992864730      8.54E-03
    2   -1510.1964561646      1.34E-03
    3   -1510.1830124502      2.27E-03
    4   -1510.2044650614      6.85E-04
    5   -1510.2064872841      1.12E-04
    6   -1510.2065311758      5.93E-05
    7   -1510.2065447744      2.64E-05
    8   -1510.2065476547      8.68E-06
    9   -1510.2065480262      1.16E-06
   10   -1510.2065480323      8.83E-07
   11   -1510.2065480353      4.30E-07
   12   -1510.2065480362      1.07E-07
   13   -1510.2065480362      3.89E-08
   14   -1510.2065480363      1.46E-08
   15   -1510.2065480364      6.85E-09 Convergence criterion met
 ---------------------------------------
 SCF time:  CPU 109.14 s  wall 2.28 s
 SCF   energy in the final basis set = -1510.20654804
 Total energy in the final basis set = -1510.20654804
 
 --------------------------------------------------------------
 
                    Orbital Energies (a.u.)
 --------------------------------------------------------------
 
 Alpha MOs
 -- Occupied --
-18.933 -18.931 -18.926 -18.915 -18.892 -18.887 -18.885 -18.875
-18.874 -18.860 -10.106 -10.098 -10.098 -10.088 -10.070 -10.066
-10.063 -10.060 -10.057 -10.057 -10.039 -10.038 -10.036 -10.034
-10.022 -10.020 -10.020 -10.019 -10.006 -10.005  -1.017  -1.012
 -1.005  -0.998  -0.974  -0.969  -0.939  -0.935  -0.932  -0.923
 -0.764  -0.761  -0.726  -0.721  -0.714  -0.706  -0.695  -0.670
 -0.631  -0.613  -0.596  -0.579  -0.545  -0.543  -0.538  -0.537
 -0.512  -0.511  -0.486  -0.481  -0.462  -0.456  -0.451  -0.446
 -0.439  -0.435  -0.432  -0.426  -0.405  -0.400  -0.393  -0.392
 -0.378  -0.375  -0.368  -0.362  -0.358  -0.352  -0.348  -0.343
 -0.335  -0.333  -0.331  -0.328  -0.323  -0.318  -0.313  -0.309
 -0.306  -0.303  -0.301  -0.295  -0.291  -0.284  -0.274  -0.271
 -0.266  -0.256  -0.244  -0.243  -0.237  -0.233  -0.231  -0.185
 -0.174  -0.168  -0.165  -0.154  -0.152  -0.148  -0.142  -0.138
 -0.132
 -- Virtual --
  0.090   0.098   0.105   0.115   0.221   0.242   0.248   0.257
  0.264   0.274   0.284   0.288   0.308   0.312   0.325   0.328
  0.337   0.343   0.347   0.349   0.360   0.362   0.364   0.370
  0.375   0.380   0.385   0.399   0.401   0.403   0.409   0.412
  0.414   0.416   0.422   0.426   0.428   0.432   0.437   0.439
  0.448   0.456   0.462   0.464   0.466   0.467   0.473   0.486
  0.488   0.489   0.492   0.500   0.506   0.507   0.538   0.541
  0.552   0.553   0.630   0.641   0.655   0.658   0.728
 --------------------------------------------------------------
 
          Ground-State Mulliken Net Atomic Charges

     Atom                 Charge (a.u.)
  ----------------------------------------
      1 O                    -0.216769
      2 C                     0.207502
      3 C                    -0.081771
      4 C                    -0.079887
      5 C                     0.213140
      6 O                    -0.173064
      7 C                    -0.050935
      8 C                    -0.055260
      9 O                    -0.176814
     10 C                     0.217814
     11 C                    -0.077640
     12 C                    -0.074684
     13 C                     0.226807
     14 O                    -0.215771
     15 O                    -0.182007
     16 O                    -0.153006
     17 O                    -0.205677
     18 C                    -0.150447
     19 C                     0.025856
     20 C                    -0.143099
     21 C                    -0.144573
     22 C                     0.025874
     23 O                    -0.183431
     24 H                     0.084874
     25 H                     0.086088
     26 H                     0.088950
     27 H                     0.078019
     28 H                     0.072958
     29 H                     0.078359
     30 H                     0.074015
     31 H                     0.081580
     32 O                    -0.212486
     33 C                    -0.171467
     34 C                     0.021517
     35 C                    -0.142944
     36 C                    -0.143891
     37 C                     0.026062
     38 O                    -0.187482
     39 H                     0.083325
     40 H                     0.087333
     41 H                     0.077748
     42 H                     0.095561
     43 H                     0.078782
     44 H                     0.073692
     45 H                     0.079290
     46 H                     0.074305
     47 H                     0.085807
     48 H                     0.149411
     49 H                     0.070075
     50 H                     0.071507
     51 H                     0.100331
     52 H                     0.108981
     53 H                     0.101912
     54 H                     0.082797
     55 H                     0.103979
     56 H                     0.088854
  ----------------------------------------
  Sum of atomic charges =    -0.000000

 -----------------------------------------------------------------
                    Cartesian Multipole Moments
 -----------------------------------------------------------------
    Charge (ESU x 10^10)
                -0.0000
    Dipole Moment (Debye)
         X       0.0269      Y       1.3339      Z       0.6493
       Tot       1.4838
    Quadrupole Moments (Debye-Ang)
        XX    -136.2273     XY      -1.8549     YY    -151.9680
        XZ       8.1148     YZ       3.0399     ZZ    -168.5568
    Octopole Moments (Debye-Ang^2)
       XXX       2.3619    XXY       3.6658    XYY       9.5177
       YYY       8.7826    XXZ      -0.9209    XYZ      -0.1215
       YYZ       7.7918    XZZ      -5.6980    YZZ      12.5481
       ZZZ       5.7056
    Hexadecapole Moments (Debye-Ang^3)
      XXXX   -8762.4891   XXXY     159.2158   XXYY   -2038.1023
      XYYY     197.6717   YYYY   -2801.4447   XXXZ    -189.8743
      XXYZ     -33.8732   XYYZ     -64.9064   YYYZ      32.8708
      XXZZ   -1819.7795   XYZZ      70.7039   YYZZ    -732.2538
      XZZZ    -199.7817   YZZZ      12.9391   ZZZZ   -1578.1631
 -----------------------------------------------------------------
 Calculating analytic gradient of the SCF energy
 Gradient of SCF Energy
            1           2           3           4           5           6
    1   0.0035723  -0.0021835   0.0031947   0.0008605  -0.0017882   0.0040533
    2   0.0008470   0.0010956  -0.0003762   0.0005980  -0.0043834   0.0033179
    3  -0.0022455   0.0011598  -0.0026553  -0.0001826   0.0074298  -0.0072143
            7           8           9          10          11          12
    1   0.0027311  -0.0029877  -0.0034035   0.0043807   0.0001925   0.0003919
    2  -0.0039420   0.0050431  -0.0038924   0.0027417  -0.0010559  -0.0002329
    3   0.0036993  -0.0008444   0.0000263  -0.0006281   0.0005702  -0.0020139
           13          14          15          16          17          18
    1  -0.0100046  -0.0197376   0.0120645  -0.0092799  -0.0006329  -0.0021972
    2  -0.0132035  -0.0087768   0.0034367  -0.0008070  -0.0001438  -0.0009831
    3   0.0237596  -0.0101019  -0.0082512  -0.0062455  -0.0001467   0.0251310
           19          20          21          22          23          24
    1  -0.0003822   0.0000891   0.0003137  -0.0000159   0.0004203  -0.0001549
    2   0.0000717  -0.0000378  -0.0000809   0.0003579   0.0003322   0.0001990
    3   0.0002239  -0.0000861  -0.0002806   0.0011379  -0.0005199  -0.0000821
           25          26          27          28          29          30
    1  -0.0001559   0.0001587   0.0000252  -0.0001202   0.0001414   0.0000535
    2   0.0002850   0.0000213   0.0000181   0.0000410   0.0000927  -0.0001293
    3  -0.0001250  -0.0000744  -0.0000586   0.0000900   0.0000520  -0.0000160
           31          32          33          34          35          36
    1  -0.0000122   0.0018005   0.0426378   0.0025769   0.0006972   0.0004051
    2   0.0000959  -0.0043045   0.0405482  -0.0012235   0.0003448  -0.0004563
    3  -0.0000324  -0.0052422  -0.0284015   0.0017422  -0.0003542  -0.0004281
           37          38          39          40          41          42
    1  -0.0004098  -0.0038983  -0.0005309   0.0000213   0.0018022   0.0006887
    2   0.0013087   0.0029121  -0.0002894   0.0003370   0.0006369  -0.0000118
    3   0.0003412  -0.0022045  -0.0006059  -0.0004251   0.0007711  -0.0000827
           43          44          45          46          47          48
    1  -0.0000186   0.0003059   0.0000240   0.0001820   0.0002534   0.0021298
    2   0.0000772  -0.0001033   0.0000966  -0.0001007  -0.0000395   0.0132632
    3  -0.0000943   0.0001915   0.0000405   0.0001098  -0.0001942  -0.0629358
           49          50          51          52          53          54
    1   0.0032307  -0.0005769  -0.0163872  -0.0137003  -0.0006262  -0.0002498
    2   0.0009374  -0.0031061  -0.0009242  -0.0299230   0.0000418   0.0003842
    3  -0.0016101   0.0015799   0.0058864   0.0717632   0.0001060  -0.0005277
           55          56
    1   0.0000318   0.0000237
    2  -0.0005919  -0.0003632
    3  -0.0019036   0.0010028
 Max gradient component =       7.176E-02
 RMS gradient           =       1.030E-02
 Gradient time:  CPU 32.34 s  wall 0.68 s
 Geometry Optimization Parameters
   NAtoms,    NIC,     NZ,  NCons,   NDum,   NFix, NCnnct, MaxDiis
       56     458       0       0       0       0       0       0

 Cartesian Hessian Update
 Hessian Updated using BFGS Update


** GEOMETRY OPTIMIZATION IN DELOCALIZED INTERNAL COORDINATES **
   Searching for a Minimum

   Optimization Cycle:   2

                       Coordinates (Angstroms)
     ATOM                X               Y               Z
      1  O        -2.1610551393   -0.9008640595    2.2115037664
      2  C        -2.6326902990   -1.2630090518    1.1108319013
      3  C        -3.6028909401   -0.4200864813    0.1969905504
      4  C        -3.1796773301    1.1063792192    0.0860822125
      5  C        -1.7447224099    1.3726409274    0.6485972243
      6  O        -1.6897331744    2.6857844957    1.2187211401
      7  C        -0.3818587839    2.8503261567    1.8975585757
      8  C         0.7509285707    3.2402444215    0.8752447253
      9  O         1.8342526486    2.2433769241    1.0579271005
     10  C         2.2286074982    1.6423063667   -0.1813838806
     11  C         3.3963369566    0.6575129747    0.1666682957
     12  C         2.9991070390   -0.7500534853    0.7875106970
     13  C         1.5015443950   -1.2208039940    0.7119886781
     14  O         0.9227558895   -1.8891430787    1.6032490326
     15  O        -2.3336701130   -2.5050318161    0.4780239243
     16  O         0.9821979586   -0.9395706459   -0.5784306534
     17  O         1.7309111265    1.9179985698   -1.2930909758
     18  C        -0.2673165252   -1.7018958301   -0.8372782618
     19  C         4.2409544743    0.2145392991   -1.1039601830
     20  C         5.6897171009   -0.1618768689   -0.6030746154
     21  C         5.3949137747   -1.5097929792    0.1543704380
     22  C         3.8565129495   -1.7105748768   -0.1545616889
     23  O         3.6731116005   -1.0977169571   -1.4878446671
     24  H         4.0399555692    1.1889503548    0.8907321508
     25  H         3.3148746298   -0.8191898963    1.8433906678
     26  H         4.1898107166    0.9209802096   -1.9550448110
     27  H         6.3632545376   -0.3212586479   -1.4604419920
     28  H         6.1235192701    0.6111208808    0.0510420819
     29  H         5.9840099661   -2.3450314491   -0.2562022037
     30  H         5.5895114705   -1.4396500405    1.2365747500
     31  H         3.5144849730   -2.7639166448   -0.1607981785
     32  O        -0.7435575525    0.6311887628    0.5401588281
     33  C        -1.2226988596   -3.1803045229    1.1970783792
     34  C        -3.6289304557   -0.8459764399   -1.3313733534
     35  C        -4.9664184797   -0.3027242906   -1.9648365054
     36  C        -4.6685867453    1.2428334325   -2.0183544753
     37  C        -3.1799648408    1.2919763122   -1.4919903944
     38  O        -2.6017597092    0.0151816919   -1.9674275066
     39  H        -4.6204608466   -0.4963537550    0.6239911068
     40  H        -3.8958651368    1.7845031257    0.5812066949
     41  H        -1.4443512281   -3.2883529414    2.2773751040
     42  H        -3.3998638629   -1.9142185080   -1.5069755990
     43  H        -5.1088305193   -0.7188628025   -2.9750581237
     44  H        -5.8489710310   -0.5476221987   -1.3527082169
     45  H        -4.7276334506    1.6333048629   -3.0466184165
     46  H        -5.3483641910    1.8277364647   -1.3782443677
     47  H        -2.5767292611    2.1468439649   -1.8552294451
     48  H        -0.2723707410   -2.6083826085    1.0644123809
     49  H        -1.1302554067   -4.1800710820    0.7347971100
     50  H        -0.1328471473   -2.2069747411   -1.8134004656
     51  H        -1.1598853170   -1.0312674415   -0.8868576029
     52  H        -0.4225935924   -2.4553547212   -0.0423953822
     53  H         0.3777589639    3.1941683021   -0.1716838745
     54  H         1.1533335172    4.2559962374    1.0733512952
     55  H        -0.0763272847    1.8945105753    2.3735272491
     56  H        -0.5299373398    3.6315814857    2.6693067953
   Point Group: c1    Number of degrees of freedom:   162


   Energy is  -1510.206548036

 Hessian Updated using BFGS Update

149 Hessian modes will be used to form the next step
  Hessian Eigenvalues:
     0.001671    0.002202    0.002677    0.002724    0.003624    0.004203
     0.004266    0.004316    0.004428    0.004645    0.005747    0.006747
     0.006821    0.010386    0.011321    0.011811    0.013094    0.021460
     0.021663    0.025077    0.025791    0.030423    0.030649    0.034926
     0.035377    0.038004    0.039230    0.040690    0.041355    0.042059
     0.043131    0.045555    0.047158    0.048217    0.050920    0.051317
     0.051854    0.053388    0.053944    0.054365    0.054886    0.055171
     0.055366    0.056516    0.056726    0.057883    0.058618    0.060467
     0.060590    0.063246    0.063875    0.064353    0.064412    0.069802
     0.070329    0.072997    0.073149    0.088176    0.092335    0.092753
     0.093530    0.095316    0.096450    0.097388    0.097524    0.102456
     0.102772    0.105004    0.108656    0.111426    0.112554    0.114499
     0.120704    0.121934    0.134537    0.152371    0.157514    0.159866
     0.159997    0.163802    0.164206    0.184672    0.219452    0.219818
     0.220821    0.226323    0.226926    0.236760    0.238059    0.239106
     0.239333    0.240168    0.243737    0.246624    0.247760    0.248927
     0.249407    0.249488    0.249874    0.252767    0.254123    0.254825
     0.256233    0.258876    0.262739    0.264801    0.291632    0.293839
     0.305688    0.308026    0.318136    0.318629    0.323521    0.325317
     0.325594    0.328011    0.328046    0.328581    0.328642    0.328918
     0.328970    0.329715    0.329796    0.330129    0.330977    0.331376
     0.332155    0.332853    0.334722    0.334833    0.334834    0.334863
     0.335038    0.335053    0.335165    0.335217    0.338316    0.339184
     0.341707    0.342464    0.405369    0.406185    0.416152    0.425369
     0.812871    0.828599    0.830350    0.836759   11.195746

 Minimum Search - Taking Simple RFO Step
 Searching for Lamda that Minimizes Along All modes
 Value Taken    Lamda =  -0.31469991
 Step Taken.  Stepsize is  0.171400

                             Maximum     Tolerance    Cnvgd?
         Gradient           1.675963      0.000300      NO
         Displacement       0.147130      0.001200      NO
         Energy change      0.081640      0.000001      NO


 New Cartesian Coordinates Obtained by Inverse Iteration

 Displacement from previous Coordinates is:  4.697262
 Adding empirical dispersion correction 
 ----------------------------------------------------------------
 Doing -D3(op) with
 s6 =   1.00000
 s8 =   0.78311
 a1 =   0.30000
 a2 =   4.25000
 n  =  10.00000
 -D3 energy without 3body term =     -0.0739882737 hartrees
 ----------------------------------------------------------------
             Standard Nuclear Orientation (Angstroms)
    I     Atom           X                Y                Z
 ----------------------------------------------------------------
    1      O      -2.4972504138    -0.8491420182     2.4321258800
    2      C      -2.9245907199    -1.2480923105     1.3260887021
    3      C      -3.7731663107    -0.3937767585     0.3045036918
    4      C      -3.2280386684     1.0883615401     0.1115871814
    5      C      -1.7941186790     1.3059717787     0.7005055357
    6      O      -1.6951137639     2.6439931460     1.2039338898
    7      C      -0.3934666512     2.8060769122     1.8962505860
    8      C       0.7808128590     3.1687058749     0.9029371182
    9      O       1.8773657618     2.1881729186     1.0941207622
   10      C       2.3214575323     1.6585494546    -0.1639884315
   11      C       3.4996203783     0.6788711377     0.1609212557
   12      C       3.0997517471    -0.7757391751     0.6488249545
   13      C       1.6186917743    -1.2470165695     0.4367411248
   14      O       0.9789661998    -1.9876736788     1.2228990245
   15      O      -2.7073052464    -2.5603309098     0.8136111526
   16      O       1.2139459601    -0.8483296036    -0.8663408908
   17      O       1.8631087557     1.9998074554    -1.2744610858
   18      C       0.0014667214    -1.5651906029    -1.3379592470
   19      C       4.4180476912     0.3445044040    -1.0930883289
   20      C       5.8455692059    -0.0451633070    -0.5417926453
   21      C       5.5374978256    -1.4519800472     0.0970238682
   22      C       4.0225835132    -1.6513508900    -0.3125987072
   23      O       3.9000269426    -0.9430146638    -1.6033651309
   24      H       4.0967918622     1.1693036694     0.9507055857
   25      H       3.3584748227    -0.9234815201     1.7121217312
   26      H       4.3961755389     1.1107789374    -1.8921454805
   27      H       6.5674170330    -0.1294885203    -1.3699681715
   28      H       6.2278752511     0.6838175613     0.1903710822
   29      H       6.1643929938    -2.2447297967    -0.3409379709
   30      H       5.6714839781    -1.4607984874     1.1905976559
   31      H       3.6989947251    -2.7051925228    -0.4184633759
   32      O      -0.8332059756     0.5063965561     0.6702434339
   33      C      -1.7368338096    -3.2793239995     1.6805972892
   34      C      -3.7662108408    -0.9162776177    -1.1948302926
   35      C      -5.0292516353    -0.3203881781    -1.9265557246
   36      C      -4.6141815700     1.1910858579    -2.0645246446
   37      C      -3.1508242517     1.1684380380    -1.4720169072
   38      O      -2.6488642844    -0.1769914044    -1.8354262249
   39      H      -4.8102634750    -0.3636626697     0.6881447635
   40      H      -3.9143135692     1.8425435448     0.5336123887
   41      H      -2.0631676867    -3.2774017948     2.7395306508
   42      H      -3.6144620326    -2.0081602193    -1.2911972848
   43      H      -5.1587598461    -0.7921753365    -2.9138116388
   44      H      -5.9535479063    -0.4584323732    -1.3432718365
   45      H      -4.5990840122     1.5148283006    -3.1172408534
   46      H      -5.2754619288     1.8650505788    -1.4966482627
   47      H      -2.4726609780     1.9529705913    -1.8607528215
   48      H      -0.7236433690    -2.8165928182     1.6036940701
   49      H      -1.7094419583    -4.3177399925     1.3028290272
   50      H       0.2422542699    -1.9635869178    -2.3425869571
   51      H      -0.8801508675    -0.8831406499    -1.4119208881
   52      H      -0.2384181249    -2.3973288318    -0.6537328113
   53      H       0.4491021163     3.1248366664    -0.1580107720
   54      H       1.1698178316     4.1852895255     1.1222900466
   55      H      -0.1236910921     1.8569308411     2.4059332141
   56      H      -0.5406557412     3.6124620566     2.6418387356
 ----------------------------------------------------------------
 Molecular Point Group                 C1    NOp =  1
 Largest Abelian Subgroup              C1    NOp =  1
 Nuclear Repulsion Energy =  3334.1458483693 hartrees
 There are      113 alpha and      113 beta electrons
 Applying Cartesian multipole field
    Component          Value
    ---------          -----
     (2,0,0)        1.00000E-12
     (0,2,0)        2.00000E-11
     (0,0,2)       -3.00000E-11
 Nucleus-field energy     =     0.0000000142 hartrees
 Requested basis set is STO-3G
 There are 86 shells and 176 basis functions
 A cutoff of  1.0D-12 yielded   2452 shell pairs
 There are     11854 function pairs
 Smallest overlap matrix eigenvalue = 2.13E-01
 Guess MOs from SCF MO coefficient file
 Reading MOs from coefficient file
 Reading MOs from coefficient file
 A restricted hybrid HF-DFT SCF calculation will be
 performed using Pulay DIIS extrapolation
 Exchange:     0.2000 Hartree-Fock + 0.0800 Slater + 0.7200 B88
 Correlation:  0.1900 VWN1RPA + 0.8100 LYP
 Using SG-1 standard quadrature grid
 Dispersion:   Grimme D3
 SCF converges when DIIS error is below 1.0E-08
 Geometry optimization detected.  Setting ReadMinima to 0
 Setting SaveMinima to 0
 using 48 threads for integral computing
 -------------------------------------------------------
 OpenMP Integral computing Module                
 Release: version 1.0, May 2013, Q-Chem Inc. Pittsburgh 
 -------------------------------------------------------
 -------------------------------------------------------
 OpenMP BLAS3 based DFT computing Module                
 Release: version 1.0, May 2013, Q-Chem Inc. Pittsburgh 
 -------------------------------------------------------
 ---------------------------------------
  Cycle       Energy         DIIS Error
 ---------------------------------------
    1   -1510.2337987372      7.06E-03
    2   -1510.2803950815      1.32E-03
    3   -1510.2756816130      1.76E-03
    4   -1510.2879404066      7.20E-04
    5   -1510.2902393577      7.12E-05
    6   -1510.2902543899      4.64E-05
    7   -1510.2902635966      1.27E-05
    8   -1510.2902640034      8.74E-06
    9   -1510.2902643464      1.29E-06
   10   -1510.2902643550      4.26E-07
   11   -1510.2902643559      2.47E-07
   12   -1510.2902643562      1.11E-07
   13   -1510.2902643562      3.26E-08
   14   -1510.2902643562      8.31E-09 Convergence criterion met
 ---------------------------------------
 SCF time:  CPU 99.38 s  wall 2.08 s
 SCF   energy in the final basis set = -1510.29026436
 Total energy in the final basis set = -1510.29026436
 
 --------------------------------------------------------------
 
                    Orbital Energies (a.u.)
 --------------------------------------------------------------
 
 Alpha MOs
 -- Occupied --
-18.932 -18.925 -18.924 -18.921 -18.899 -18.884 -18.874 -18.874
-18.863 -18.862 -10.098 -10.096 -10.092 -10.091 -10.069 -10.066
-10.064 -10.061 -10.056 -10.054 -10.040 -10.038 -10.037 -10.033
-10.031 -10.029 -10.024 -10.023 -10.017 -10.016  -1.014  -1.005
 -1.000  -0.995  -0.977  -0.966  -0.937  -0.931  -0.924  -0.922
 -0.765  -0.758  -0.726  -0.719  -0.712  -0.704  -0.693  -0.647
 -0.640  -0.616  -0.593  -0.577  -0.547  -0.540  -0.539  -0.533
 -0.511  -0.506  -0.479  -0.467  -0.461  -0.452  -0.450  -0.439
 -0.436  -0.429  -0.426  -0.412  -0.406  -0.399  -0.395  -0.389
 -0.386  -0.375  -0.367  -0.360  -0.358  -0.356  -0.348  -0.340
 -0.338  -0.336  -0.333  -0.327  -0.326  -0.322  -0.318  -0.313
 -0.304  -0.303  -0.301  -0.296  -0.292  -0.285  -0.279  -0.273
 -0.265  -0.255  -0.243  -0.242  -0.239  -0.230  -0.228  -0.184
 -0.166  -0.165  -0.163  -0.153  -0.152  -0.150  -0.142  -0.141
 -0.138
 -- Virtual --
  0.096   0.103   0.110   0.114   0.221   0.240   0.250   0.255
  0.263   0.274   0.285   0.291   0.309   0.313   0.323   0.330
  0.337   0.343   0.344   0.353   0.359   0.364   0.366   0.370
  0.374   0.377   0.388   0.400   0.402   0.404   0.408   0.413
  0.417   0.419   0.422   0.431   0.433   0.435   0.441   0.442
  0.449   0.452   0.454   0.457   0.460   0.463   0.469   0.473
  0.485   0.487   0.489   0.494   0.504   0.505   0.506   0.536
  0.544   0.550   0.557   0.640   0.654   0.656   0.663
 --------------------------------------------------------------
 
          Ground-State Mulliken Net Atomic Charges

     Atom                 Charge (a.u.)
  ----------------------------------------
      1 O                    -0.217223
      2 C                     0.211284
      3 C                    -0.079509
      4 C                    -0.078863
      5 C                     0.212388
      6 O                    -0.173088
      7 C                    -0.051947
      8 C                    -0.056821
      9 O                    -0.175577
     10 C                     0.217175
     11 C                    -0.078020
     12 C                    -0.076172
     13 C                     0.219021
     14 O                    -0.221596
     15 O                    -0.174645
     16 O                    -0.162044
     17 O                    -0.207511
     18 C                    -0.142670
     19 C                     0.026251
     20 C                    -0.143078
     21 C                    -0.144880
     22 C                     0.026036
     23 O                    -0.184805
     24 H                     0.084134
     25 H                     0.084235
     26 H                     0.087432
     27 H                     0.077315
     28 H                     0.072417
     29 H                     0.077278
     30 H                     0.073568
     31 H                     0.081458
     32 O                    -0.210441
     33 C                    -0.144165
     34 C                     0.023833
     35 C                    -0.142793
     36 C                    -0.143796
     37 C                     0.026474
     38 O                    -0.187973
     39 H                     0.083433
     40 H                     0.087763
     41 H                     0.084569
     42 H                     0.095814
     43 H                     0.079320
     44 H                     0.074564
     45 H                     0.079789
     46 H                     0.075243
     47 H                     0.086823
     48 H                     0.115843
     49 H                     0.080819
     50 H                     0.080407
     51 H                     0.110901
     52 H                     0.086709
     53 H                     0.101676
     54 H                     0.081469
     55 H                     0.103781
     56 H                     0.088397
  ----------------------------------------
  Sum of atomic charges =    -0.000000

 -----------------------------------------------------------------
                    Cartesian Multipole Moments
 -----------------------------------------------------------------
    Charge (ESU x 10^10)
                -0.0000
    Dipole Moment (Debye)
         X      -0.7153      Y       1.1068      Z       0.4515
       Tot       1.3930
    Quadrupole Moments (Debye-Ang)
        XX    -136.5485     XY      -0.9337     YY    -151.5848
        XZ       9.0245     YZ       2.4418     ZZ    -166.7421
    Octopole Moments (Debye-Ang^2)
       XXX      -4.9842    XXY       4.0840    XYY       4.4659
       YYY       2.5821    XXZ       0.4021    XYZ       3.5616
       YYZ      12.0106    XZZ      -8.4896    YZZ       6.9129
       ZZZ       5.3117
    Hexadecapole Moments (Debye-Ang^3)
      XXXX   -9388.4401   XXXY      53.3577   XXYY   -2131.3453
      XYYY     109.0255   YYYY   -2739.6713   XXXZ     -26.7884
      XXYZ     -30.7348   XYYZ     -30.4732   YYYZ      36.0198
      XXZZ   -1967.4635   XYZZ      38.8783   YYZZ    -728.3207
      XZZZ     -36.6590   YZZZ      14.8836   ZZZZ   -1695.3831
 -----------------------------------------------------------------
 Calculating analytic gradient of the SCF energy
 Gradient of SCF Energy
            1           2           3           4           5           6
    1   0.0019068  -0.0040127   0.0001983   0.0005737  -0.0022339   0.0020035
    2  -0.0004244  -0.0025582  -0.0002991   0.0012572  -0.0008383   0.0013040
    3  -0.0009570   0.0022911  -0.0007574  -0.0010678   0.0047302  -0.0050466
            7           8           9          10          11          12
    1  -0.0006638  -0.0005927   0.0008150   0.0003165  -0.0005259  -0.0013392
    2  -0.0007765   0.0021814  -0.0014918   0.0018736  -0.0014220   0.0013305
    3   0.0035022  -0.0014995  -0.0004423  -0.0002362   0.0004879  -0.0023880
           13          14          15          16          17          18
    1   0.0019378   0.0009869  -0.0016211   0.0003149   0.0004793   0.0004536
    2   0.0014646  -0.0017293  -0.0005866  -0.0002526   0.0001463  -0.0012684
    3   0.0027542   0.0016228   0.0013800  -0.0000595   0.0001716  -0.0012510
           19          20          21          22          23          24
    1   0.0002104   0.0002960  -0.0000928  -0.0003835   0.0001196   0.0001560
    2  -0.0010209   0.0004031  -0.0006114   0.0000930   0.0001948   0.0004732
    3   0.0004787  -0.0004067   0.0005661  -0.0000721   0.0005928  -0.0003800
           25          26          27          28          29          30
    1   0.0006366  -0.0003488   0.0000894  -0.0001851  -0.0000749   0.0000992
    2   0.0002190  -0.0000940   0.0000392   0.0001024  -0.0000758  -0.0001053
    3  -0.0000439  -0.0000151   0.0000521  -0.0000224   0.0000851   0.0000415
           31          32          33          34          35          36
    1  -0.0001609   0.0010333   0.0008046  -0.0007311   0.0006632  -0.0001601
    2   0.0000811   0.0005294   0.0005841  -0.0002015   0.0006915  -0.0008079
    3  -0.0003908  -0.0020183  -0.0005064   0.0002623  -0.0002420   0.0000178
           37          38          39          40          41          42
    1   0.0006621  -0.0024442  -0.0000648  -0.0004292   0.0002278   0.0000111
    2   0.0013806   0.0021046  -0.0007923  -0.0003838   0.0000758   0.0001185
    3   0.0005966  -0.0011202  -0.0000196  -0.0001248   0.0000031   0.0002693
           43          44          45          46          47          48
    1   0.0000196   0.0001562   0.0001245  -0.0000244  -0.0001113  -0.0001511
    2   0.0001195   0.0000270   0.0000120  -0.0001241   0.0001000  -0.0006481
    3  -0.0000974   0.0000553   0.0000489   0.0000900  -0.0001843   0.0009123
           49          50          51          52          53          54
    1   0.0001097   0.0001689  -0.0001966   0.0011813   0.0006607  -0.0003820
    2  -0.0000796   0.0000237  -0.0008093   0.0015816  -0.0007467  -0.0000567
    3   0.0001400   0.0001873  -0.0006279  -0.0010845   0.0000773   0.0008749
           55          56
    1  -0.0010118   0.0005257
    2  -0.0005516   0.0002446
    3  -0.0017490   0.0005191
 Max gradient component =       5.047E-03
 RMS gradient           =       1.110E-03
 Gradient time:  CPU 31.93 s  wall 0.67 s
 Geometry Optimization Parameters
   NAtoms,    NIC,     NZ,  NCons,   NDum,   NFix, NCnnct, MaxDiis
       56     458       0       0       0       0       0       0

 Cartesian Hessian Update
 Hessian Updated using BFGS Update


** GEOMETRY OPTIMIZATION IN DELOCALIZED INTERNAL COORDINATES **
   Searching for a Minimum

   Optimization Cycle:   3

                       Coordinates (Angstroms)
     ATOM                X               Y               Z
      1  O        -2.4972504138   -0.8491420182    2.4321258800
      2  C        -2.9245907199   -1.2480923105    1.3260887021
      3  C        -3.7731663107   -0.3937767585    0.3045036918
      4  C        -3.2280386684    1.0883615401    0.1115871814
      5  C        -1.7941186790    1.3059717787    0.7005055357
      6  O        -1.6951137639    2.6439931460    1.2039338898
      7  C        -0.3934666512    2.8060769122    1.8962505860
      8  C         0.7808128590    3.1687058749    0.9029371182
      9  O         1.8773657618    2.1881729186    1.0941207622
     10  C         2.3214575323    1.6585494546   -0.1639884315
     11  C         3.4996203783    0.6788711377    0.1609212557
     12  C         3.0997517471   -0.7757391751    0.6488249545
     13  C         1.6186917743   -1.2470165695    0.4367411248
     14  O         0.9789661998   -1.9876736788    1.2228990245
     15  O        -2.7073052464   -2.5603309098    0.8136111526
     16  O         1.2139459601   -0.8483296036   -0.8663408908
     17  O         1.8631087557    1.9998074554   -1.2744610858
     18  C         0.0014667214   -1.5651906029   -1.3379592470
     19  C         4.4180476912    0.3445044040   -1.0930883289
     20  C         5.8455692059   -0.0451633070   -0.5417926453
     21  C         5.5374978256   -1.4519800472    0.0970238682
     22  C         4.0225835132   -1.6513508900   -0.3125987072
     23  O         3.9000269426   -0.9430146638   -1.6033651309
     24  H         4.0967918622    1.1693036694    0.9507055857
     25  H         3.3584748227   -0.9234815201    1.7121217312
     26  H         4.3961755389    1.1107789374   -1.8921454805
     27  H         6.5674170330   -0.1294885203   -1.3699681715
     28  H         6.2278752511    0.6838175613    0.1903710822
     29  H         6.1643929938   -2.2447297967   -0.3409379709
     30  H         5.6714839781   -1.4607984874    1.1905976559
     31  H         3.6989947251   -2.7051925228   -0.4184633759
     32  O        -0.8332059756    0.5063965561    0.6702434339
     33  C        -1.7368338096   -3.2793239995    1.6805972892
     34  C        -3.7662108408   -0.9162776177   -1.1948302926
     35  C        -5.0292516353   -0.3203881781   -1.9265557246
     36  C        -4.6141815700    1.1910858579   -2.0645246446
     37  C        -3.1508242517    1.1684380380   -1.4720169072
     38  O        -2.6488642844   -0.1769914044   -1.8354262249
     39  H        -4.8102634750   -0.3636626697    0.6881447635
     40  H        -3.9143135692    1.8425435448    0.5336123887
     41  H        -2.0631676867   -3.2774017948    2.7395306508
     42  H        -3.6144620326   -2.0081602193   -1.2911972848
     43  H        -5.1587598461   -0.7921753365   -2.9138116388
     44  H        -5.9535479063   -0.4584323732   -1.3432718365
     45  H        -4.5990840122    1.5148283006   -3.1172408534
     46  H        -5.2754619288    1.8650505788   -1.4966482627
     47  H        -2.4726609780    1.9529705913   -1.8607528215
     48  H        -0.7236433690   -2.8165928182    1.6036940701
     49  H        -1.7094419583   -4.3177399925    1.3028290272
     50  H         0.2422542699   -1.9635869178   -2.3425869571
     51  H        -0.8801508675   -0.8831406499   -1.4119208881
     52  H        -0.2384181249   -2.3973288318   -0.6537328113
     53  H         0.4491021163    3.1248366664   -0.1580107720
     54  H         1.1698178316    4.1852895255    1.1222900466
     55  H        -0.1236910921    1.8569308411    2.4059332141
     56  H        -0.5406557412    3.6124620566    2.6418387356
   Point Group: c1    Number of degrees of freedom:   162


   Energy is  -1510.290264356

 Hessian Updated using BFGS Update

152 Hessian modes will be used to form the next step
  Hessian Eigenvalues:
     0.001672    0.002000    0.002202    0.002678    0.002724    0.003628
     0.004203    0.004265    0.004316    0.004429    0.004645    0.005747
     0.006747    0.006821    0.010383    0.011321    0.011814    0.013094
     0.021460    0.021663    0.025077    0.025788    0.030424    0.030649
     0.034926    0.035377    0.037987    0.039231    0.040684    0.041355
     0.042053    0.043131    0.045556    0.047158    0.048217    0.050920
     0.051317    0.051855    0.053388    0.053940    0.054365    0.054886
     0.055171    0.055365    0.056516    0.056726    0.057882    0.058617
     0.060467    0.060590    0.063246    0.063875    0.064353    0.064412
     0.069802    0.070328    0.072997    0.073149    0.088177    0.092335
     0.092753    0.093530    0.095317    0.096450    0.097388    0.097524
     0.102456    0.102777    0.105017    0.108657    0.111422    0.112554
     0.114545    0.120684    0.121943    0.134541    0.152369    0.157512
     0.159865    0.159997    0.160000    0.163796    0.164206    0.184535
     0.219453    0.219818    0.220821    0.226321    0.226932    0.236778
     0.238060    0.239106    0.239336    0.240168    0.243736    0.246623
     0.247747    0.248722    0.249404    0.249488    0.249874    0.249973
     0.252767    0.254123    0.254825    0.256232    0.258873    0.262738
     0.264799    0.291631    0.293839    0.305691    0.308029    0.318136
     0.318629    0.323521    0.325317    0.325594    0.328011    0.328046
     0.328581    0.328642    0.328918    0.328970    0.329715    0.329794
     0.330129    0.330977    0.331376    0.332155    0.332853    0.334722
     0.334833    0.334834    0.334863    0.335038    0.335053    0.335165
     0.335217    0.338316    0.339183    0.341705    0.342459    0.405376
     0.406185    0.416152    0.425369    0.812874    0.828599    0.830351
     0.836759   11.659224

 Minimum Search - Taking Simple RFO Step
 Searching for Lamda that Minimizes Along All modes
 Value Taken    Lamda =  -0.02874138
 Calculated Step too Large.  Step scaled by  0.401822
 Step Taken.  Stepsize is  0.300000

                             Maximum     Tolerance    Cnvgd?
         Gradient           0.054040      0.000300      NO
         Displacement       0.191302      0.001200      NO
         Energy change     -0.083716      0.000001      NO


 New Cartesian Coordinates Obtained by Inverse Iteration

 Displacement from previous Coordinates is:  8.630147
 Adding empirical dispersion correction 
 ----------------------------------------------------------------
 Doing -D3(op) with
 s6 =   1.00000
 s8 =   0.78311
 a1 =   0.30000
 a2 =   4.25000
 n  =  10.00000
 -D3 energy without 3body term =     -0.0821826056 hartrees
 ----------------------------------------------------------------
             Standard Nuclear Orientation (Angstroms)
    I     Atom           X                Y                Z
 ----------------------------------------------------------------
    1      O      -2.2912461501    -0.8282748851     2.5492874516
    2      C      -2.5367975185    -1.3010192316     1.4172430294
    3      C      -3.3625630558    -0.5819583924     0.2814577421
    4      C      -2.9571236524     0.9414942092     0.0849637926
    5      C      -1.6166711400     1.3094977608     0.7996129902
    6      O      -1.6782796023     2.6525151293     1.2963531718
    7      C      -0.4150452563     2.8933256853     2.0313692908
    8      C       0.7601959137     3.2972293343     1.0584070254
    9      O       1.8434754596     2.3004111763     1.2198488052
   10      C       2.2491045723     1.8174145778    -0.0696037598
   11      C       3.2654107329     0.6550949064     0.1783300173
   12      C       2.6206543821    -0.7458094740     0.5443594746
   13      C       1.0782665245    -0.9152168173     0.2967458221
   14      O       0.2969879053    -1.5763363506     1.0229803681
   15      O      -2.1231096625    -2.5944039034     0.9836739537
   16      O       0.7569629554    -0.2985735081    -0.9426298667
   17      O       1.8308717130     2.2769852966    -1.1530074280
   18      C      -0.5965149735    -0.6643959207    -1.4329728581
   19      C       4.1288942611     0.2773156676    -1.1021128622
   20      C       5.4639268319    -0.3914690511    -0.5888275860
   21      C       4.9158705073    -1.7746375053    -0.0696178905
   22      C       3.3932965388    -1.6819720863    -0.4902261744
   23      O       3.4082776891    -0.8584588034    -1.7167186289
   24      H       3.9244250935     0.9784222668     1.0041737668
   25      H       2.8346327190    -1.0253843737     1.5909317333
   26      H       4.2434713673     1.0992704698    -1.8352662151
   27      H       6.1706447458    -0.5273545811    -1.4231478652
   28      H       5.9552924849     0.1989121123     0.2009083591
   29      H       5.4059336179    -2.6222423679    -0.5742899741
   30      H       5.0338600845    -1.8966145475     1.0189864572
   31      H       2.8977661818    -2.6533134417    -0.6836452724
   32      O      -0.5912793310     0.5986322822     0.8801295882
   33      C      -1.2025758712    -3.1865076312     1.9893468619
   34      C      -3.1402089974    -1.1487538518    -1.1845667810
   35      C      -4.3728879285    -0.7166839120    -2.0681981491
   36      C      -4.1043456775     0.8261907011    -2.2272210701
   37      C      -2.7193009067     0.9788378312    -1.4846875377
   38      O      -2.0419493277    -0.3154194722    -1.7346075791
   39      H      -4.4315860133    -0.6540581498     0.5564588373
   40      H      -3.7542837357     1.6330525064     0.4077463058
   41      H      -1.6601841216    -3.1967529008     2.9985095752
   42      H      -2.8657421532    -2.2203481810    -1.2175190847
   43      H      -4.3454580582    -1.2311445393    -3.0421476750
   44      H      -5.3353445978    -0.9351715245    -1.5786254648
   45      H      -4.0092733415     1.1158981946    -3.2856728023
   46      H      -4.8891697471     1.4432068174    -1.7609872193
   47      H      -2.0863577554     1.8180580883    -1.8332236186
   48      H      -0.2417308910    -2.6184579816     2.0223832744
   49      H      -1.0198985882    -4.2237799474     1.6540512132
   50      H      -0.4734274086    -0.9948753840    -2.4826325293
   51      H      -1.2939278450     0.2077001349    -1.3984825066
   52      H      -1.0143497509    -1.4885600628    -0.8279516417
   53      H       0.4300780470     3.2653323371    -0.0036341746
   54      H       1.1408385248     4.3138649636     1.2917544717
   55      H      -0.1115155449     1.9520728384     2.5374240310
   56      H      -0.6154423674     3.6832666536     2.7817338215
 ----------------------------------------------------------------
 Molecular Point Group                 C1    NOp =  1
 Largest Abelian Subgroup              C1    NOp =  1
 Nuclear Repulsion Energy =  3497.1068479223 hartrees
 There are      113 alpha and      113 beta electrons
 Applying Cartesian multipole field
    Component          Value
    ---------          -----
     (2,0,0)        1.00000E-12
     (0,2,0)        2.00000E-11
     (0,0,2)       -3.00000E-11
 Nucleus-field energy     =     0.0000000074 hartrees
 Requested basis set is STO-3G
 There are 86 shells and 176 basis functions
 A cutoff of  1.0D-12 yielded   2614 shell pairs
 There are     12682 function pairs
 Smallest overlap matrix eigenvalue = 2.13E-01
 Guess MOs from SCF MO coefficient file
 Reading MOs from coefficient file
 Reading MOs from coefficient file
 A restricted hybrid HF-DFT SCF calculation will be
 performed using Pulay DIIS extrapolation
[...]
      7  C        -0.4409372174    2.7422334685    1.4481529105
      8  C         0.5657610918    2.5872246868    0.2450808892
      9  O         1.6878636599    1.7467989388    0.7266891376
     10  C         2.6419703156    1.5612975248   -0.3318958630
     11  C         3.8243375667    0.6877702228    0.2188232091
     12  C         3.4136369514   -0.7712894356    0.6851955914
     13  C         1.9057781089   -1.1362480907    0.4741137925
     14  O         1.1928995860   -1.7879968476    1.2728155553
     15  O        -2.4223536020   -2.2673016084    0.4983087839
     16  O         1.4948182427   -0.6644037772   -0.8037060566
     17  O         2.5477399028    2.0920939461   -1.4580916626
     18  C         0.0714409011   -0.9969080310   -1.0639679071
     19  C         4.8711239022    0.3645841207   -0.9257817816
     20  C         6.2203996996   -0.0954238571   -0.2497769235
     21  C         5.8323235927   -1.5382285438    0.2450451527
     22  C         4.3417347964   -1.6484007274   -0.2682002328
     23  O         4.3467699851   -0.8816685151   -1.5327012173
     24  H         4.2920990698    1.2388016390    1.0557690979
     25  H         3.6520771891   -0.9404354801    1.7497687432
     26  H         4.9561648490    1.1596976975   -1.6918287444
     27  H         7.0326538484   -0.1286064679   -0.9932826662
     28  H         6.5222880702    0.5706018566    0.5743864087
     29  H         6.4593439839   -2.3106535107   -0.2279248468
     30  H         5.9025479068   -1.6474764414    1.3391207161
     31  H         3.9774515259   -2.6800516383   -0.4396314423
     32  O        -1.3459425359    0.2641956445    1.2314430052
     33  C        -1.5079112823   -3.0852391735    1.3343773959
     34  C        -4.1626803460   -0.9393269137   -1.1190715128
     35  C        -5.4107849329   -0.2496477775   -1.7974324406
     36  C        -4.9080656362    1.2365214207   -1.9194888372
     37  C        -3.4492861867    1.1139985811   -1.3264370830
     38  O        -3.0103290524   -0.2373641439   -1.7345884081
     39  H        -5.1235828238   -0.4653687550    0.8454053695
     40  H        -4.2441224482    1.7431573349    0.6799459042
     41  H        -1.8851918569   -3.1241012177    2.3749233618
     42  H        -4.0755375660   -2.0313143413   -1.2746135076
     43  H        -5.6026667400   -0.6923711732   -2.7877482882
     44  H        -6.3219316683   -0.3426945602   -1.1853146292
     45  H        -4.8689844195    1.5677915584   -2.9694331377
     46  H        -5.5289382808    1.9451750820   -1.3483206724
     47  H        -2.7314556030    1.8824836093   -1.6745379935
     48  H        -0.4884681524   -2.6300401733    1.3169748514
     49  H        -1.4822341288   -4.1010140456    0.8969342069
     50  H        -0.2037090297   -0.4579575249   -1.9885061369
     51  H        -0.5812895356   -0.6708945644   -0.2231494107
     52  H        -0.0596795632   -2.0855584625   -1.2237339565
     53  H         0.0541984582    2.0997198119   -0.6145904316
     54  H         0.9339870858    3.5766150379   -0.1018572018
     55  H        -0.1811876183    1.9851333636    2.2193373324
     56  H        -0.3912247294    3.7583408849    1.8851854895
   Point Group: c1    Number of degrees of freedom:   162


   Energy is  -1510.297736748

 Hessian Updated using BFGS Update

162 Hessian modes will be used to form the next step
  Hessian Eigenvalues:
     0.001745    0.002243    0.002599    0.003320    0.003473    0.004853
     0.005091    0.005718    0.008049    0.009655    0.012887    0.015062
     0.018766    0.021882    0.022083    0.025503    0.026572    0.027828
     0.030356    0.031586    0.031981    0.032655    0.034605    0.036522
     0.037932    0.039374    0.041663    0.042075    0.042585    0.043058
     0.045943    0.047747    0.049199    0.050185    0.051036    0.051528
     0.052037    0.053933    0.054429    0.054659    0.055158    0.055354
     0.056122    0.056524    0.057426    0.057991    0.059074    0.063164
     0.063473    0.064218    0.064315    0.064936    0.067463    0.069421
     0.069911    0.072457    0.073176    0.073834    0.076460    0.089931
     0.092813    0.092968    0.095807    0.099653    0.101392    0.101818
     0.105064    0.106192    0.106811    0.108093    0.110492    0.111972
     0.116303    0.122760    0.131739    0.137470    0.140268    0.148585
     0.157911    0.159804    0.160835    0.162630    0.165599    0.165862
     0.169921    0.171846    0.184674    0.199451    0.212283    0.221756
     0.224877    0.229956    0.234754    0.237594    0.238718    0.239692
     0.240631    0.241576    0.244630    0.247794    0.249108    0.250533
     0.252401    0.252660    0.253763    0.258621    0.259169    0.260721
     0.266799    0.268206    0.283829    0.286118    0.289093    0.292817
     0.293927    0.299622    0.305954    0.311666    0.319527    0.321086
     0.323652    0.324535    0.325782    0.326089    0.328294    0.328418
     0.328658    0.328981    0.329384    0.330047    0.330226    0.330966
     0.331890    0.332153    0.332359    0.333432    0.334464    0.334780
     0.334846    0.334873    0.335047    0.335099    0.335202    0.335446
     0.335992    0.345000    0.350724    0.357022    0.370721    0.378237
     0.406907    0.441016    0.459983    0.488725    0.598426    0.808336
     0.824692    0.834655    0.838134    0.878497    1.549504    4.610614

 Minimum Search - Taking Simple RFO Step
 Searching for Lamda that Minimizes Along All modes
 Value Taken    Lamda =   0.00000000
 Step Taken.  Stepsize is  0.005134

                             Maximum     Tolerance    Cnvgd?
         Gradient           0.000059      0.000300     YES
         Displacement       0.001478      0.001200      NO
         Energy change     -0.000001      0.000001     YES

 Final energy is   -1510.29773674767     


 ******************************
 **  OPTIMIZATION CONVERGED  **
 ******************************

                       Coordinates (Angstroms)
     ATOM                X               Y               Z
      1  O        -3.2797513433   -1.4693614741    2.5674261795
      2  C        -3.2242179677   -1.4178172640    1.3178479753
      3  C        -4.1118752747   -0.4890632847    0.4026350524
      4  C        -3.5558082011    0.9891638283    0.2588929871
      5  C        -2.1443039505    1.1722961035    0.8967976573
      6  O        -1.8454107146    2.5645846208    1.0011632512
      7  C        -0.4409372174    2.7422334685    1.4481529105
      8  C         0.5657610918    2.5872246868    0.2450808892
      9  O         1.6878636599    1.7467989388    0.7266891376
     10  C         2.6419703156    1.5612975248   -0.3318958630
     11  C         3.8243375667    0.6877702228    0.2188232091
     12  C         3.4136369514   -0.7712894356    0.6851955914
     13  C         1.9057781089   -1.1362480907    0.4741137925
     14  O         1.1928995860   -1.7879968476    1.2728155553
     15  O        -2.4223536020   -2.2673016084    0.4983087839
     16  O         1.4948182427   -0.6644037772   -0.8037060566
     17  O         2.5477399028    2.0920939461   -1.4580916626
     18  C         0.0714409011   -0.9969080310   -1.0639679071
     19  C         4.8711239022    0.3645841207   -0.9257817816
     20  C         6.2203996996   -0.0954238571   -0.2497769235
     21  C         5.8323235927   -1.5382285438    0.2450451527
     22  C         4.3417347964   -1.6484007274   -0.2682002328
     23  O         4.3467699851   -0.8816685151   -1.5327012173
     24  H         4.2920990698    1.2388016390    1.0557690979
     25  H         3.6520771891   -0.9404354801    1.7497687432
     26  H         4.9561648490    1.1596976975   -1.6918287444
     27  H         7.0326538484   -0.1286064679   -0.9932826662
     28  H         6.5222880702    0.5706018566    0.5743864087
     29  H         6.4593439839   -2.3106535107   -0.2279248468
     30  H         5.9025479068   -1.6474764414    1.3391207161
     31  H         3.9774515259   -2.6800516383   -0.4396314423
     32  O        -1.3459425359    0.2641956445    1.2314430052
     33  C        -1.5079112823   -3.0852391735    1.3343773959
     34  C        -4.1626803460   -0.9393269137   -1.1190715128
     35  C        -5.4107849329   -0.2496477775   -1.7974324406
     36  C        -4.9080656362    1.2365214207   -1.9194888372
     37  C        -3.4492861867    1.1139985811   -1.3264370830
     38  O        -3.0103290524   -0.2373641439   -1.7345884081
     39  H        -5.1235828238   -0.4653687550    0.8454053695
     40  H        -4.2441224482    1.7431573349    0.6799459042
     41  H        -1.8851918569   -3.1241012177    2.3749233618
     42  H        -4.0755375660   -2.0313143413   -1.2746135076
     43  H        -5.6026667400   -0.6923711732   -2.7877482882
     44  H        -6.3219316683   -0.3426945602   -1.1853146292
     45  H        -4.8689844195    1.5677915584   -2.9694331377
     46  H        -5.5289382808    1.9451750820   -1.3483206724
     47  H        -2.7314556030    1.8824836093   -1.6745379935
     48  H        -0.4884681524   -2.6300401733    1.3169748514
     49  H        -1.4822341288   -4.1010140456    0.8969342069
     50  H        -0.2037090297   -0.4579575249   -1.9885061369
     51  H        -0.5812895356   -0.6708945644   -0.2231494107
     52  H        -0.0596795632   -2.0855584625   -1.2237339565
     53  H         0.0541984582    2.0997198119   -0.6145904316
     54  H         0.9339870858    3.5766150379   -0.1018572018
     55  H        -0.1811876183    1.9851333636    2.2193373324
     56  H        -0.3912247294    3.7583408849    1.8851854895

Z-matrix Print:
$molecule
0 1
O 
C  1 1.254598
O  2 1.427829 1 123.579611
C  3 1.484555 2 109.678135 1 4.573372 0
H  4 1.107223 3 105.732012 2 -158.251205 0
H  4 1.111484 3 110.394832 2 -39.407657 0
C  2 1.559745 1 126.868018 3 177.111694 0
H  7 1.104341 2 109.144249 1 141.607254 0
C  4 1.576341 3 111.260984 2 80.813629 0
H  9 1.111238 4 111.244409 3 102.948755 0
H  9 1.112831 4 109.821194 3 -15.973436 0
O  9 1.482355 4 106.930748 3 -135.925523 0
C  12 1.437126 9 109.658805 4 179.698179 0
O  13 1.248576 12 124.015817 9 3.134469 0
C  13 1.569820 12 108.267525 9 179.128231 0
H  15 1.105855 13 107.868029 12 -61.073662 0
C  15 1.584403 13 110.958053 12 176.340188 0
H  17 1.107369 15 113.830120 13 31.429316 0
O  17 1.482040 15 103.510128 13 -88.372620 0
C  19 1.478806 17 94.992578 15 -56.505525 0
H  20 1.107427 19 110.594730 17 -179.710295 0
C  17 1.577699 15 108.358501 13 162.232961 0
H  22 1.101662 17 110.496950 15 -168.296742 0
H  22 1.101804 17 112.245770 15 -46.750794 0
C  22 1.573892 17 101.018306 15 73.586951 0
H  25 1.101588 22 111.558902 17 118.602898 0
H  25 1.101757 22 112.791888 17 -118.722084 0
C  7 1.585884 2 112.934740 1 15.630353 0
H  28 1.104608 7 109.723599 2 127.761809 0
C  28 1.577382 7 113.834557 2 7.660171 0
O  30 1.251873 28 125.339906 7 83.123743 0
O  30 1.426974 28 109.481899 7 -101.439627 0
C  32 1.484667 30 110.527429 28 176.037419 0
H  33 1.106261 32 107.306236 30 139.753024 0
H  33 1.107514 32 109.791481 30 19.844220 0
H  33 1.116590 32 109.206013 30 -100.683755 0
C  15 1.585886 13 114.838563 12 62.233836 0
H  37 1.103984 15 111.629731 13 -120.754892 0
C  37 1.565691 15 115.101073 13 2.260399 0
O  39 1.253354 37 125.666534 15 -140.266245 0
O  39 1.422796 37 108.780770 15 42.609244 0
C  41 1.484688 39 111.104892 37 179.402527 0
H  42 1.104964 41 106.031623 39 171.037701 0
H  42 1.108096 41 111.023018 39 -70.455865 0
H  42 1.113246 41 111.354246 39 51.324519 0
C  28 1.587737 7 100.876217 2 -114.893681 0
H  46 1.106446 28 114.336432 7 153.651879 0
O  46 1.483080 28 103.808467 7 33.386630 0
C  48 1.478327 46 95.012131 28 -56.410767 0
H  49 1.107711 48 110.793202 46 -179.989749 0
C  46 1.579112 28 108.249272 7 -75.850286 0
H  51 1.101605 46 112.218535 28 -46.915860 0
H  51 1.101612 46 110.385175 28 -168.401669 0
C  51 1.573634 46 101.145246 28 73.525734 0
H  54 1.101658 51 111.668968 46 118.948673 0
H  54 1.101774 51 112.780990 46 -118.293199 0
$end

 
 --------------------------------------------------------------
 
                    Orbital Energies (a.u.)
 --------------------------------------------------------------
 
 Alpha MOs
 -- Occupied --
-18.950 -18.933 -18.930 -18.913 -18.894 -18.890 -18.886 -18.875
-18.873 -18.852 -10.113 -10.099 -10.099 -10.086 -10.081 -10.076
-10.066 -10.059 -10.059 -10.056 -10.044 -10.040 -10.036 -10.035
-10.033 -10.024 -10.024 -10.021 -10.019 -10.018  -1.028  -1.013
 -1.004  -0.992  -0.973  -0.968  -0.951  -0.935  -0.933  -0.917
 -0.766  -0.762  -0.730  -0.723  -0.714  -0.705  -0.699  -0.649
 -0.639  -0.619  -0.596  -0.582  -0.548  -0.545  -0.538  -0.536
 -0.514  -0.508  -0.489  -0.473  -0.462  -0.457  -0.453  -0.442
 -0.436  -0.434  -0.426  -0.417  -0.407  -0.402  -0.401  -0.399
 -0.388  -0.380  -0.368  -0.365  -0.359  -0.357  -0.355  -0.345
 -0.342  -0.333  -0.332  -0.330  -0.326  -0.323  -0.322  -0.313
 -0.307  -0.307  -0.304  -0.301  -0.294  -0.289  -0.280  -0.275
 -0.271  -0.262  -0.254  -0.243  -0.239  -0.232  -0.229  -0.192
 -0.176  -0.171  -0.166  -0.160  -0.152  -0.149  -0.144  -0.142
 -0.136
 -- Virtual --
  0.081   0.094   0.113   0.119   0.211   0.244   0.246   0.255
  0.264   0.274   0.285   0.290   0.306   0.309   0.323   0.326
  0.336   0.338   0.346   0.349   0.356   0.360   0.361   0.367
  0.371   0.379   0.383   0.389   0.399   0.401   0.406   0.410
  0.413   0.418   0.420   0.427   0.430   0.432   0.440   0.442
  0.447   0.450   0.454   0.457   0.460   0.466   0.469   0.471
  0.476   0.481   0.489   0.491   0.503   0.506   0.510   0.534
  0.541   0.550   0.554   0.633   0.645   0.653   0.656
 --------------------------------------------------------------
 
          Ground-State Mulliken Net Atomic Charges

     Atom                 Charge (a.u.)
  ----------------------------------------
      1 O                    -0.224898
      2 C                     0.211924
      3 C                    -0.081230
      4 C                    -0.079075
      5 C                     0.216737
      6 O                    -0.168072
      7 C                    -0.051370
      8 C                    -0.048519
      9 O                    -0.176617
     10 C                     0.217196
     11 C                    -0.078501
     12 C                    -0.078473
     13 C                     0.218639
     14 O                    -0.212051
     15 O                    -0.175644
     16 O                    -0.166963
     17 O                    -0.212811
     18 C                    -0.139476
     19 C                     0.024864
     20 C                    -0.144019
     21 C                    -0.143877
     22 C                     0.025851
     23 O                    -0.185807
     24 H                     0.083309
     25 H                     0.085551
     26 H                     0.090168
     27 H                     0.078015
     28 H                     0.072702
     29 H                     0.078036
     30 H                     0.073861
     31 H                     0.082766
     32 O                    -0.204996
     33 C                    -0.151249
     34 C                     0.025523
     35 C                    -0.144049
     36 C                    -0.143606
     37 C                     0.024865
     38 O                    -0.190546
     39 H                     0.083188
     40 H                     0.088840
     41 H                     0.091178
     42 H                     0.091694
     43 H                     0.078310
     44 H                     0.074210
     45 H                     0.078888
     46 H                     0.074522
     47 H                     0.081851
     48 H                     0.112765
     49 H                     0.074141
     50 H                     0.090106
     51 H                     0.110567
     52 H                     0.085375
     53 H                     0.089312
     54 H                     0.087908
     55 H                     0.106429
     56 H                     0.092557
  ----------------------------------------
  Sum of atomic charges =    -0.000000

 -----------------------------------------------------------------
                    Cartesian Multipole Moments
 -----------------------------------------------------------------
    Charge (ESU x 10^10)
                -0.0000
    Dipole Moment (Debye)
         X      -0.2086      Y       1.9102      Z       0.2147
       Tot       1.9335
    Quadrupole Moments (Debye-Ang)
        XX    -138.8953     XY      -4.2408     YY    -153.5978
        XZ      13.8809     YZ       5.0872     ZZ    -170.7248
    Octopole Moments (Debye-Ang^2)
       XXX       2.5376    XXY       9.5728    XYY       2.3402
       YYY       9.6126    XXZ       2.8070    XYZ      -2.5773
       YYZ       6.7186    XZZ       1.6232    YZZ      17.7658
       ZZZ      -4.2452
    Hexadecapole Moments (Debye-Ang^3)
      XXXX  -11013.5804   XXXY      80.4172   XXYY   -2358.9387
      XYYY     139.4151   YYYY   -2418.3501   XXXZ      90.8356
      XXYZ      53.2767   XYYZ      -2.7857   YYYZ     150.6812
      XXZZ   -2294.1754   XYZZ      16.8200   YYZZ    -671.4975
      XZZZ      35.8017   YZZZ     146.8578   ZZZZ   -1513.9380
 -----------------------------------------------------------------
Archival summary:
1\1\vega02.cac.cornell.edu\OPT\ProcedureUnspecified\STO-3G\102026\jj585\TueJan1608:53:542018TueJan1608:53:542018\0\\#,OPT,ProcedureUnspecified,STO-3G,\\0,1\O\C,1,1.2546\O,2,1.42783,1,123.58\C,3,1.48456,2,109.678,1,4.57337,0\H,4,1.10722,3,105.732,2,-158.251,0\H,4,1.11148,3,110.395,2,-39.4077,0\C,2,1.55974,1,126.868,3,177.112,0\H,7,1.10434,2,109.144,1,141.607,0\C,4,1.57634,3,111.261,2,80.8136,0\H,9,1.11124,4,111.244,3,102.949,0\H,9,1.11283,4,109.821,3,-15.9734,0\O,9,1.48235,4,106.931,3,-135.926,0\C,12,1.43713,9,109.659,4,179.698,0\O,13,1.24858,12,124.016,9,3.13447,0\C,13,1.56982,12,108.268,9,179.128,0\H,15,1.10585,13,107.868,12,-61.0737,0\C,15,1.5844,13,110.958,12,176.34,0\H,17,1.10737,15,113.83,13,31.4293,0\O,17,1.48204,15,103.51,13,-88.3726,0\C,19,1.47881,17,94.9926,15,-56.5055,0\H,20,1.10743,19,110.595,17,-179.71,0\C,17,1.5777,15,108.359,13,162.233,0\H,22,1.10166,17,110.497,15,-168.297,0\H,22,1.1018,17,112.246,15,-46.7508,0\C,22,1.57389,17,101.018,15,73.587,0\H,25,1.10159,22,111.559,17,118.603,0\H,25,1.10176,22,112.792,17,-118.722,0\C,7,1.58588,2,112.935,1,15.6304,0\H,28,1.10461,7,109.724,2,127.762,0\C,28,1.57738,7,113.835,2,7.66017,0\O,30,1.25187,28,125.34,7,83.1237,0\O,30,1.42697,28,109.482,7,-101.44,0\C,32,1.48467,30,110.527,28,176.037,0\H,33,1.10626,32,107.306,30,139.753,0\H,33,1.10751,32,109.791,30,19.8442,0\H,33,1.11659,32,109.206,30,-100.684,0\C,15,1.58589,13,114.839,12,62.2338,0\H,37,1.10398,15,111.63,13,-120.755,0\C,37,1.56569,15,115.101,13,2.2604,0\O,39,1.25335,37,125.667,15,-140.266,0\O,39,1.4228,37,108.781,15,42.6092,0\C,41,1.48469,39,111.105,37,179.403,0\H,42,1.10496,41,106.032,39,171.038,0\H,42,1.1081,41,111.023,39,-70.4559,0\H,42,1.11325,41,111.354,39,51.3245,0\C,28,1.58774,7,100.876,2,-114.894,0\H,46,1.10645,28,114.336,7,153.652,0\O,46,1.48308,28,103.808,7,33.3866,0\C,48,1.47833,46,95.0121,28,-56.4108,0\H,49,1.10771,48,110.793,46,-179.99,0\C,46,1.57911,28,108.249,7,-75.8503,0\H,51,1.10161,46,112.219,28,-46.9159,0\H,51,1.10161,46,110.385,28,-168.402,0\C,51,1.57363,46,101.145,28,73.5257,0\H,54,1.10166,51,111.669,46,118.949,0\H,54,1.10177,51,112.781,46,-118.293,0\\\@

 Total job time:  132.58s(wall), 6322.28s(cpu) 
 Tue Jan 16 08:53:54 2018

        *************************************************************
        *                                                           *
        *  Thank you very much for using Q-Chem.  Have a nice day.  *
        *                                                           *
        *************************************************************


0 sent ACK to 0 
now end server 0 ... 
