mFile = /opt/software/qchem/qchem-5.0.1//bin/mpi/machines
Process 0 of 1 is on vega02.cac.cornell.edu - thread support 0
initial socket setup ...start
initial socket setup ...done 
now start server 0 ... 
vega02.cac.cornell.edu 10.84.3
Q-Chem Developer Version! Running on 10.84.3.*
                  Welcome to Q-Chem
     A Quantum Leap Into The Future Of Chemistry


 Q-Chem 5.0, Q-Chem, Inc., Pleasanton, CA (2017)

 Yihan Shao,  Zhengting Gan,  E. Epifanovsky,  A. T. B. Gilbert,  M. Wormit,  
 J. Kussmann,  A. W. Lange,  A. Behn,  Jia Deng,  Xintian Feng,  D. Ghosh,  
 M. Goldey,  P. R. Horn,  L. D. Jacobson,  I. Kaliman,  T. Kus,  A. Landau,  
 Jie Liu,  E. I. Proynov,  R. M. Richard,  R. P. Steele,  E. J. Sundstrom,  
 H. L. Woodcock III,  P. M. Zimmerman,  D. Zuev,  B. Albrecht,  E. Alguire,  
 S. A. Baeppler,  Z. Benda,  Y. A. Bernard,  E. J. Berquist,  K. B. Bravaya,  
 D. Casanova,  Chun-Min Chang,  Yunqing Chen,  A. Chien,  K. D. Closser,  
 M. P. Coons,  S. Dasgupta,  M. Diedenhofen,  Hainam Do,  R. G. Edgar,  
 Po-Tung Fang,  S. Fatehi,  Qingguo Feng,  Qinghui Ge,  A. Ghysels,  
 J. Gomes,  J. Gonthier,  A. Gunina,  M. W. D. Hanson-Heine,  
 P. H. P. Harbach,  A. W. Hauser,  J. E. Herr,  E. G. Hohenstein,  
 Z. C. Holden,  Kerwin Hui,  T.-C. Jagau,  Hyunjun Ji,  B. Kaduk,  
 K. Khistyaev,  Jaehoon Kim,  P. Klunzinger,  K. Koh,  D. Kosenkov,  
 T. Kowalczyk,  C. M. Krauter,  A. Kunitsa,  Ka Un Lao,  A. Laurent,  
 K. V. Lawler,  Joonho Lee,  D. Lefrancois,  S. Lehtola,  D. S. Levine,  
 Yi-Pei Li,  You-Sheng Lin,  Fenglai Liu,  E. Livshits,  A. Luenser,  
 P. Manohar,  E. Mansoor,  S. F. Manzer,  Shan-Ping Mao,  Yuezhi Mao,  
 N. Mardirossian,  A. V. Marenich,  L. A. Martinez-Martinez,  S. A. Maurer,  
 N. J. Mayhall,  S. C. McKenzie,  J.-M. Mewes,  A. F. Morrison,  K. Nanda,  
 T. S. Nguyen-Beck,  R. Olivares-Amaya,  J. A. Parkhill,  T. M. Perrine,  
 F. Plasser,  S. Prager,  A. Prociuk,  D. R. Rehn,  F. Rob,  M. Schneider,  
 N. Sergueev,  S. M. Sharada,  S. Sharma,  D. W. Small,  T. Stauch,  
 T. Stein,  Yu-Chuan Su,  A. J. W. Thom,  T. Tsuchimochi,  L. Vogt,  
 O. Vydrov,  M. A. Watson,  J. Wenzel,  M. de Wergifosse,  T. A. Wesolowski,  
 A. White,  J. Witte,  A. Yamada,  Jun Yang,  K. Yao,  S. Yeganeh,  
 S. R. Yost,  Zhi-Qiang You,  A. Zech,  Igor Ying Zhang,  Xing Zhang,  
 Yan Zhao,  Ying Zhu,  B. R. Brooks,  G. K. L. Chan,  C. J. Cramer,  
 M. S. Gordon,  W. J. Hehre,  A. Klamt,  M. W. Schmidt,  C. D. Sherrill,  
 D. G. Truhlar,  A. Aspuru-Guzik,  R. Baer,  A. T. Bell,  N. A. Besley,  
 Jeng-Da Chai,  A. Dreuw,  B. D. Dunietz,  T. R. Furlani,  Chao-Ping Hsu,  
 Yousung Jung,  Jing Kong,  D. S. Lambrecht,  WanZhen Liang,  C. Ochsenfeld,  
 V. A. Rassolov,  L. V. Slipchenko,  J. E. Subotnik,  T. Van Voorhis,  
 J. M. Herbert,  A. I. Krylov,  P. M. W. Gill,  M. Head-Gordon

 Contributors to earlier versions of Q-Chem not listed above: 
 R. D. Adamson,  B. Austin,  J. Baker,  G. J. O. Beran,  K. Brandhorst,  
 S. T. Brown,  E. F. C. Byrd,  A. K. Chakraborty,  C.-L. Cheng,  
 Siu Hung Chien,  D. M. Chipman,  D. L. Crittenden,  H. Dachsel,  
 R. A. DiStasio Jr.,  R. J. Doerksen,  A. D. Dutoi,  L. Fusti-Molnar,  
 W. A. Goddard III,  A. Golubeva-Zadorozhnaya,  S. R. Gwaltney,  G. Hawkins,  
 A. Heyden,  S. Hirata,  G. Kedziora,  F. J. Keil,  C. Kelley,  Jihan Kim,  
 R. A. King,  R. Z. Khaliullin,  P. P. Korambath,  W. Kurlancheek,  
 A. M. Lee,  M. S. Lee,  S. V. Levchenko,  Ching Yeh Lin,  D. Liotard,  
 R. C. Lochan,  I. Lotan,  P. E. Maslen,  N. Nair,  D. P. O'Neill,  
 D. Neuhauser,  E. Neuscamman,  C. M. Oana,  R. Olson,  B. Peters,  
 R. Peverati,  P. A. Pieniazek,  Y. M. Rhee,  J. Ritchie,  M. A. Rohrdanz,  
 E. Rosta,  N. J. Russ,  H. F. Schaefer III,  N. E. Schultz,  N. Shenvi,  
 A. C. Simmonett,  A. Sodt,  D. Stuck,  K. S. Thanthiriwatte,  V. Vanovschi,  
 Tao Wang,  A. Warshel,  C. F. Williams,  Q. Wu,  X. Xu,  W. Zhang

 Please cite Q-Chem as follows:
 Y. Shao et al., Mol. Phys. 113, 184-215 (2015)
 DOI: 10.1080/00268976.2014.952696

 Q-Chem 5.0.1 for Intel X86 EM64T Linux

 Parts of Q-Chem use Armadillo 5.200.1 (Boston Tea Smuggler).
 http://arma.sourceforge.net/

 Q-Chem begins on Tue Jan 16 10:18:17 2018  

Host: vega02.cac.cornell.edu
0

     Scratch files written to /scratch/jj585/SOT1001/1120r.save//
 Parallel job on  1  processors

Checking the input file for inconsistencies... 	...done.

--------------------------------------------------------------
User input:
--------------------------------------------------------------
$molecule
0  1
O -0.3999776423 -1.5611539878 -1.5144444219
C -0.1946403119 -0.7086712895 -0.6623199791
C -1.2279869352 0.2542464351 -0.120492512
C -2.6932419706 -0.2114464581 -0.1255605222
C -2.9410235774 -1.6542475741 -0.5063539998
O -2.0845244521 -2.4685158788 0.178346998
C -1.066533264 -1.7498185448 0.882919068
C -0.4345700938 -0.70364624 -0.0293664301
O -0.5528318061 0.598873713 0.5641962304
C 0.6147734294 1.2631674934 0.7500752071
C 1.7917533899 0.3388794488 0.9527170004
C 2.1649044402 -0.5117022823 -0.2702030465
C 1.563143745 -0.0716554415 -1.5896600334
O 2.1301867815 -0.1014238835 -2.6723060727
O 1.0727947376 -1.85981437 0.7914817643
O 0.9730271812 1.1922079219 -1.6324067845
O 0.6625677913 2.4795451289 0.8760478037
C 0.6672855483 2.0101527573 -2.7237933252
C 3.0570721838 1.1602217997 1.2540731717
C 4.1271996345 0.2735081924 1.8949770243
C 4.5912634647 -0.4846295774 0.6839799871
C 3.6364198404 0.0865596863 -0.3732991482
O 3.5439729751 1.4364904571 -0.0150438048
H 1.5778351244 -0.1421185602 1.9380804927
H 2.6618521401 -1.4809496616 -0.515668713
H 2.8681935425 2.0416017638 1.906036521
H 4.968071258 0.8991318487 2.2700659647
H 3.7274814473 -0.3530773295 2.7214714688
H 5.6180823979 -0.1334447153 0.4315592239
H 4.6042853604 -1.5900588621 0.776891539
H 4.1264378153 -0.0676216337 -1.364844787
O -3.8430528515 -2.0750576359 -1.216294878
C 1.6988602635 -3.1369518752 0.7899538028
C -2.3726638267 1.682545496 0.7225828539
C -3.6384417666 2.3082171144 0.0518934089
C -4.6517797869 1.2566959294 0.462833569
C -3.6571193299 0.2460057341 1.0283354781
O -2.8752420401 1.0427676497 1.8291993103
H -1.3359261088 1.2087892083 -1.0643824117
H -3.2279949901 0.1852875009 -1.0356451743
H 1.604969228 -3.6280303078 -0.2026218354
H -1.7545858158 2.5656197391 0.9995384661
H -3.9383826862 3.2728013151 0.5182155207
H -3.4675218029 2.4413103222 -1.038508501
H -5.2726909697 1.6225886638 1.3118173569
H -5.3061260286 0.8957728247 -0.3602949442
H -4.1259490486 -0.5910629763 1.5906190148
H 1.2284155252 -3.7774738701 1.563913
H 2.7716346587 -3.0433537891 1.0517729441
H -0.4074621298 2.2745200672 -2.7202181164
H 0.8831041282 1.5388000385 -3.705443795
H 1.2513049385 2.9495849047 -2.6430353265
H -0.3185305298 -2.583644444 -0.0131455464
H -1.6281449931 -0.3382003081 -1.9272739649
H -0.7346290618 -2.3033500916 1.840440034
H -1.5971392553 -1.2193593883 1.7207029614
$end

$rem
JOBTYPE                   OPT
METHOD                    B3LYP
DFT_D                     d3_op
BASIS                     STO-3G
GEOM_OPT_MAX_CYCLES       100
GEOM_OPT_TOL_GRADIENT     300
GEOM_OPT_TOL_DISPLACEMENT 1200
GEOM_OPT_TOL_ENERGY       100
SYMMETRY                  False
THRESH                    12
SCF_CONVERGENCE           8
MAX_SUB_FILE_NUM          128
MEM_STATIC                400
MEM_TOTAL                 4000
$end
--------------------------------------------------------------
 Adding empirical dispersion correction 
 ----------------------------------------------------------------
 Doing -D3(op) with
 s6 =   1.00000
 s8 =   0.78311
 a1 =   0.30000
 a2 =   4.25000
 n  =  10.00000
 -D3 energy without 3body term =     -0.0949534763 hartrees
 ----------------------------------------------------------------
             Standard Nuclear Orientation (Angstroms)
    I     Atom           X                Y                Z
 ----------------------------------------------------------------
    1      O      -0.3999776423    -1.5611539878    -1.5144444219
    2      C      -0.1946403119    -0.7086712895    -0.6623199791
    3      C      -1.2279869352     0.2542464351    -0.1204925120
    4      C      -2.6932419706    -0.2114464581    -0.1255605222
    5      C      -2.9410235774    -1.6542475741    -0.5063539998
    6      O      -2.0845244521    -2.4685158788     0.1783469980
    7      C      -1.0665332640    -1.7498185448     0.8829190680
    8      C      -0.4345700938    -0.7036462400    -0.0293664301
    9      O      -0.5528318061     0.5988737130     0.5641962304
   10      C       0.6147734294     1.2631674934     0.7500752071
   11      C       1.7917533899     0.3388794488     0.9527170004
   12      C       2.1649044402    -0.5117022823    -0.2702030465
   13      C       1.5631437450    -0.0716554415    -1.5896600334
   14      O       2.1301867815    -0.1014238835    -2.6723060727
   15      O       1.0727947376    -1.8598143700     0.7914817643
   16      O       0.9730271812     1.1922079219    -1.6324067845
   17      O       0.6625677913     2.4795451289     0.8760478037
   18      C       0.6672855483     2.0101527573    -2.7237933252
   19      C       3.0570721838     1.1602217997     1.2540731717
   20      C       4.1271996345     0.2735081924     1.8949770243
   21      C       4.5912634647    -0.4846295774     0.6839799871
   22      C       3.6364198404     0.0865596863    -0.3732991482
   23      O       3.5439729751     1.4364904571    -0.0150438048
   24      H       1.5778351244    -0.1421185602     1.9380804927
   25      H       2.6618521401    -1.4809496616    -0.5156687130
   26      H       2.8681935425     2.0416017638     1.9060365210
   27      H       4.9680712580     0.8991318487     2.2700659647
   28      H       3.7274814473    -0.3530773295     2.7214714688
   29      H       5.6180823979    -0.1334447153     0.4315592239
   30      H       4.6042853604    -1.5900588621     0.7768915390
   31      H       4.1264378153    -0.0676216337    -1.3648447870
   32      O      -3.8430528515    -2.0750576359    -1.2162948780
   33      C       1.6988602635    -3.1369518752     0.7899538028
   34      C      -2.3726638267     1.6825454960     0.7225828539
   35      C      -3.6384417666     2.3082171144     0.0518934089
   36      C      -4.6517797869     1.2566959294     0.4628335690
   37      C      -3.6571193299     0.2460057341     1.0283354781
   38      O      -2.8752420401     1.0427676497     1.8291993103
   39      H      -1.3359261088     1.2087892083    -1.0643824117
   40      H      -3.2279949901     0.1852875009    -1.0356451743
   41      H       1.6049692280    -3.6280303078    -0.2026218354
   42      H      -1.7545858158     2.5656197391     0.9995384661
   43      H      -3.9383826862     3.2728013151     0.5182155207
   44      H      -3.4675218029     2.4413103222    -1.0385085010
   45      H      -5.2726909697     1.6225886638     1.3118173569
   46      H      -5.3061260286     0.8957728247    -0.3602949442
   47      H      -4.1259490486    -0.5910629763     1.5906190148
   48      H       1.2284155252    -3.7774738701     1.5639130000
   49      H       2.7716346587    -3.0433537891     1.0517729441
   50      H      -0.4074621298     2.2745200672    -2.7202181164
   51      H       0.8831041282     1.5388000385    -3.7054437950
   52      H       1.2513049385     2.9495849047    -2.6430353265
   53      H      -0.3185305298    -2.5836444440    -0.0131455464
   54      H      -1.6281449931    -0.3382003081    -1.9272739649
   55      H      -0.7346290618    -2.3033500916     1.8404400340
   56      H      -1.5971392553    -1.2193593883     1.7207029614
 ----------------------------------------------------------------
 Molecular Point Group                 C1    NOp =  1
 Largest Abelian Subgroup              C1    NOp =  1
 Nuclear Repulsion Energy =  3772.1621575739 hartrees
 There are      113 alpha and      113 beta electrons
 Requested basis set is STO-3G
 There are 86 shells and 176 basis functions

 Total QAlloc Memory Limit   4000 MB
 Mega-Array Size       392 MB
 MEM_STATIC part       400 MB
 A cutoff of  1.0D-12 yielded   2857 shell pairs
 There are     13519 function pairs
 
 -------------------------------------------------------
 OpenMP Integral Computing Module                       
 Release: version 1.0, May 2013, Q-Chem Inc. Pittsburgh 
 -------------------------------------------------------
 Integral Job Info:
 Integral job number is                      11
 Integral operator is                         1
 short-range coefficients                     0
 long-range coefficients              100000000
 Omega coefficients                           0
 if combine SR and LR in K                    0
 Integral screening is                        0
 Integral computing path is                   2
 max size of driver memory is            800000
 size of driver memory is                 45569
 size of scratch memory is              1046100
 max col of scratch BK array                289
 max len of scratch array in speh3           22
 max len of scratch index in speh4            8
 max int batch size is                      520
 min int batch size is                       52
 fixed nKL is                                52
 max L of basis functions is                  1
 order of int derivative is                   0
 number of shells is                         86
 number of basis is                         176
 number of cartesian basis is               176
 number of contracted shell pairs          2857
 number of primitive shell pairs          14705
 maxK2 (contraction) of shell pair            9
 max number of K2 of shell pair               1
 max number of CS2 of shell pair            436
 max number of PS2 of shell pair           1740
 mem total for path MDJ                   70986
 -------------------------------------------------------
 Smallest overlap matrix eigenvalue = 6.47E-03

 Scale SEOQF with 1.000000e-02/1.000000e-01/1.000000e-01

 Standard Electronic Orientation quadrupole field applied
 Nucleus-field energy     =     0.0000000058 hartrees
 Guess from superposition of atomic densities
 Warning:  Energy on first SCF cycle will be non-variational
 A restricted hybrid HF-DFT SCF calculation will be
 performed using Pulay DIIS extrapolation
 Exchange:     0.2000 Hartree-Fock + 0.0800 Slater + 0.7200 B88
 Correlation:  0.1900 VWN1RPA + 0.8100 LYP
 Using SG-1 standard quadrature grid
 Dispersion:   Grimme D3
 SCF converges when DIIS error is below 1.0E-08
 using 48 threads for integral computing
 -------------------------------------------------------
 OpenMP Integral computing Module                
 Release: version 1.0, May 2013, Q-Chem Inc. Pittsburgh 
 -------------------------------------------------------
 -------------------------------------------------------
 OpenMP BLAS3 based DFT computing Module                
 Release: version 1.0, May 2013, Q-Chem Inc. Pittsburgh 
 -------------------------------------------------------
 ---------------------------------------
  Cycle       Energy         DIIS Error
 ---------------------------------------
    1   -1511.5967694287      1.07E-01
    2   -1505.1037169413      1.33E-02
    3   -1491.0165724378      4.76E-02
    4   -1504.9674494663      1.47E-02
    5   -1505.4241005503      1.11E-02
    6   -1505.8397776411      5.82E-03
    7   -1504.7239659611      1.39E-02
    8   -1505.9945663615      2.96E-03
    9   -1506.0301163190      1.76E-03
   10   -1506.0412087341      1.22E-03
   11   -1506.0490121821      6.31E-04
   12   -1506.0509625659      3.10E-04
   13   -1506.0514718584      8.37E-05
   14   -1506.0515089427      2.72E-05
   15   -1506.0515115137      1.77E-05
   16   -1506.0515130100      4.28E-06
   17   -1506.0515131213      1.95E-06
   18   -1506.0515131567      8.29E-07
   19   -1506.0515131661      2.93E-07
   20   -1506.0515131684      1.50E-07
   21   -1506.0515131687      4.19E-08
   22   -1506.0515131686      1.60E-08
   23   -1506.0515131684      1.08E-08
   24   -1506.0515131682      3.59E-09 Convergence criterion met
 ---------------------------------------
 SCF time:  CPU 220.21 s  wall 4.65 s
 SCF   energy in the final basis set = -1506.05151317
 Total energy in the final basis set = -1506.05151317
 
 --------------------------------------------------------------
 
                    Orbital Energies (a.u.)
 --------------------------------------------------------------
 
 Alpha MOs
 -- Occupied --
-19.145 -18.960 -18.959 -18.951 -18.905 -18.898 -18.886 -18.884
-18.848 -18.785 -10.501 -10.301 -10.261 -10.201 -10.119 -10.115
-10.095 -10.085 -10.080 -10.074 -10.060 -10.054 -10.054 -10.048
-10.023 -10.021 -10.019 -10.014 -10.010  -9.999  -1.429  -1.092
 -1.070  -1.060  -1.048  -1.039  -1.031  -0.972  -0.938  -0.924
 -0.890  -0.848  -0.792  -0.778  -0.758  -0.748  -0.744  -0.730
 -0.702  -0.683  -0.666  -0.655  -0.621  -0.619  -0.588  -0.566
 -0.552  -0.545  -0.539  -0.528  -0.524  -0.520  -0.500  -0.492
 -0.480  -0.465  -0.451  -0.446  -0.440  -0.435  -0.433  -0.421
 -0.410  -0.398  -0.391  -0.385  -0.382  -0.382  -0.373  -0.363
 -0.362  -0.353  -0.347  -0.343  -0.334  -0.331  -0.327  -0.324
 -0.318  -0.315  -0.314  -0.306  -0.294  -0.293  -0.274  -0.267
 -0.263  -0.251  -0.250  -0.231  -0.227  -0.223  -0.214  -0.207
 -0.191  -0.165  -0.164  -0.153  -0.128  -0.120  -0.111  -0.082
 -0.062
 -- Virtual --
 -0.000   0.030   0.038   0.074   0.102   0.129   0.170   0.222
  0.240   0.250   0.278   0.280   0.299   0.311   0.318   0.320
  0.334   0.345   0.346   0.356   0.359   0.363   0.369   0.387
  0.388   0.400   0.401   0.406   0.410   0.417   0.418   0.422
  0.424   0.438   0.441   0.441   0.446   0.447   0.451   0.456
  0.462   0.467   0.471   0.473   0.478   0.488   0.494   0.498
  0.504   0.514   0.525   0.542   0.545   0.568   0.576   0.589
  0.608   0.635   0.678   0.695   0.933   1.000   3.297
 --------------------------------------------------------------
 
          Ground-State Mulliken Net Atomic Charges

     Atom                 Charge (a.u.)
  ----------------------------------------
      1 O                    -0.158733
      2 C                     0.109742
      3 C                     0.271055
      4 C                    -0.063289
      5 C                     0.233958
      6 O                    -0.175072
      7 C                     0.003065
      8 C                    -0.233466
      9 O                    -0.176260
     10 C                     0.317231
     11 C                    -0.072157
     12 C                    -0.035699
     13 C                     0.255614
     14 O                    -0.229457
     15 O                    -0.221662
     16 O                    -0.233609
     17 O                    -0.155838
     18 C                    -0.101474
     19 C                     0.041906
     20 C                    -0.143938
     21 C                    -0.148653
     22 C                     0.031868
     23 O                    -0.218227
     24 H                     0.101752
     25 H                     0.105712
     26 H                     0.084974
     27 H                     0.076361
     28 H                     0.071070
     29 H                     0.076686
     30 H                     0.072761
     31 H                     0.080316
     32 O                    -0.210431
     33 C                    -0.151938
     34 C                    -0.047562
     35 C                    -0.153273
     36 C                    -0.141956
     37 C                     0.047122
     38 O                    -0.194923
     39 H                     0.085924
     40 H                     0.104573
     41 H                     0.061928
     42 H                     0.050653
     43 H                     0.071417
     44 H                     0.063254
     45 H                     0.077162
     46 H                     0.078627
     47 H                     0.075910
     48 H                     0.054907
     49 H                     0.050420
     50 H                     0.076610
     51 H                     0.100523
     52 H                     0.092975
     53 H                     0.108454
     54 H                    -0.030378
     55 H                     0.103234
     56 H                     0.060230
  ----------------------------------------
  Sum of atomic charges =     0.000000

 -----------------------------------------------------------------
                    Cartesian Multipole Moments
 -----------------------------------------------------------------
    Charge (ESU x 10^10)
                 0.0000
    Dipole Moment (Debye)
         X       0.0616      Y       1.8723      Z       3.0379
       Tot       3.5691
    Quadrupole Moments (Debye-Ang)
        XX    -163.0505     XY     -10.4614     YY    -169.6304
        XZ       2.5680     YZ      -8.9508     ZZ    -163.7888
    Octopole Moments (Debye-Ang^2)
       XXX      23.5356    XXY      14.8904    XYY      10.4068
       YYY       0.5316    XXZ      29.3194    XYZ      17.7781
       YYZ      -2.2713    XZZ      -0.3442    YZZ      13.6052
       ZZZ      -2.1301
    Hexadecapole Moments (Debye-Ang^3)
      XXXX   -6759.3026   XXXY     -80.9860   XXYY   -1603.9379
      XYYY       4.6180   YYYY   -2365.8794   XXXZ     -80.0861
      XXYZ     -20.8080   XYYZ     -45.5440   YYYZ      -9.7806
      XXZZ   -1430.9067   XYZZ      37.9437   YYZZ    -624.8731
      XZZZ      13.9159   YZZZ     -32.2093   ZZZZ   -1570.9731
 -----------------------------------------------------------------
 Calculating analytic gradient of the SCF energy
 Gradient of SCF Energy
            1           2           3           4           5           6
    1   0.0109285  -2.4487490   1.0484719   0.0865994  -0.0037816  -0.0006940
    2   0.1642508   0.2445233  -0.2120594   0.0193569  -0.0170861   0.0868263
    3   0.3038525   6.2451891   0.7286789   0.0630733  -0.0253584  -0.0069228
            7           8           9          10          11          12
    1   0.0434957   2.0966834  -0.6039616  -0.0911905   0.0230444  -0.0807165
    2   0.0048662   0.2039609  -0.4688177  -0.0533112   0.0151665   0.0178585
    3  -0.1701026  -6.3069454  -0.8933226   0.0054774  -0.0730381   0.0263704
           13          14          15          16          17          18
    1  -0.0408011  -0.0623629   0.0440386   0.0796820   0.0176602  -0.0019805
    2  -0.0644409   0.1004865   0.0833607  -0.0575602  -0.0406201  -0.0014988
    3   0.0463808   0.0936641   0.0293263  -0.1475911  -0.0037402   0.0399515
           19          20          21          22          23          24
    1   0.0227456  -0.0124560  -0.0328350  -0.0497133  -0.0277569   0.0036043
    2  -0.0399704   0.0044926   0.0333672   0.0125497  -0.0756832   0.0162959
    3  -0.0644863  -0.0542514   0.0085208   0.0695668   0.0485319   0.0156991
           25          26          27          28          29          30
    1   0.0336431   0.0042536   0.0120584  -0.0043512   0.0076917   0.0027375
    2   0.0175044  -0.0038198   0.0034857  -0.0044471   0.0101558  -0.0064489
    3  -0.0148658   0.0120323  -0.0043017   0.0052548   0.0022827   0.0010419
           31          32          33          34          35          36
    1   0.0144265   0.0324829  -0.0166798  -0.0097004  -0.0044764   0.0477731
    2  -0.0066382   0.0227451   0.0120291  -0.1723781  -0.0253677   0.0056501
    3   0.0014048   0.0314460  -0.0124458   0.0160703   0.0188915   0.0143022
           37          38          39          40          41          42
    1   0.0662904  -0.0509830  -0.0074585  -0.0242992  -0.0090647  -0.0153929
    2   0.1009815  -0.0017107   0.0621039  -0.0127517   0.0057103   0.0102683
    3  -0.0113149  -0.0711469  -0.0247179  -0.0115357  -0.0016592  -0.0052461
           43          44          45          46          47          48
    1  -0.0110182   0.0091701  -0.0001320  -0.0043001   0.0000302  -0.0009126
    2   0.0009872  -0.0010055   0.0038957   0.0010918  -0.0002354   0.0098448
    3   0.0087941  -0.0056549   0.0100423  -0.0083095  -0.0009297   0.0001574
           49          50          51          52          53          54
    1  -0.0072199   0.0051745  -0.0037795  -0.0018114  -0.0714030  -0.0226696
    2   0.0057088  -0.0008754   0.0020268  -0.0017402  -0.0196058   0.0260611
    3  -0.0002229  -0.0021528   0.0009330   0.0014427   0.0166527  -0.0017352
           55          56
    1  -0.0234240   0.0333888
    2   0.0330238  -0.0525634
    3   0.0384322   0.0185337
 Max gradient component =       6.307E+00
 RMS gradient           =       7.429E-01
 Gradient time:  CPU 41.16 s  wall 0.88 s
 Geometry Optimization Parameters
   NAtoms,    NIC,     NZ,  NCons,   NDum,   NFix, NCnnct, MaxDiis
       56     744       0       0       0       0       0       0


** GEOMETRY OPTIMIZATION IN DELOCALIZED INTERNAL COORDINATES **
   Searching for a Minimum

   Optimization Cycle:   1

                       Coordinates (Angstroms)
     ATOM                X               Y               Z
      1  O        -0.3999776423   -1.5611539878   -1.5144444219
      2  C        -0.1946403119   -0.7086712895   -0.6623199791
      3  C        -1.2279869352    0.2542464351   -0.1204925120
      4  C        -2.6932419706   -0.2114464581   -0.1255605222
      5  C        -2.9410235774   -1.6542475741   -0.5063539998
      6  O        -2.0845244521   -2.4685158788    0.1783469980
      7  C        -1.0665332640   -1.7498185448    0.8829190680
      8  C        -0.4345700938   -0.7036462400   -0.0293664301
      9  O        -0.5528318061    0.5988737130    0.5641962304
     10  C         0.6147734294    1.2631674934    0.7500752071
     11  C         1.7917533899    0.3388794488    0.9527170004
     12  C         2.1649044402   -0.5117022823   -0.2702030465
     13  C         1.5631437450   -0.0716554415   -1.5896600334
     14  O         2.1301867815   -0.1014238835   -2.6723060727
     15  O         1.0727947376   -1.8598143700    0.7914817643
     16  O         0.9730271812    1.1922079219   -1.6324067845
     17  O         0.6625677913    2.4795451289    0.8760478037
     18  C         0.6672855483    2.0101527573   -2.7237933252
     19  C         3.0570721838    1.1602217997    1.2540731717
     20  C         4.1271996345    0.2735081924    1.8949770243
     21  C         4.5912634647   -0.4846295774    0.6839799871
     22  C         3.6364198404    0.0865596863   -0.3732991482
     23  O         3.5439729751    1.4364904571   -0.0150438048
     24  H         1.5778351244   -0.1421185602    1.9380804927
     25  H         2.6618521401   -1.4809496616   -0.5156687130
     26  H         2.8681935425    2.0416017638    1.9060365210
     27  H         4.9680712580    0.8991318487    2.2700659647
     28  H         3.7274814473   -0.3530773295    2.7214714688
     29  H         5.6180823979   -0.1334447153    0.4315592239
     30  H         4.6042853604   -1.5900588621    0.7768915390
     31  H         4.1264378153   -0.0676216337   -1.3648447870
     32  O        -3.8430528515   -2.0750576359   -1.2162948780
     33  C         1.6988602635   -3.1369518752    0.7899538028
     34  C        -2.3726638267    1.6825454960    0.7225828539
     35  C        -3.6384417666    2.3082171144    0.0518934089
     36  C        -4.6517797869    1.2566959294    0.4628335690
     37  C        -3.6571193299    0.2460057341    1.0283354781
     38  O        -2.8752420401    1.0427676497    1.8291993103
     39  H        -1.3359261088    1.2087892083   -1.0643824117
     40  H        -3.2279949901    0.1852875009   -1.0356451743
     41  H         1.6049692280   -3.6280303078   -0.2026218354
     42  H        -1.7545858158    2.5656197391    0.9995384661
     43  H        -3.9383826862    3.2728013151    0.5182155207
     44  H        -3.4675218029    2.4413103222   -1.0385085010
     45  H        -5.2726909697    1.6225886638    1.3118173569
     46  H        -5.3061260286    0.8957728247   -0.3602949442
     47  H        -4.1259490486   -0.5910629763    1.5906190148
     48  H         1.2284155252   -3.7774738701    1.5639130000
     49  H         2.7716346587   -3.0433537891    1.0517729441
     50  H        -0.4074621298    2.2745200672   -2.7202181164
     51  H         0.8831041282    1.5388000385   -3.7054437950
     52  H         1.2513049385    2.9495849047   -2.6430353265
     53  H        -0.3185305298   -2.5836444440   -0.0131455464
     54  H        -1.6281449931   -0.3382003081   -1.9272739649
     55  H        -0.7346290618   -2.3033500916    1.8404400340
     56  H        -1.5971392553   -1.2193593883    1.7207029614
   Point Group: c1    Number of degrees of freedom:   162


   Energy is  -1506.051513168


 Attempting to Generate Delocalized Internal Coordinates

 ** Taking Steepest Descent Step **
 Calculated Step too Large.  Step scaled by  0.090430
 Step Taken.  Stepsize is  0.300000

                             Maximum     Tolerance    Cnvgd?
         Gradient           1.321004      0.000300      NO
         Displacement       0.119459      0.001200      NO
         Energy change     *********      0.000001      NO


 New Cartesian Coordinates Obtained by Inverse Iteration

 Displacement from previous Coordinates is:  0.812214
 Adding empirical dispersion correction 
 ----------------------------------------------------------------
 Doing -D3(op) with
 s6 =   1.00000
 s8 =   0.78311
 a1 =   0.30000
 a2 =   4.25000
 n  =  10.00000
 -D3 energy without 3body term =     -0.0940762837 hartrees
 ----------------------------------------------------------------
             Standard Nuclear Orientation (Angstroms)
    I     Atom           X                Y                Z
 ----------------------------------------------------------------
    1      O      -0.4258354824    -1.5761845068    -1.5617057028
    2      C      -0.1975301836    -0.7389796415    -0.7115289775
    3      C      -1.2460997557     0.2458415162    -0.1315069147
    4      C      -2.7134327652    -0.2105918207    -0.1348118353
    5      C      -2.9765640652    -1.6528295360    -0.5118580029
    6      O      -2.1280177770    -2.4771028068     0.1847371802
    7      C      -1.1003178088    -1.7731447719     0.9016247250
    8      C      -0.4575931971    -0.7324700565    -0.0127232726
    9      O      -0.5526162503     0.5909494207     0.5669311507
   10      C       0.6286819034     1.2528023484     0.7507122032
   11      C       1.8247205613     0.3475444088     0.9510500691
   12      C       2.2176299034    -0.4956395355    -0.2752732330
   13      C       1.6088058687    -0.0650129662    -1.5959753457
   14      O       2.1818011038    -0.0857334268    -2.6818850851
   15      O       1.0521981377    -1.9518058909     0.8031818234
   16      O       0.9924460399     1.1910878669    -1.6258693179
   17      O       0.6663834959     2.4712758702     0.8784818956
   18      C       0.6721659538     2.0083669601    -2.7155514947
   19      C       3.0756095039     1.1953675652     1.2522673343
   20      C       4.1640404474     0.3279797962     1.8929098236
   21      C       4.6439908373    -0.4208321547     0.6794330493
   22      C       3.6783113300     0.1332469260    -0.3790305287
   23      O       3.5586196634     1.4834560078    -0.0195089367
   24      H       1.6202317175    -0.1379629210     1.9358702898
   25      H       2.7336750834    -1.4546547830    -0.5208609748
   26      H       2.8689140450     2.0723543782     1.9044777522
   27      H       4.9920710540     0.9691603523     2.2689267309
   28      H       3.7763922000    -0.3068165666     2.7183727397
   29      H       5.6635200938    -0.0499653972     0.4276775417
   30      H       4.6782475422    -1.5255752725     0.7713687175
   31      H       4.1707285377    -0.0102725038    -1.3706662906
   32      O      -3.8834142977    -2.0688854963    -1.2225871569
   33      C       1.6418040643    -3.2485356552     0.8016159386
   34      C      -2.3749856682     1.6822134007     0.7245842094
   35      C      -3.6387450729     2.3208492132     0.0586085678
   36      C      -4.6614598362     1.2742406383     0.4666080087
   37      C      -3.6728489069     0.2520950329     1.0251870379
   38      O      -2.8800879692     1.0406576491     1.8302499045
   39      H      -1.3461834268     1.2002875984    -1.0743567492
   40      H      -3.2412743699     0.1937282430    -1.0461251992
   41      H       1.5313891053    -3.7387577751    -0.1896979744
   42      H      -1.7487925452     2.5586086430     1.0048762291
   43      H      -3.9294584106     3.2854501533     0.5298596525
   44      H      -3.4695351138     2.4574762044    -1.0312875271
   45      H      -5.2775193925     1.6410928143     1.3181452098
   46      H      -5.3202866193     0.9223983280    -0.3563369878
   47      H      -4.1463887141    -0.5841403469     1.5847865236
   48      H       1.1558092195    -3.8749502846     1.5778651752
   49      H       2.7180113989    -3.1861843739     1.0599552507
   50      H      -0.4076884826     2.2521813998    -2.7121665697
   51      H       0.8983502035     1.5448610429    -3.6987339014
   52      H       1.2381699439     2.9585173893    -2.6305013130
   53      H      -0.3640157403    -2.6262290770     0.0056786011
   54      H      -1.6470128447    -0.3391071737    -1.9497737402
   55      H      -0.7810837771    -2.3340173410     1.8586448216
   56      H      -1.6257505900    -1.2322969073     1.7377439872
 ----------------------------------------------------------------
 Molecular Point Group                 C1    NOp =  1
 Largest Abelian Subgroup              C1    NOp =  1
 Nuclear Repulsion Energy =  3741.4243817265 hartrees
 There are      113 alpha and      113 beta electrons
 Applying Cartesian multipole field
    Component          Value
    ---------          -----
     (2,0,0)        1.00000E-12
     (0,2,0)        2.00000E-11
     (0,0,2)       -3.00000E-11
 Nucleus-field energy     =     0.0000000065 hartrees
 Requested basis set is STO-3G
 There are 86 shells and 176 basis functions
 A cutoff of  1.0D-12 yielded   2845 shell pairs
 There are     13474 function pairs
 Smallest overlap matrix eigenvalue = 1.06E-02
 Guess MOs from SCF MO coefficient file
 Reading MOs from coefficient file
 Reading MOs from coefficient file
 A restricted hybrid HF-DFT SCF calculation will be
 performed using Pulay DIIS extrapolation
 Exchange:     0.2000 Hartree-Fock + 0.0800 Slater + 0.7200 B88
 Correlation:  0.1900 VWN1RPA + 0.8100 LYP
 Using SG-1 standard quadrature grid
 Dispersion:   Grimme D3
 SCF converges when DIIS error is below 1.0E-08
 Geometry optimization detected.  Setting ReadMinima to 0
 Setting SaveMinima to 0
 using 48 threads for integral computing
 -------------------------------------------------------
 OpenMP Integral computing Module                
 Release: version 1.0, May 2013, Q-Chem Inc. Pittsburgh 
 -------------------------------------------------------
 -------------------------------------------------------
 OpenMP BLAS3 based DFT computing Module                
 Release: version 1.0, May 2013, Q-Chem Inc. Pittsburgh 
 -------------------------------------------------------
 ---------------------------------------
  Cycle       Energy         DIIS Error
 ---------------------------------------
    1   -1506.9571906003      4.75E-03
    2   -1506.8468312905      3.35E-03
    3   -1506.7719972849      4.71E-03
    4   -1506.8549293591      2.84E-03
    5   -1506.9042115520      1.06E-03
    6   -1506.9100777596      2.50E-04
    7   -1506.9102716442      1.40E-04
    8   -1506.9103752463      4.74E-05
    9   -1506.9103860502      2.37E-05
   10   -1506.9103885464      1.29E-05
   11   -1506.9103895182      4.91E-06
   12   -1506.9103896711      1.63E-06
   13   -1506.9103896876      9.41E-07
   14   -1506.9103896922      4.25E-07
   15   -1506.9103896933      1.51E-07
   16   -1506.9103896939      4.02E-08
   17   -1506.9103896940      1.78E-08
   18   -1506.9103896942      1.16E-08
   19   -1506.9103896946      6.20E-09 Convergence criterion met
 ---------------------------------------
 SCF time:  CPU 168.95 s  wall 3.53 s
 SCF   energy in the final basis set = -1506.91038969
 Total energy in the final basis set = -1506.91038969
 
 --------------------------------------------------------------
 
                    Orbital Energies (a.u.)
 --------------------------------------------------------------
 
 Alpha MOs
 -- Occupied --
-19.135 -18.962 -18.957 -18.947 -18.907 -18.903 -18.884 -18.875
-18.850 -18.785 -10.326 -10.279 -10.203 -10.185 -10.119 -10.114
-10.095 -10.083 -10.080 -10.079 -10.069 -10.057 -10.055 -10.052
-10.023 -10.021 -10.020 -10.018 -10.008  -9.996  -1.400  -1.081
 -1.066  -1.059  -1.045  -1.035  -1.032  -0.970  -0.926  -0.922
 -0.881  -0.839  -0.791  -0.777  -0.750  -0.748  -0.736  -0.731
 -0.698  -0.680  -0.662  -0.638  -0.621  -0.610  -0.585  -0.565
 -0.549  -0.542  -0.541  -0.527  -0.521  -0.516  -0.500  -0.490
 -0.478  -0.466  -0.452  -0.445  -0.438  -0.436  -0.434  -0.421
 -0.407  -0.398  -0.390  -0.383  -0.381  -0.378  -0.372  -0.361
 -0.359  -0.354  -0.349  -0.343  -0.335  -0.329  -0.328  -0.324
 -0.318  -0.316  -0.313  -0.306  -0.297  -0.293  -0.272  -0.265
 -0.265  -0.250  -0.247  -0.234  -0.228  -0.222  -0.211  -0.206
 -0.190  -0.166  -0.163  -0.156  -0.126  -0.122  -0.104  -0.080
 -0.064
 -- Virtual --
  0.003   0.029   0.037   0.070   0.102   0.128   0.172   0.218
  0.237   0.241   0.272   0.277   0.297   0.309   0.315   0.321
  0.331   0.342   0.346   0.352   0.356   0.359   0.366   0.386
  0.391   0.398   0.399   0.407   0.408   0.414   0.419   0.419
  0.425   0.433   0.436   0.441   0.444   0.446   0.451   0.455
  0.463   0.465   0.471   0.473   0.477   0.482   0.493   0.495
  0.499   0.504   0.525   0.536   0.545   0.569   0.570   0.581
  0.599   0.615   0.671   0.681   0.901   0.957   2.560
 --------------------------------------------------------------
 
          Ground-State Mulliken Net Atomic Charges

     Atom                 Charge (a.u.)
  ----------------------------------------
      1 O                    -0.176938
      2 C                     0.104139
      3 C                     0.243612
      4 C                    -0.064213
      5 C                     0.233117
      6 O                    -0.173962
      7 C                    -0.006200
      8 C                    -0.190247
      9 O                    -0.171212
     10 C                     0.318180
     11 C                    -0.070115
     12 C                    -0.045885
     13 C                     0.253982
     14 O                    -0.227540
     15 O                    -0.225160
     16 O                    -0.230783
     17 O                    -0.154104
     18 C                    -0.102038
     19 C                     0.042079
     20 C                    -0.143845
     21 C                    -0.148454
     22 C                     0.032986
     23 O                    -0.215267
     24 H                     0.103956
     25 H                     0.115055
     26 H                     0.087191
     27 H                     0.077530
     28 H                     0.072348
     29 H                     0.077796
     30 H                     0.074135
     31 H                     0.082854
     32 O                    -0.208523
     33 C                    -0.151394
     34 C                    -0.047365
     35 C                    -0.153444
     36 C                    -0.142066
     37 C                     0.046352
     38 O                    -0.195327
     39 H                     0.085289
     40 H                     0.103472
     41 H                     0.061905
     42 H                     0.049238
     43 H                     0.070745
     44 H                     0.062898
     45 H                     0.076726
     46 H                     0.078344
     47 H                     0.075173
     48 H                     0.051819
     49 H                     0.049527
     50 H                     0.077391
     51 H                     0.100807
     52 H                     0.092422
     53 H                     0.108545
     54 H                    -0.031387
     55 H                     0.105233
     56 H                     0.060623
  ----------------------------------------
  Sum of atomic charges =     0.000000

 -----------------------------------------------------------------
                    Cartesian Multipole Moments
 -----------------------------------------------------------------
    Charge (ESU x 10^10)
                 0.0000
    Dipole Moment (Debye)
         X       0.5846      Y       2.0095      Z       3.1583
       Tot       3.7887
    Quadrupole Moments (Debye-Ang)
        XX    -161.9820     XY     -10.1786     YY    -169.9956
        XZ       2.6161     YZ      -8.8693     ZZ    -163.9651
    Octopole Moments (Debye-Ang^2)
       XXX      31.3201    XXY      14.9427    XYY      10.4304
       YYY       1.4987    XXZ      30.4221    XYZ      18.8813
       YYZ      -1.9131    XZZ       0.3404    YZZ      14.3232
       ZZZ      -0.0837
    Hexadecapole Moments (Debye-Ang^3)
      XXXX   -6839.9868   XXXY    -104.3517   XXYY   -1630.7418
      XYYY     -15.8136   YYYY   -2424.4089   XXXZ     -75.6784
      XXYZ     -20.4077   XYYZ     -44.8376   YYYZ      -8.2357
      XXZZ   -1448.4966   XYZZ      30.8615   YYZZ    -636.4916
      XZZZ      18.0709   YZZZ     -33.2533   ZZZZ   -1581.2434
 -----------------------------------------------------------------
 Calculating analytic gradient of the SCF energy
 Gradient of SCF Energy
            1           2           3           4           5           6
    1   0.0223317  -1.7070784   0.9293893   0.0888875  -0.0055262  -0.0012175
    2   0.1577498   0.1872024  -0.2229894   0.0173001  -0.0153292   0.0836145
    3   0.2953100   4.3405380   0.6612744   0.0622690  -0.0249428  -0.0051642
            7           8           9          10          11          12
    1   0.0436421   1.3829580  -0.5463147  -0.0782827   0.0250215  -0.0759606
    2  -0.0050973   0.2153863  -0.4026740  -0.0549511   0.0295762   0.0102841
    3  -0.1578348  -4.4345134  -0.7979879   0.0109458  -0.0672168   0.0249305
           13          14          15          16          17          18
    1  -0.0364749  -0.0556028   0.0432135   0.0741917   0.0166635  -0.0020218
    2  -0.0661006   0.0943414   0.0709464  -0.0501491  -0.0359989  -0.0018209
    3   0.0500423   0.0823745   0.0404379  -0.1423427  -0.0044493   0.0397067
           19          20          21          22          23          24
    1   0.0214965  -0.0119894  -0.0324361  -0.0479812  -0.0245065   0.0035128
    2  -0.0383897   0.0043362   0.0313906   0.0126763  -0.0722586   0.0172649
    3  -0.0617457  -0.0518958   0.0076569   0.0662437   0.0458523   0.0151248
           25          26          27          28          29          30
    1   0.0391442   0.0044701   0.0117080  -0.0041643   0.0071968   0.0029792
    2   0.0211511  -0.0036137   0.0034489  -0.0043159   0.0100415  -0.0061642
    3  -0.0226981   0.0119879  -0.0042691   0.0050857   0.0022871   0.0009737
           31          32          33          34          35          36
    1   0.0145214   0.0283859  -0.0167963  -0.0107947  -0.0045917   0.0455134
    2  -0.0063436   0.0213513   0.0098175  -0.1703970  -0.0239899   0.0047370
    3   0.0015660   0.0282155  -0.0110699   0.0147361   0.0179374   0.0139820
           37          38          39          40          41          42
    1   0.0636629  -0.0482355  -0.0071746  -0.0232616  -0.0089045  -0.0149639
    2   0.0975310   0.0010360   0.0624653  -0.0118870   0.0058325   0.0101773
    3  -0.0113620  -0.0677698  -0.0258497  -0.0126732  -0.0019086  -0.0050969
           43          44          45          46          47          48
    1  -0.0107520   0.0090159   0.0000322  -0.0042444   0.0000528  -0.0007217
    2   0.0008570  -0.0010444   0.0037156   0.0011701  -0.0003125   0.0108204
    3   0.0086626  -0.0054133   0.0097749  -0.0079397  -0.0009721  -0.0002696
           49          50          51          52          53          54
    1  -0.0071169   0.0048003  -0.0037603  -0.0017886  -0.0770790  -0.0210296
    2   0.0052490  -0.0006088   0.0019451  -0.0017321  -0.0142498   0.0266748
    3  -0.0001756  -0.0021736   0.0007276   0.0013813   0.0088728   0.0006002
           55          56
    1  -0.0248076   0.0327887
    2   0.0323404  -0.0520132
    3   0.0388645   0.0193725
 Max gradient component =       4.435E+00
 RMS gradient           =       5.245E-01
 Gradient time:  CPU 38.08 s  wall 0.81 s
 Geometry Optimization Parameters
   NAtoms,    NIC,     NZ,  NCons,   NDum,   NFix, NCnnct, MaxDiis
       56     744       0       0       0       0       0       0


** GEOMETRY OPTIMIZATION IN DELOCALIZED INTERNAL COORDINATES **
   Searching for a Minimum

   Optimization Cycle:   2

                       Coordinates (Angstroms)
     ATOM                X               Y               Z
      1  O        -0.4258354824   -1.5761845068   -1.5617057028
      2  C        -0.1975301836   -0.7389796415   -0.7115289775
      3  C        -1.2460997557    0.2458415162   -0.1315069147
      4  C        -2.7134327652   -0.2105918207   -0.1348118353
      5  C        -2.9765640652   -1.6528295360   -0.5118580029
      6  O        -2.1280177770   -2.4771028068    0.1847371802
      7  C        -1.1003178088   -1.7731447719    0.9016247250
      8  C        -0.4575931971   -0.7324700565   -0.0127232726
      9  O        -0.5526162503    0.5909494207    0.5669311507
     10  C         0.6286819034    1.2528023484    0.7507122032
     11  C         1.8247205613    0.3475444088    0.9510500691
     12  C         2.2176299034   -0.4956395355   -0.2752732330
     13  C         1.6088058687   -0.0650129662   -1.5959753457
     14  O         2.1818011038   -0.0857334268   -2.6818850851
     15  O         1.0521981377   -1.9518058909    0.8031818234
     16  O         0.9924460399    1.1910878669   -1.6258693179
     17  O         0.6663834959    2.4712758702    0.8784818956
     18  C         0.6721659538    2.0083669601   -2.7155514947
     19  C         3.0756095039    1.1953675652    1.2522673343
     20  C         4.1640404474    0.3279797962    1.8929098236
     21  C         4.6439908373   -0.4208321547    0.6794330493
     22  C         3.6783113300    0.1332469260   -0.3790305287
     23  O         3.5586196634    1.4834560078   -0.0195089367
     24  H         1.6202317175   -0.1379629210    1.9358702898
     25  H         2.7336750834   -1.4546547830   -0.5208609748
     26  H         2.8689140450    2.0723543782    1.9044777522
     27  H         4.9920710540    0.9691603523    2.2689267309
     28  H         3.7763922000   -0.3068165666    2.7183727397
     29  H         5.6635200938   -0.0499653972    0.4276775417
     30  H         4.6782475422   -1.5255752725    0.7713687175
     31  H         4.1707285377   -0.0102725038   -1.3706662906
     32  O        -3.8834142977   -2.0688854963   -1.2225871569
     33  C         1.6418040643   -3.2485356552    0.8016159386
     34  C        -2.3749856682    1.6822134007    0.7245842094
     35  C        -3.6387450729    2.3208492132    0.0586085678
     36  C        -4.6614598362    1.2742406383    0.4666080087
     37  C        -3.6728489069    0.2520950329    1.0251870379
     38  O        -2.8800879692    1.0406576491    1.8302499045
     39  H        -1.3461834268    1.2002875984   -1.0743567492
     40  H        -3.2412743699    0.1937282430   -1.0461251992
     41  H         1.5313891053   -3.7387577751   -0.1896979744
     42  H        -1.7487925452    2.5586086430    1.0048762291
     43  H        -3.9294584106    3.2854501533    0.5298596525
     44  H        -3.4695351138    2.4574762044   -1.0312875271
     45  H        -5.2775193925    1.6410928143    1.3181452098
     46  H        -5.3202866193    0.9223983280   -0.3563369878
     47  H        -4.1463887141   -0.5841403469    1.5847865236
     48  H         1.1558092195   -3.8749502846    1.5778651752
     49  H         2.7180113989   -3.1861843739    1.0599552507
     50  H        -0.4076884826    2.2521813998   -2.7121665697
     51  H         0.8983502035    1.5448610429   -3.6987339014
     52  H         1.2381699439    2.9585173893   -2.6305013130
     53  H        -0.3640157403   -2.6262290770    0.0056786011
     54  H        -1.6470128447   -0.3391071737   -1.9497737402
     55  H        -0.7810837771   -2.3340173410    1.8586448216
     56  H        -1.6257505900   -1.2322969073    1.7377439872
   Point Group: c1    Number of degrees of freedom:   162


   Energy is  -1506.910389695

 Hessian Updated using BFGS Update

 ** Taking Steepest Descent Step **
 Calculated Step too Large.  Step scaled by  0.122387
 Step Taken.  Stepsize is  0.300000

                             Maximum     Tolerance    Cnvgd?
         Gradient           0.964336      0.000300      NO
         Displacement       0.118023      0.001200      NO
         Energy change     -0.858877      0.000001      NO


 New Cartesian Coordinates Obtained by Inverse Iteration

 Displacement from previous Coordinates is:  0.834874
 Adding empirical dispersion correction 
 ----------------------------------------------------------------
 Doing -D3(op) with
 s6 =   1.00000
 s8 =   0.78311
 a1 =   0.30000
 a2 =   4.25000
 n  =  10.00000
 -D3 energy without 3body term =     -0.0930980300 hartrees
 ----------------------------------------------------------------
             Standard Nuclear Orientation (Angstroms)
    I     Atom           X                Y                Z
 ----------------------------------------------------------------
    1      O      -0.4538569971    -1.5941636002    -1.6071045499
    2      C      -0.2027125942    -0.7700386603    -0.7599363083
    3      C      -1.2666666249     0.2381469928    -0.1429853003
    4      C      -2.7364982895    -0.2099129352    -0.1428213581
    5      C      -3.0136070710    -1.6532761452    -0.5129293392
    6      O      -2.1715593653    -2.4864460008     0.1968727678
    7      C      -1.1331055572    -1.7955527493     0.9239994147
    8      C      -0.4810753379    -0.7614498371     0.0049783056
    9      O      -0.5507938493     0.5863928546     0.5716358696
   10      C       0.6453542859     1.2465787529     0.7518128150
   11      C       1.8598042232     0.3590815266     0.9501621398
   12      C       2.2711385819    -0.4774708461    -0.2793777079
   13      C       1.6555868213    -0.0557915853    -1.6016718041
   14      O       2.2347194513    -0.0697030993    -2.6917976841
   15      O       1.0358737567    -2.0514299361     0.8081248360
   16      O       1.0148390574     1.1938860772    -1.6156038203
   17      O       0.6729987497     2.4675603786     0.8804298423
   18      C       0.6811393038     2.0110699994    -2.7039562385
   19      C       3.0973367779     1.2321520982     1.2506760759
   20      C       4.2027674103     0.3826744688     1.8915031659
   21      C       4.6973441376    -0.3581505961     0.6752682202
   22      C       3.7217835533     0.1798951674    -0.3849725676
   23      O       3.5767930715     1.5310654306    -0.0248547761
   24      H       1.6642373162    -0.1301959889     1.9345467807
   25      H       2.8043129039    -1.4269299349    -0.5240592145
   26      H       2.8741407096     2.1050128579     1.9026100916
   27      H       5.0185775782     1.0379168429     2.2682142566
   28      H       3.8263776032    -0.2591084468     2.7161011210
   29      H       5.7097384938     0.0302411234     0.4238413301
   30      H       4.7508661368    -1.4617514355     0.7668084855
   31      H       4.2157286410     0.0457487389    -1.3767378785
   32      O      -3.9255324673    -2.0671642587    -1.2234179535
   33      C       1.5865637359    -3.3681620298     0.8068767202
   34      C      -2.3813210878     1.6842450429     0.7235512271
   35      C      -3.6438480504     2.3332837968     0.0608922177
   36      C      -4.6753361925     1.2913053019     0.4685790307
   37      C      -3.6917037274     0.2595113559     1.0225906673
   38      O      -2.8881800838     1.0425531015     1.8304176033
   39      H      -1.3598159082     1.1896947092    -1.0864754610
   40      H      -3.2574891675     0.1999054494    -1.0556965740
   41      H       1.4538079515    -3.8594972458    -0.1811417673
   42      H      -1.7477388524     2.5550932533     1.0049909757
   43      H      -3.9259550129     3.2986059032     0.5347905384
   44      H      -3.4767251691     2.4710942736    -1.0287414872
   45      H      -5.2867652781     1.6603757721     1.3217617968
   46      H      -5.3382433087     0.9461666992    -0.3532212966
   47      H      -4.1691562069    -0.5750955902     1.5813321865
   48      H       1.0889278960    -3.9778211176     1.5896165435
   49      H       2.6668148165    -3.3382299707     1.0558033119
   50      H      -0.4030650423     2.2362941455    -2.7004848816
   51      H       0.9164512259     1.5549698351    -3.6886205008
   52      H       1.2308227881     2.9705639272    -2.6149144223
   53      H      -0.4097870645    -2.6709828406     0.0276237418
   54      H      -1.6689877284    -0.3433409270    -1.9713938817
   55      H      -0.8249166271    -2.3620006643     1.8806030149
   56      H      -1.6522244219    -1.2420072572     1.7580107915
 ----------------------------------------------------------------
 Molecular Point Group                 C1    NOp =  1
 Largest Abelian Subgroup              C1    NOp =  1
 Nuclear Repulsion Energy =  3709.1573303919 hartrees
 There are      113 alpha and      113 beta electrons
 Applying Cartesian multipole field
    Component          Value
    ---------          -----
     (2,0,0)        1.00000E-12
     (0,2,0)        2.00000E-11
     (0,0,2)       -3.00000E-11
 Nucleus-field energy     =     0.0000000075 hartrees
 Requested basis set is STO-3G
 There are 86 shells and 176 basis functions
 A cutoff of  1.0D-12 yielded   2828 shell pairs
 There are     13424 function pairs
 Smallest overlap matrix eigenvalue = 1.73E-02
 Guess MOs from SCF MO coefficient file
 Reading MOs from coefficient file
 Reading MOs from coefficient file
 A restricted hybrid HF-DFT SCF calculation will be
 performed using Pulay DIIS extrapolation
 Exchange:     0.2000 Hartree-Fock + 0.0800 Slater + 0.7200 B88
 Correlation:  0.1900 VWN1RPA + 0.8100 LYP
 Using SG-1 standard quadrature grid
 Dispersion:   Grimme D3
 SCF converges when DIIS error is below 1.0E-08
 Geometry optimization detected.  Setting ReadMinima to 0
 Setting SaveMinima to 0
 using 48 threads for integral computing
 -------------------------------------------------------
 OpenMP Integral computing Module                
 Release: version 1.0, May 2013, Q-Chem Inc. Pittsburgh 
 -------------------------------------------------------
 -------------------------------------------------------
 OpenMP BLAS3 based DFT computing Module                
 Release: version 1.0, May 2013, Q-Chem Inc. Pittsburgh 
 -------------------------------------------------------
 ---------------------------------------
  Cycle       Energy         DIIS Error
 ---------------------------------------
    1   -1507.6113743508      4.78E-03
    2   -1507.5068287983      2.60E-03
    3   -1507.4272609658      4.38E-03
    4   -1507.5036058584      2.46E-03
    5   -1507.5411160767      8.84E-04
    6   -1507.5453236061      1.98E-04
    7   -1507.5454351672      1.17E-04
    8   -1507.5454910035      7.09E-05
    9   -1507.5455193651      2.22E-05
   10   -1507.5455219908      8.93E-06
   11   -1507.5455224641      2.86E-06
   12   -1507.5455225205      1.56E-06
   13   -1507.5455225391      8.55E-07
   14   -1507.5455225437      4.28E-07
   15   -1507.5455225454      1.78E-07
   16   -1507.5455225461      5.56E-08
   17   -1507.5455225464      2.51E-08
   18   -1507.5455225464      1.23E-08
   19   -1507.5455225467      7.13E-09 Convergence criterion met
 ---------------------------------------
 SCF time:  CPU 169.61 s  wall 3.54 s
 SCF   energy in the final basis set = -1507.54552255
 Total energy in the final basis set = -1507.54552255
 
 --------------------------------------------------------------
 
                    Orbital Energies (a.u.)
 --------------------------------------------------------------
 
 Alpha MOs
 -- Occupied --
-19.124 -18.963 -18.955 -18.945 -18.908 -18.907 -18.884 -18.867
-18.851 -18.787 -10.258 -10.222 -10.203 -10.129 -10.118 -10.112
-10.095 -10.082 -10.081 -10.079 -10.076 -10.060 -10.059 -10.049
-10.026 -10.021 -10.020 -10.019 -10.007  -9.994  -1.368  -1.073
 -1.061  -1.055  -1.041  -1.033  -1.029  -0.967  -0.924  -0.910
 -0.875  -0.830  -0.790  -0.774  -0.751  -0.744  -0.733  -0.726
 -0.693  -0.679  -0.654  -0.626  -0.617  -0.597  -0.583  -0.564
 -0.547  -0.543  -0.537  -0.527  -0.518  -0.508  -0.499  -0.487
 -0.474  -0.466  -0.452  -0.442  -0.439  -0.434  -0.433  -0.420
 -0.404  -0.397  -0.389  -0.383  -0.379  -0.374  -0.369  -0.360
 -0.358  -0.351  -0.350  -0.341  -0.336  -0.329  -0.328  -0.324
 -0.320  -0.313  -0.311  -0.305  -0.299  -0.292  -0.271  -0.267
 -0.263  -0.249  -0.246  -0.236  -0.228  -0.222  -0.209  -0.204
 -0.188  -0.167  -0.162  -0.157  -0.127  -0.124  -0.098  -0.080
 -0.062
 -- Virtual --
  0.005   0.029   0.036   0.068   0.101   0.127   0.172   0.213
  0.232   0.235   0.266   0.274   0.294   0.305   0.311   0.322
  0.327   0.339   0.345   0.349   0.352   0.356   0.363   0.383
  0.391   0.394   0.397   0.406   0.407   0.411   0.416   0.419
  0.426   0.427   0.431   0.441   0.441   0.446   0.450   0.454
  0.462   0.464   0.470   0.474   0.476   0.477   0.488   0.494
  0.496   0.497   0.524   0.531   0.543   0.564   0.568   0.574
  0.589   0.597   0.664   0.669   0.871   0.907   2.091
 --------------------------------------------------------------
 
          Ground-State Mulliken Net Atomic Charges

     Atom                 Charge (a.u.)
  ----------------------------------------
      1 O                    -0.190405
      2 C                     0.092669
      3 C                     0.217319
      4 C                    -0.065288
      5 C                     0.231742
      6 O                    -0.172889
      7 C                    -0.014419
      8 C                    -0.146951
      9 O                    -0.165439
     10 C                     0.316901
     11 C                    -0.068790
     12 C                    -0.054509
     13 C                     0.250448
     14 O                    -0.225964
     15 O                    -0.225037
     16 O                    -0.227920
     17 O                    -0.153373
     18 C                    -0.102851
     19 C                     0.042042
     20 C                    -0.143845
     21 C                    -0.148385
     22 C                     0.033846
     23 O                    -0.212115
     24 H                     0.105219
     25 H                     0.121295
     26 H                     0.089025
     27 H                     0.078522
     28 H                     0.073339
     29 H                     0.078695
     30 H                     0.075168
     31 H                     0.085011
     32 O                    -0.206346
     33 C                    -0.150848
     34 C                    -0.046837
     35 C                    -0.153602
     36 C                    -0.142210
     37 C                     0.045473
     38 O                    -0.195126
     39 H                     0.085712
     40 H                     0.102612
     41 H                     0.062576
     42 H                     0.048298
     43 H                     0.070341
     44 H                     0.062720
     45 H                     0.076458
     46 H                     0.078191
     47 H                     0.074677
     48 H                     0.049810
     49 H                     0.049915
     50 H                     0.077810
     51 H                     0.100946
     52 H                     0.091832
     53 H                     0.107984
     54 H                    -0.032044
     55 H                     0.107419
     56 H                     0.061182
  ----------------------------------------
  Sum of atomic charges =     0.000000

 -----------------------------------------------------------------
                    Cartesian Multipole Moments
 -----------------------------------------------------------------
    Charge (ESU x 10^10)
                -0.0000
    Dipole Moment (Debye)
         X       0.9979      Y       2.0904      Z       3.2817
       Tot       4.0169
    Quadrupole Moments (Debye-Ang)
        XX    -160.9774     XY     -10.0076     YY    -170.2639
        XZ       2.7198     YZ      -8.8514     ZZ    -164.1623
    Octopole Moments (Debye-Ang^2)
       XXX      37.8979    XXY      15.2036    XYY      10.5095
       YYY       1.8289    XXZ      31.5601    XYZ      19.7853
       YYZ      -1.4822    XZZ       0.7444    YZZ      14.7721
       ZZZ       1.9578
    Hexadecapole Moments (Debye-Ang^3)
      XXXX   -6932.7578   XXXY    -129.5079   XXYY   -1660.8483
      XYYY     -38.6235   YYYY   -2490.7492   XXXZ     -70.7415
      XXYZ     -20.0941   XYYZ     -43.6097   YYYZ      -6.8696
      XXZZ   -1467.8781   XYZZ      23.5823   YYZZ    -649.1672
      XZZZ      22.7246   YZZZ     -34.0106   ZZZZ   -1590.1966
 -----------------------------------------------------------------
 Calculating analytic gradient of the SCF energy
 Gradient of SCF Energy
            1           2           3           4           5           6
    1   0.0340268  -1.1866597   0.8039128   0.0905344  -0.0068954  -0.0011466
    2   0.1512264   0.1387083  -0.2329663   0.0163792  -0.0129241   0.0796399
    3   0.2849815   2.9795893   0.5840425   0.0610367  -0.0244739  -0.0035016
            7           8           9          10          11          12
    1   0.0445286   0.8848237  -0.4776018  -0.0668711   0.0267514  -0.0718674
    2  -0.0140614   0.2141814  -0.3337537  -0.0563936   0.0392949   0.0037335
    3  -0.1468136  -3.1020113  -0.6929377   0.0158541  -0.0625460   0.0245823
           13          14          15          16          17          18
    1  -0.0317361  -0.0470550   0.0451730   0.0676399   0.0157582  -0.0020246
    2  -0.0669199   0.0875760   0.0604925  -0.0423492  -0.0309917  -0.0020257
    3   0.0542853   0.0695177   0.0481066  -0.1357231  -0.0048486   0.0391808
           19          20          21          22          23          24
    1   0.0201543  -0.0114063  -0.0315945  -0.0462851  -0.0213128   0.0032417
    2  -0.0365411   0.0041754   0.0288992   0.0119971  -0.0677536   0.0179312
    3  -0.0582383  -0.0488135   0.0067022   0.0622626   0.0424685   0.0145173
           25          26          27          28          29          30
    1   0.0426040   0.0046209   0.0112451  -0.0039445   0.0066230   0.0032026
    2   0.0240969  -0.0034726   0.0033432  -0.0041077   0.0098318  -0.0057503
    3  -0.0276458   0.0118986  -0.0042453   0.0048560   0.0022405   0.0009207
           31          32          33          34          35          36
    1   0.0145491   0.0236271  -0.0162535  -0.0119473  -0.0045571   0.0427019
    2  -0.0060166   0.0197141   0.0089703  -0.1676406  -0.0220720   0.0038899
    3   0.0017569   0.0244382  -0.0100715   0.0134869   0.0168820   0.0135531
           37          38          39          40          41          42
    1   0.0605437  -0.0453467  -0.0073399  -0.0221260  -0.0086333  -0.0145626
    2   0.0935765   0.0034051   0.0627741  -0.0110264   0.0058264   0.0100863
    3  -0.0115405  -0.0634453  -0.0273999  -0.0134517  -0.0020503  -0.0049852
           43          44          45          46          47          48
    1  -0.0104605   0.0088458   0.0002172  -0.0041507   0.0000449  -0.0004363
    2   0.0006916  -0.0010818   0.0035070   0.0012646  -0.0004047   0.0111903
    3   0.0084549  -0.0051061   0.0094158  -0.0074905  -0.0010133  -0.0004058
           49          50          51          52          53          54
    1  -0.0065193   0.0043689  -0.0037472  -0.0017497  -0.0822722  -0.0191411
    2   0.0046957  -0.0003649   0.0018761  -0.0016785  -0.0098038   0.0262879
    3  -0.0000647  -0.0021718   0.0004799   0.0013163   0.0016709   0.0029318
           55          56
    1  -0.0260621   0.0319672
    2   0.0314982  -0.0506607
    3   0.0392821   0.0202833
 Max gradient component =       3.102E+00
 RMS gradient           =       3.696E-01
 Gradient time:  CPU 37.58 s  wall 0.79 s
 Geometry Optimization Parameters
   NAtoms,    NIC,     NZ,  NCons,   NDum,   NFix, NCnnct, MaxDiis
       56     744       0       0       0       0       0       0


** GEOMETRY OPTIMIZATION IN DELOCALIZED INTERNAL COORDINATES **
   Searching for a Minimum

   Optimization Cycle:   3

                       Coordinates (Angstroms)
     ATOM                X               Y               Z
      1  O        -0.4538569971   -1.5941636002   -1.6071045499
      2  C        -0.2027125942   -0.7700386603   -0.7599363083
      3  C        -1.2666666249    0.2381469928   -0.1429853003
      4  C        -2.7364982895   -0.2099129352   -0.1428213581
      5  C        -3.0136070710   -1.6532761452   -0.5129293392
      6  O        -2.1715593653   -2.4864460008    0.1968727678
      7  C        -1.1331055572   -1.7955527493    0.9239994147
      8  C        -0.4810753379   -0.7614498371    0.0049783056
      9  O        -0.5507938493    0.5863928546    0.5716358696
     10  C         0.6453542859    1.2465787529    0.7518128150
     11  C         1.8598042232    0.3590815266    0.9501621398
     12  C         2.2711385819   -0.4774708461   -0.2793777079
     13  C         1.6555868213   -0.0557915853   -1.6016718041
     14  O         2.2347194513   -0.0697030993   -2.6917976841
     15  O         1.0358737567   -2.0514299361    0.8081248360
     16  O         1.0148390574    1.1938860772   -1.6156038203
     17  O         0.6729987497    2.4675603786    0.8804298423
     18  C         0.6811393038    2.0110699994   -2.7039562385
     19  C         3.0973367779    1.2321520982    1.2506760759
     20  C         4.2027674103    0.3826744688    1.8915031659
     21  C         4.6973441376   -0.3581505961    0.6752682202
     22  C         3.7217835533    0.1798951674   -0.3849725676
     23  O         3.5767930715    1.5310654306   -0.0248547761
     24  H         1.6642373162   -0.1301959889    1.9345467807
     25  H         2.8043129039   -1.4269299349   -0.5240592145
     26  H         2.8741407096    2.1050128579    1.9026100916
     27  H         5.0185775782    1.0379168429    2.2682142566
     28  H         3.8263776032   -0.2591084468    2.7161011210
     29  H         5.7097384938    0.0302411234    0.4238413301
     30  H         4.7508661368   -1.4617514355    0.7668084855
     31  H         4.2157286410    0.0457487389   -1.3767378785
     32  O        -3.9255324673   -2.0671642587   -1.2234179535
     33  C         1.5865637359   -3.3681620298    0.8068767202
     34  C        -2.3813210878    1.6842450429    0.7235512271
     35  C        -3.6438480504    2.3332837968    0.0608922177
     36  C        -4.6753361925    1.2913053019    0.4685790307
     37  C        -3.6917037274    0.2595113559    1.0225906673
     38  O        -2.8881800838    1.0425531015    1.8304176033
     39  H        -1.3598159082    1.1896947092   -1.0864754610
     40  H        -3.2574891675    0.1999054494   -1.0556965740
     41  H         1.4538079515   -3.8594972458   -0.1811417673
     42  H        -1.7477388524    2.5550932533    1.0049909757
     43  H        -3.9259550129    3.2986059032    0.5347905384
     44  H        -3.4767251691    2.4710942736   -1.0287414872
     45  H        -5.2867652781    1.6603757721    1.3217617968
     46  H        -5.3382433087    0.9461666992   -0.3532212966
     47  H        -4.1691562069   -0.5750955902    1.5813321865
     48  H         1.0889278960   -3.9778211176    1.5896165435
     49  H         2.6668148165   -3.3382299707    1.0558033119
     50  H        -0.4030650423    2.2362941455   -2.7004848816
     51  H         0.9164512259    1.5549698351   -3.6886205008
     52  H         1.2308227881    2.9705639272   -2.6149144223
     53  H        -0.4097870645   -2.6709828406    0.0276237418
     54  H        -1.6689877284   -0.3433409270   -1.9713938817
     55  H        -0.8249166271   -2.3620006643    1.8806030149
     56  H        -1.6522244219   -1.2420072572    1.7580107915
   Point Group: c1    Number of degrees of freedom:   162


   Energy is  -1507.545522547

 Hessian Updated using BFGS Update

 ** Taking Steepest Descent Step **
 Calculated Step too Large.  Step scaled by  0.165275
 Step Taken.  Stepsize is  0.300000

                             Maximum     Tolerance    Cnvgd?
         Gradient           0.697700      0.000300      NO
         Displacement       0.115312      0.001200      NO
         Energy change     -0.635133      0.000001      NO


 New Cartesian Coordinates Obtained by Inverse Iteration

 Displacement from previous Coordinates is:  0.847271
 Adding empirical dispersion correction 
 ----------------------------------------------------------------
 Doing -D3(op) with
 s6 =   1.00000
 s8 =   0.78311
 a1 =   0.30000
 a2 =   4.25000
 n  =  10.00000
 -D3 energy without 3body term =     -0.0921862167 hartrees
 ----------------------------------------------------------------
             Standard Nuclear Orientation (Angstroms)
    I     Atom           X                Y                Z
 ----------------------------------------------------------------
    1      O      -0.4825416151    -1.6151874759    -1.6494780662
    2      C      -0.2090792025    -0.8009027680    -0.8059573279
    3      C      -1.2891520427     0.2317646506    -0.1547451389
    4      C      -2.7618831433    -0.2096288800    -0.1496473002
    5      C      -3.0504183198    -1.6563957989    -0.5090719044
    6      O      -2.2129436500    -2.4967250211     0.2157743219
    7      C      -1.1630743582    -1.8161453121     0.9509857669
    8      C      -0.5036260469    -0.7895428241     0.0244745461
    9      O      -0.5469711809     0.5865047961     0.5784994138
   10      C       0.6647799418     1.2463926093     0.7533947552
   11      C       1.8961521405     0.3741794260     0.9501177789
   12      C       2.3230406169    -0.4569414510    -0.2827107609
   13      C       1.7007191606    -0.0426484799    -1.6066127140
   14      O       2.2853353937    -0.0527756651    -2.7022291339
   15      O       1.0252860611    -2.1584643698     0.8064385209
   16      O       1.0390646591     1.2029071434    -1.6001666910
   17      O       0.6825482066     2.4703307661     0.8815358746
   18      C       0.6935965979     2.0211202223    -2.6875329702
   19      C       3.1226860345     1.2698766625     1.2491711560
   20      C       4.2429856382     0.4351295099     1.8902545230
   21      C       4.7497382553    -0.2996859383     0.6705533190
   22      C       3.7655724400     0.2250158526    -0.3918095366
   23      O       3.5990829836     1.5782447721    -0.0314622033
   24      H       1.7086470804    -0.1180928667     1.9341435353
   25      H       2.8699773754    -1.3983718311    -0.5256772415
   26      H       2.8855335627     2.1391930133     1.9004132802
   27      H       5.0482296167     1.1018059607     2.2673670814
   28      H       3.8763133104    -0.2121009976     2.7141098393
   29      H       5.7557285687     0.1027126862     0.4189110080
   30      H       4.8190251564    -1.4018895594     0.7620688309
   31      H       4.2596701778     0.0984460035    -1.3839459674
   32      O      -3.9671487486    -2.0717076663    -1.2183463615
   33      C       1.5350244068    -3.4953873308     0.8067567285
   34      C      -2.3922800254     1.6893998746     0.7186259225
   35      C      -3.6545902576     2.3452535480     0.0570165798
   36      C      -4.6939184257     1.3070757771     0.4672030460
   37      C      -3.7137362333     0.2681163318     1.0199627126
   38      O      -2.9001276831     1.0493220043     1.8291089014
   39      H      -1.3765534505     1.1769642353    -1.1007388623
   40      H      -3.2760031314     0.2029045250    -1.0646422400
   41      H       1.3738810592    -3.9900948561    -0.1753155011
   42      H      -1.7526072083     2.5563764305     0.9988360332
   43      H      -3.9293914711     3.3121165306     0.5306659396
   44      H      -3.4896942041     2.4814366257    -1.0326039988
   45      H      -5.3014376656     1.6797337834     1.3206814087
   46      H      -5.3600301367     0.9654534609    -0.3525660683
   47      H      -4.1939702667    -0.5641038673     1.5799192898
   48      H       1.0305194584    -4.0856340415     1.6006704065
   49      H       2.6197524414    -3.4986022874     1.0399189431
   50      H      -0.3940203062     2.2312509284    -2.6831278495
   51      H       0.9357361462     1.5714777534    -3.6737052153
   52      H       1.2301240216     2.9879428896    -2.5951610630
   53      H      -0.4533893351    -2.7173406295     0.0541025004
   54      H      -1.6928866469    -0.3514204484    -1.9917207368
   55      H      -0.8638689792    -2.3858611228     1.9074308806
   56      H      -1.6752268822    -1.2473851063     1.7819711208
 ----------------------------------------------------------------
 Molecular Point Group                 C1    NOp =  1
 Largest Abelian Subgroup              C1    NOp =  1
 Nuclear Repulsion Energy =  3675.6325117911 hartrees
 There are      113 alpha and      113 beta electrons
 Applying Cartesian multipole field
    Component          Value
    ---------          -----
     (2,0,0)        1.00000E-12
     (0,2,0)        2.00000E-11
     (0,0,2)       -3.00000E-11
 Nucleus-field energy     =     0.0000000087 hartrees
 Requested basis set is STO-3G
 There are 86 shells and 176 basis functions
 A cutoff of  1.0D-12 yielded   2814 shell pairs
 There are     13359 function pairs
 Smallest overlap matrix eigenvalue = 2.73E-02
 Guess MOs from SCF MO coefficient file
 Reading MOs from coefficient file
 Reading MOs from coefficient file
 A restricted hybrid HF-DFT SCF calculation will be
 performed using Pulay DIIS extrapolation
 Exchange:     0.2000 Hartree-Fock + 0.0800 Slater + 0.7200 B88
 Correlation:  0.1900 VWN1RPA + 0.8100 LYP
 Using SG-1 standard quadrature grid
 Dispersion:   Grimme D3
 SCF converges when DIIS error is below 1.0E-08
 Geometry optimization detected.  Setting ReadMinima to 0
 Setting SaveMinima to 0
 using 48 threads for integral computing
 -------------------------------------------------------
 OpenMP Integral computing Module                
 Release: version 1.0, May 2013, Q-Chem Inc. Pittsburgh 
 -------------------------------------------------------
 -------------------------------------------------------
 OpenMP BLAS3 based DFT computing Module                
 Release: version 1.0, May 2013, Q-Chem Inc. Pittsburgh 
 -------------------------------------------------------
 ---------------------------------------
  Cycle       Energy         DIIS Error
 ---------------------------------------
    1   -1508.0713149365      4.57E-03
    2   -1507.9962343032      1.93E-03
    3   -1507.9344674306      3.71E-03
    4   -1507.9902548698      1.99E-03
    5   -1508.0149998562      6.92E-04
    6   -1508.0176414725      1.40E-04
    7   -1508.0177104320      7.29E-05
    8   -1508.0177356358      3.57E-05
    9   -1508.0177417709      1.68E-05
   10   -1508.0177433856      6.77E-06
   11   -1508.0177437080      2.50E-06
   12   -1508.0177437729      1.74E-06
   13   -1508.0177438062      8.09E-07
   14   -1508.0177438144      3.82E-07
   15   -1508.0177438160      1.96E-07
   16   -1508.0177438168      8.15E-08
   17   -1508.0177438170      2.26E-08
   18   -1508.0177438171      1.22E-08
   19   -1508.0177438175      5.33E-09 Convergence criterion met
 ---------------------------------------
 SCF time:  CPU 171.56 s  wall 3.58 s
 SCF   energy in the final basis set = -1508.01774382
 Total energy in the final basis set = -1508.01774382
 
 --------------------------------------------------------------
 
                    Orbital Energies (a.u.)
 --------------------------------------------------------------
 
 Alpha MOs
 -- Occupied --
-19.110 -18.961 -18.953 -18.943 -18.910 -18.908 -18.885 -18.863
-18.851 -18.792 -10.238 -10.202 -10.160 -10.116 -10.111 -10.095
-10.088 -10.084 -10.080 -10.079 -10.078 -10.064 -10.059 -10.048
-10.028 -10.023 -10.020 -10.019 -10.006  -9.993  -1.332  -1.064
 -1.056  -1.050  -1.038  -1.029  -1.023  -0.965  -0.923  -0.898
 -0.871  -0.820  -0.789  -0.770  -0.750  -0.741  -0.730  -0.718
 -0.688  -0.676  -0.644  -0.622  -0.606  -0.585  -0.580  -0.563
 -0.547  -0.542  -0.534  -0.526  -0.515  -0.502  -0.498  -0.484
 -0.469  -0.464  -0.450  -0.439  -0.439  -0.432  -0.431  -0.418
 -0.402  -0.395  -0.387  -0.382  -0.377  -0.372  -0.365  -0.359
 -0.358  -0.352  -0.347  -0.339  -0.336  -0.330  -0.327  -0.324
 -0.321  -0.311  -0.310  -0.305  -0.299  -0.292  -0.270  -0.267
 -0.262  -0.249  -0.245  -0.237  -0.227  -0.221  -0.207  -0.203
 -0.188  -0.168  -0.162  -0.158  -0.129  -0.126  -0.094  -0.083
 -0.058
 -- Virtual --
  0.007   0.029   0.037   0.066   0.098   0.124   0.170   0.208
  0.226   0.230   0.260   0.271   0.291   0.297   0.308   0.321
  0.324   0.336   0.342   0.346   0.349   0.353   0.360   0.380
  0.389   0.391   0.395   0.404   0.405   0.407   0.412   0.419
  0.421   0.424   0.427   0.439   0.440   0.446   0.449   0.454
  0.460   0.463   0.469   0.472   0.474   0.475   0.484   0.490
  0.492   0.495   0.522   0.527   0.541   0.560   0.565   0.568
  0.574   0.588   0.654   0.660   0.833   0.859   1.771
 --------------------------------------------------------------
 
          Ground-State Mulliken Net Atomic Charges

     Atom                 Charge (a.u.)
  ----------------------------------------
      1 O                    -0.199562
      2 C                     0.081181
      3 C                     0.192957
      4 C                    -0.066453
      5 C                     0.229915
      6 O                    -0.171713
      7 C                    -0.021961
      8 C                    -0.110104
      9 O                    -0.159548
     10 C                     0.313792
     11 C                    -0.067907
     12 C                    -0.061722
     13 C                     0.245133
     14 O                    -0.224862
     15 O                    -0.221422
     16 O                    -0.224983
     17 O                    -0.153436
     18 C                    -0.103947
     19 C                     0.041704
     20 C                    -0.143919
     21 C                    -0.148440
     22 C                     0.034266
     23 O                    -0.208920
     24 H                     0.105493
     25 H                     0.124849
     26 H                     0.090353
     27 H                     0.079270
     28 H                     0.074000
     29 H                     0.079312
     30 H                     0.075829
     31 H                     0.086639
     32 O                    -0.203678
     33 C                    -0.150369
     34 C                    -0.046145
     35 C                    -0.153777
     36 C                    -0.142391
     37 C                     0.044407
     38 O                    -0.194399
     39 H                     0.087289
     40 H                     0.101965
     41 H                     0.063749
     42 H                     0.047749
     43 H                     0.070149
     44 H                     0.062670
     45 H                     0.076339
     46 H                     0.078117
     47 H                     0.074327
     48 H                     0.048914
     49 H                     0.051416
     50 H                     0.077840
[...]
 SCF time:  CPU 88.90 s  wall 1.86 s
 SCF   energy in the final basis set = -1510.25081658
 Total energy in the final basis set = -1510.25081658
 
 --------------------------------------------------------------
 
                    Orbital Energies (a.u.)
 --------------------------------------------------------------
 
 Alpha MOs
 -- Occupied --
-18.983 -18.922 -18.917 -18.914 -18.900 -18.895 -18.890 -18.886
-18.872 -18.823 -10.138 -10.102 -10.093 -10.091 -10.087 -10.077
-10.075 -10.062 -10.057 -10.052 -10.047 -10.040 -10.040 -10.037
-10.033 -10.028 -10.022 -10.014 -10.011 -10.008  -1.045  -1.010
 -0.999  -0.990  -0.977  -0.958  -0.947  -0.939  -0.925  -0.916
 -0.790  -0.752  -0.750  -0.730  -0.712  -0.702  -0.689  -0.661
 -0.629  -0.620  -0.603  -0.588  -0.580  -0.562  -0.553  -0.531
 -0.524  -0.513  -0.496  -0.489  -0.477  -0.462  -0.460  -0.452
 -0.446  -0.438  -0.426  -0.423  -0.414  -0.409  -0.405  -0.397
 -0.392  -0.387  -0.378  -0.371  -0.363  -0.358  -0.355  -0.351
 -0.347  -0.343  -0.338  -0.332  -0.331  -0.325  -0.323  -0.316
 -0.310  -0.308  -0.303  -0.299  -0.296  -0.292  -0.288  -0.270
 -0.265  -0.260  -0.254  -0.241  -0.228  -0.222  -0.220  -0.194
 -0.184  -0.177  -0.172  -0.163  -0.160  -0.151  -0.140  -0.131
 -0.098
 -- Virtual --
  0.066   0.089   0.123   0.179   0.215   0.223   0.253   0.254
  0.256   0.266   0.274   0.277   0.293   0.298   0.306   0.315
  0.318   0.324   0.327   0.331   0.343   0.349   0.353   0.360
  0.361   0.371   0.374   0.380   0.383   0.396   0.399   0.403
  0.408   0.415   0.418   0.423   0.424   0.431   0.443   0.446
  0.448   0.449   0.450   0.456   0.460   0.470   0.473   0.473
  0.479   0.480   0.487   0.498   0.500   0.507   0.511   0.521
  0.527   0.537   0.556   0.567   0.602   0.617   0.633
 --------------------------------------------------------------
 
          Ground-State Mulliken Net Atomic Charges

     Atom                 Charge (a.u.)
  ----------------------------------------
      1 O                    -0.247797
      2 C                     0.134047
      3 C                    -0.070339
      4 C                    -0.092689
      5 C                     0.226253
      6 O                    -0.176167
      7 C                    -0.074780
      8 C                     0.085662
      9 O                    -0.191846
     10 C                     0.220470
     11 C                    -0.091994
     12 C                    -0.082547
     13 C                     0.148151
     14 O                    -0.248083
     15 O                    -0.240699
     16 O                    -0.202722
     17 O                    -0.186288
     18 C                    -0.157623
     19 C                     0.023350
     20 C                    -0.144494
     21 C                    -0.145177
     22 C                     0.023766
     23 O                    -0.191885
     24 H                     0.074870
     25 H                     0.076007
     26 H                     0.088503
     27 H                     0.076289
     28 H                     0.069219
     29 H                     0.075804
     30 H                     0.070734
     31 H                     0.093217
     32 O                    -0.186594
     33 C                    -0.139549
     34 C                     0.021357
     35 C                    -0.143788
     36 C                    -0.141295
     37 C                     0.024062
     38 O                    -0.188316
     39 H                     0.083354
     40 H                     0.091709
     41 H                     0.081109
     42 H                     0.103968
     43 H                     0.083539
     44 H                     0.079133
     45 H                     0.083244
     46 H                     0.078302
     47 H                     0.088979
     48 H                     0.072973
     49 H                     0.096934
     50 H                     0.060290
     51 H                     0.118268
     52 H                     0.081591
     53 H                     0.224145
     54 H                     0.175638
     55 H                     0.093143
     56 H                     0.116590
  ----------------------------------------
  Sum of atomic charges =    -0.000000

 -----------------------------------------------------------------
                    Cartesian Multipole Moments
 -----------------------------------------------------------------
    Charge (ESU x 10^10)
                -0.0000
    Dipole Moment (Debye)
         X      -4.6479      Y      -0.2604      Z       2.0071
       Tot       5.0694
    Quadrupole Moments (Debye-Ang)
        XX    -153.9473     XY      -7.8178     YY    -172.4183
        XZ       9.5274     YZ      -2.5196     ZZ    -158.6175
    Octopole Moments (Debye-Ang^2)
       XXX    -111.6242    XXY       0.7286    XYY     -14.6521
       YYY     -43.9804    XXZ      12.6718    XYZ      10.3155
       YYZ      -5.9538    XZZ     -11.9187    YZZ      -1.5676
       ZZZ     -50.0242
    Hexadecapole Moments (Debye-Ang^3)
      XXXX   -7582.0826   XXXY     -23.0880   XXYY   -1745.4138
      XYYY     -38.1604   YYYY   -2620.2271   XXXZ      19.9511
      XXYZ     -81.5454   XYYZ     -42.2642   YYYZ    -209.4996
      XXZZ   -1595.8599   XYZZ      38.2793   YYZZ    -706.7177
      XZZZ      -2.8319   YZZZ    -255.9529   ZZZZ   -1732.7385
 -----------------------------------------------------------------
 Calculating analytic gradient of the SCF energy
 Gradient of SCF Energy
            1           2           3           4           5           6
    1  -0.0001452   0.0004823  -0.0023413  -0.0001377   0.0004807  -0.0004084
    2  -0.0017205  -0.0001793  -0.0037185   0.0004642   0.0000031   0.0000795
    3  -0.0009897   0.0013520  -0.0011117  -0.0002013   0.0004827  -0.0002347
            7           8           9          10          11          12
    1  -0.0001006  -0.0022351   0.0016381  -0.0010458   0.0000571   0.0001747
    2  -0.0001366   0.0005843  -0.0008898   0.0015386  -0.0001708  -0.0001891
    3  -0.0003547   0.0001033   0.0004610   0.0001103  -0.0004151   0.0001629
           13          14          15          16          17          18
    1   0.0003289   0.0002148  -0.0005980   0.0005015   0.0003874  -0.0000147
    2   0.0008688   0.0000455  -0.0002939  -0.0006268  -0.0003979   0.0001626
    3  -0.0003121  -0.0000688   0.0003203   0.0000470   0.0000090   0.0005099
           19          20          21          22          23          24
    1   0.0000042  -0.0001079   0.0000433   0.0000804  -0.0000000   0.0000012
    2   0.0000943   0.0000747  -0.0000197  -0.0000679  -0.0001228   0.0000665
    3   0.0001144   0.0000607   0.0000085  -0.0001146  -0.0000046   0.0000572
           25          26          27          28          29          30
    1   0.0000053  -0.0000687  -0.0000140   0.0000387  -0.0000081  -0.0000333
    2   0.0002620   0.0000096   0.0000180   0.0000167  -0.0000301   0.0000232
    3   0.0001059  -0.0000048  -0.0000640   0.0000172   0.0000538  -0.0000096
           31          32          33          34          35          36
    1   0.0000227   0.0000260   0.0000790   0.0017886  -0.0000606   0.0000566
    2  -0.0000024   0.0000279  -0.0003837   0.0017939  -0.0003169   0.0000449
    3   0.0000048  -0.0002430  -0.0003492  -0.0000788  -0.0000260   0.0000301
           37          38          39          40          41          42
    1   0.0000488   0.0004056  -0.0002256   0.0000422   0.0000631  -0.0000288
    2  -0.0002962   0.0002013  -0.0003595  -0.0003252   0.0000624   0.0002963
    3   0.0001598   0.0002819  -0.0006808   0.0003917  -0.0000168  -0.0004370
           43          44          45          46          47          48
    1   0.0000485  -0.0000357  -0.0000241   0.0000283   0.0000276  -0.0000185
    2  -0.0000547   0.0000302  -0.0000687  -0.0000480  -0.0000252  -0.0000109
    3   0.0000531   0.0000022  -0.0000803  -0.0000510   0.0000073   0.0000421
           49          50          51          52          53          54
    1  -0.0000834  -0.0001041  -0.0002131   0.0000155   0.0004005   0.0003352
    2   0.0000313  -0.0000125  -0.0001307   0.0000398   0.0000980   0.0035147
    3   0.0001735   0.0000081   0.0000336  -0.0000031   0.0000380   0.0004794
           55          56
    1   0.0000181   0.0002083
    2   0.0000947   0.0000514
    3   0.0000632   0.0001067
 Max gradient component =       3.718E-03
 RMS gradient           =       6.223E-04
 Gradient time:  CPU 35.77 s  wall 0.76 s
 Geometry Optimization Parameters
   NAtoms,    NIC,     NZ,  NCons,   NDum,   NFix, NCnnct, MaxDiis
       56     744       0       0       0       0       0       0

 Cartesian Hessian Update
 Hessian Updated using BFGS Update


** GEOMETRY OPTIMIZATION IN DELOCALIZED INTERNAL COORDINATES **
   Searching for a Minimum

   Optimization Cycle: 100

                       Coordinates (Angstroms)
     ATOM                X               Y               Z
      1  O        -0.7095989667   -0.9127418923   -1.8012876465
      2  C         0.1500717441    0.0022553287   -1.0194428575
      3  C        -2.1601974331    0.8579446698   -0.1658543535
      4  C        -3.0839805540   -0.4226001978   -0.1816390352
      5  C        -2.3179206178   -1.7874621612   -0.1135440058
      6  O        -1.2060930150   -1.8729248293    0.8402392056
      7  C        -0.8206129034   -0.5558567637    1.4198449816
      8  C        -0.6700454555    0.5223029534    0.2741078489
      9  O        -0.1504999457    1.8060544016    0.7887471348
     10  C         1.2671092789    2.0349438874    0.5825450120
     11  C         2.2558785078    0.9524202684    1.1778240966
     12  C         2.3767385167   -0.4849529711    0.5250589168
     13  C         1.5743380458   -0.7757637826   -0.8204083710
     14  O         2.1947821773   -1.0939758100   -1.8876807975
     15  O         0.9501960472   -2.5532261707   -0.1792620986
     16  O         0.3359126859    1.2797647270   -1.7357264781
     17  O         1.6249385638    3.1760383936    0.2251962727
     18  C         1.0090501590    1.0625557811   -3.0408926913
     19  C         3.7542923859    1.4638626864    1.0538959344
     20  C         4.6216277024    0.7382939525    2.1556007264
     21  C         4.7334822489   -0.7087825452    1.5452397830
     22  C         3.9251369011   -0.5344461203    0.2008412958
     23  O         4.2232409547    0.8574606470   -0.2110536791
     24  H         1.9655027290    0.8497559634    2.2409518769
     25  H         2.1092771588   -1.2594754407    1.2641069326
     26  H         3.8403910331    2.5671937254    1.0131963512
     27  H         5.6098079732    1.2175387677    2.2421277126
     28  H         4.1367754480    0.7485554916    3.1447482589
     29  H         5.7807182544   -0.9804610007    1.3379442708
     30  H         4.2907498353   -1.4802198006    2.1953069585
     31  H         4.1653378304   -1.2393217155   -0.6189299138
     32  O        -2.6259266170   -2.8345172772   -0.7137305649
     33  C         0.7814938610   -3.4045843020   -1.3579723738
     34  C        -2.8730628193    1.7273171452    0.9484468892
     35  C        -4.2747579561    2.2146117126    0.4180896280
     36  C        -5.1373907902    0.9026700285    0.5493308848
     37  C        -4.0512659436   -0.1202302830    1.0563800487
     38  O        -3.2316818546    0.7080156306    1.9757942687
     39  H        -2.1507292847    1.3838755705   -1.1366332720
     40  H        -3.6824975000   -0.4747131876   -1.1071513130
     41  H        -0.2800382461   -3.5154986505   -1.6534780625
     42  H        -2.2127144459    2.5061552989    1.3755286983
     43  H        -4.6687924697    3.0222276771    1.0547860180
     44  H        -4.2140458563    2.5805683266   -0.6193653840
     45  H        -5.9328504734    1.0159689654    1.3030655540
     46  H        -5.5936505747    0.5896407170   -0.4032263397
     47  H        -4.4391615026   -1.0164837646    1.5788400005
     48  H         1.2222978348   -4.4055138680   -1.1723701157
     49  H         1.3474234803   -2.9000511505   -2.1770389095
     50  H         0.2584364028    0.9678266523   -3.8534159989
     51  H         1.6427268917    0.1427634063   -2.9780815764
     52  H         1.6303007841    1.9570526099   -3.2316457951
     53  H        -0.0145481005   -2.3869613499    0.2187544860
     54  H        -1.3124172481   -0.2298462721   -2.2800660807
     55  H         0.1159770040   -0.7360450657    1.9766837454
     56  H        -1.6413519713   -0.1935668350    2.0887830342
   Point Group: c1    Number of degrees of freedom:   162


   Energy is  -1510.250816577

 Hessian Updated using BFGS Update

161 Hessian modes will be used to form the next step
  Hessian Eigenvalues:
     0.001558    0.003296    0.004233    0.005881    0.008606    0.009856
     0.010482    0.011547    0.013380    0.013513    0.015081    0.017264
     0.018571    0.019427    0.021837    0.023778    0.024264    0.025763
     0.027613    0.029374    0.031044    0.033095    0.033276    0.034697
     0.035236    0.036740    0.037196    0.038465    0.039805    0.040507
     0.042410    0.044761    0.046235    0.046986    0.048234    0.048945
     0.049616    0.051668    0.051690    0.054441    0.055104    0.055649
     0.058899    0.059752    0.060675    0.062217    0.062633    0.065109
     0.065529    0.065990    0.067231    0.068392    0.070202    0.071261
     0.073277    0.074337    0.077054    0.079155    0.083381    0.085383
     0.088315    0.090937    0.092288    0.095318    0.097129    0.099516
     0.100703    0.102629    0.104529    0.105902    0.106693    0.111496
     0.112268    0.114890    0.116732    0.125007    0.128759    0.139673
     0.142707    0.149271    0.154371    0.158122    0.160563    0.161308
     0.163893    0.166627    0.169027    0.171461    0.175656    0.182581
     0.187717    0.198701    0.202802    0.210667    0.217817    0.223976
     0.233019    0.242179    0.243939    0.246195    0.250164    0.253918
     0.264067    0.264446    0.269329    0.274229    0.278730    0.282479
     0.284484    0.287421    0.288168    0.294355    0.296546    0.300608
     0.306452    0.315870    0.317443    0.318842    0.320486    0.321663
     0.322352    0.322683    0.322852    0.323169    0.323406    0.323821
     0.324218    0.324294    0.324413    0.325007    0.325769    0.326685
     0.326831    0.327462    0.328866    0.331675    0.334558    0.337505
     0.349393    0.355119    0.368045    0.379548    0.392074    0.404415
     0.414293    0.433174    0.447958    0.467625    0.480351    0.582326
     0.665589    0.761955    0.934251    0.943755    0.999289    1.385398
     1.526640    3.010385    4.307135   11.387102   15.840781

 Minimum Search - Taking Simple RFO Step
 Searching for Lamda that Minimizes Along All modes
 Value Taken    Lamda =  -0.00015846
 Step Taken.  Stepsize is  0.246113

                             Maximum     Tolerance    Cnvgd?
         Gradient           0.003188      0.000300      NO
         Displacement       0.086697      0.001200      NO
         Energy change     -0.000079      0.000001      NO


 New Cartesian Coordinates Obtained by Inverse Iteration

 Displacement from previous Coordinates is:  0.217852
 Adding empirical dispersion correction 
 ----------------------------------------------------------------
 Doing -D3(op) with
 s6 =   1.00000
 s8 =   0.78311
 a1 =   0.30000
 a2 =   4.25000
 n  =  10.00000
 -D3 energy without 3body term =     -0.0879001059 hartrees
 ----------------------------------------------------------------
             Standard Nuclear Orientation (Angstroms)
    I     Atom           X                Y                Z
 ----------------------------------------------------------------
    1      O      -0.7236019058    -0.9122905014    -1.7867365671
    2      C       0.1469861353     0.0021085339    -1.0153103130
    3      C      -2.1610068954     0.8628180810    -0.1594481726
    4      C      -3.0811875370    -0.4196422330    -0.1854672617
    5      C      -2.3125590419    -1.7833286183    -0.1195689392
    6      O      -1.2019783560    -1.8695960743     0.8376684839
    7      C      -0.8184528443    -0.5538213697     1.4221834958
    8      C      -0.6689181778     0.5263803881     0.2781310750
    9      O      -0.1494744287     1.8111518446     0.7889243414
   10      C       1.2692780683     2.0376315947     0.5797554731
   11      C       2.2592117877     0.9556277312     1.1739825830
   12      C       2.3714284512    -0.4868437621     0.5297024847
   13      C       1.5710067616    -0.7789041344    -0.8166254810
   14      O       2.1943665906    -1.0927187069    -1.8847069662
   15      O       0.9497315269    -2.5455951866    -0.1868289655
   16      O       0.3262909098     1.2737897737    -1.7410780663
   17      O       1.6270266890     3.1783784152     0.2202051026
   18      C       1.0114598587     1.0538272487    -3.0410406497
   19      C       3.7588395801     1.4614641833     1.0387042201
   20      C       4.6265308635     0.7466911383     2.1470440984
   21      C       4.7262394666    -0.7093958333     1.5567062490
   22      C       3.9198453243    -0.5477133675     0.2094552503
   23      O       4.2239985164     0.8381050419    -0.2194661788
   24      H       1.9754800488     0.8590180502     2.2394380521
   25      H       2.0944324026    -1.2554924164     1.2715864832
   26      H       3.8477312244     2.5639845286     0.9843644743
   27      H       5.6183035928     1.2203667098     2.2228410131
   28      H       4.1459492582     0.7741965403     3.1379385466
   29      H       5.7710901263    -0.9926890733     1.3530477919
   30      H       4.2772582254    -1.4679454638     2.2176395772
   31      H       4.1589365647    -1.2636342234    -0.6009438709
   32      O      -2.6217508029    -2.8322286263    -0.7156866692
   33      C       0.7844522464    -3.3961562276    -1.3657752292
   34      C      -2.8773036351     1.7222887254     0.9618659786
   35      C      -4.2767681073     2.2146369386     0.4302149628
   36      C      -5.1389063236     0.9010278437     0.5455681482
   37      C      -4.0550144082    -0.1262204207     1.0495535754
   38      O      -3.2397660744     0.6945479633     1.9795701154
   39      H      -2.1526172458     1.3951531231    -1.1244933864
   40      H      -3.6757556005    -0.4689412164    -1.1137634022
   41      H      -0.2766239835    -3.5116074736    -1.6614575460
   42      H      -2.2179018697     2.4965200517     1.3985384527
   43      H      -4.6747107205     3.0162508135     1.0720694781
   44      H      -4.2113689594     2.5898218588    -0.6036518720
   45      H      -5.9377229591     1.0074997175     1.2967975491
   46      H      -5.5906752100     0.5964407968    -0.4117950535
   47      H      -4.4467412560    -1.0259506235     1.5631074998
   48      H       1.2297350476    -4.3950848985    -1.1807970237
   49      H       1.3492107294    -2.8874411782    -2.1836917397
   50      H       0.2682418009     0.9447308495    -3.8582972785
   51      H       1.6565360993     0.1420814232    -2.9650433437
   52      H       1.6228406310     1.9544797087    -3.2336248963
   53      H      -0.0168241468    -2.3819374214     0.2126016116
   54      H      -1.2945322396    -0.2261025538    -2.3005173227
   55      H       0.1191498037    -0.7359584096     1.9761756564
   56      H      -1.6412457072    -0.1983674255     2.0925434833
 ----------------------------------------------------------------
 Molecular Point Group                 C1    NOp =  1
 Largest Abelian Subgroup              C1    NOp =  1
 Nuclear Repulsion Energy =  3538.1654051870 hartrees
 There are      113 alpha and      113 beta electrons


 *******************************************
 **  MAXIMUM OPTIMIZATION CYCLES REACHED  **
 *******************************************

 Q-Chem fatal error occurred in module 0, line  456, PE  0:

 Maximum optimization cycles reached

