mFile = /opt/software/qchem/qchem-5.0.1//bin/mpi/machines
Process 0 of 1 is on vega02.cac.cornell.edu - thread support 0
initial socket setup ...start
initial socket setup ...done 
now start server 0 ... 
vega02.cac.cornell.edu 10.84.3
Q-Chem Developer Version! Running on 10.84.3.*
                  Welcome to Q-Chem
     A Quantum Leap Into The Future Of Chemistry


 Q-Chem 5.0, Q-Chem, Inc., Pleasanton, CA (2017)

 Yihan Shao,  Zhengting Gan,  E. Epifanovsky,  A. T. B. Gilbert,  M. Wormit,  
 J. Kussmann,  A. W. Lange,  A. Behn,  Jia Deng,  Xintian Feng,  D. Ghosh,  
 M. Goldey,  P. R. Horn,  L. D. Jacobson,  I. Kaliman,  T. Kus,  A. Landau,  
 Jie Liu,  E. I. Proynov,  R. M. Richard,  R. P. Steele,  E. J. Sundstrom,  
 H. L. Woodcock III,  P. M. Zimmerman,  D. Zuev,  B. Albrecht,  E. Alguire,  
 S. A. Baeppler,  Z. Benda,  Y. A. Bernard,  E. J. Berquist,  K. B. Bravaya,  
 D. Casanova,  Chun-Min Chang,  Yunqing Chen,  A. Chien,  K. D. Closser,  
 M. P. Coons,  S. Dasgupta,  M. Diedenhofen,  Hainam Do,  R. G. Edgar,  
 Po-Tung Fang,  S. Fatehi,  Qingguo Feng,  Qinghui Ge,  A. Ghysels,  
 J. Gomes,  J. Gonthier,  A. Gunina,  M. W. D. Hanson-Heine,  
 P. H. P. Harbach,  A. W. Hauser,  J. E. Herr,  E. G. Hohenstein,  
 Z. C. Holden,  Kerwin Hui,  T.-C. Jagau,  Hyunjun Ji,  B. Kaduk,  
 K. Khistyaev,  Jaehoon Kim,  P. Klunzinger,  K. Koh,  D. Kosenkov,  
 T. Kowalczyk,  C. M. Krauter,  A. Kunitsa,  Ka Un Lao,  A. Laurent,  
 K. V. Lawler,  Joonho Lee,  D. Lefrancois,  S. Lehtola,  D. S. Levine,  
 Yi-Pei Li,  You-Sheng Lin,  Fenglai Liu,  E. Livshits,  A. Luenser,  
 P. Manohar,  E. Mansoor,  S. F. Manzer,  Shan-Ping Mao,  Yuezhi Mao,  
 N. Mardirossian,  A. V. Marenich,  L. A. Martinez-Martinez,  S. A. Maurer,  
 N. J. Mayhall,  S. C. McKenzie,  J.-M. Mewes,  A. F. Morrison,  K. Nanda,  
 T. S. Nguyen-Beck,  R. Olivares-Amaya,  J. A. Parkhill,  T. M. Perrine,  
 F. Plasser,  S. Prager,  A. Prociuk,  D. R. Rehn,  F. Rob,  M. Schneider,  
 N. Sergueev,  S. M. Sharada,  S. Sharma,  D. W. Small,  T. Stauch,  
 T. Stein,  Yu-Chuan Su,  A. J. W. Thom,  T. Tsuchimochi,  L. Vogt,  
 O. Vydrov,  M. A. Watson,  J. Wenzel,  M. de Wergifosse,  T. A. Wesolowski,  
 A. White,  J. Witte,  A. Yamada,  Jun Yang,  K. Yao,  S. Yeganeh,  
 S. R. Yost,  Zhi-Qiang You,  A. Zech,  Igor Ying Zhang,  Xing Zhang,  
 Yan Zhao,  Ying Zhu,  B. R. Brooks,  G. K. L. Chan,  C. J. Cramer,  
 M. S. Gordon,  W. J. Hehre,  A. Klamt,  M. W. Schmidt,  C. D. Sherrill,  
 D. G. Truhlar,  A. Aspuru-Guzik,  R. Baer,  A. T. Bell,  N. A. Besley,  
 Jeng-Da Chai,  A. Dreuw,  B. D. Dunietz,  T. R. Furlani,  Chao-Ping Hsu,  
 Yousung Jung,  Jing Kong,  D. S. Lambrecht,  WanZhen Liang,  C. Ochsenfeld,  
 V. A. Rassolov,  L. V. Slipchenko,  J. E. Subotnik,  T. Van Voorhis,  
 J. M. Herbert,  A. I. Krylov,  P. M. W. Gill,  M. Head-Gordon

 Contributors to earlier versions of Q-Chem not listed above: 
 R. D. Adamson,  B. Austin,  J. Baker,  G. J. O. Beran,  K. Brandhorst,  
 S. T. Brown,  E. F. C. Byrd,  A. K. Chakraborty,  C.-L. Cheng,  
 Siu Hung Chien,  D. M. Chipman,  D. L. Crittenden,  H. Dachsel,  
 R. A. DiStasio Jr.,  R. J. Doerksen,  A. D. Dutoi,  L. Fusti-Molnar,  
 W. A. Goddard III,  A. Golubeva-Zadorozhnaya,  S. R. Gwaltney,  G. Hawkins,  
 A. Heyden,  S. Hirata,  G. Kedziora,  F. J. Keil,  C. Kelley,  Jihan Kim,  
 R. A. King,  R. Z. Khaliullin,  P. P. Korambath,  W. Kurlancheek,  
 A. M. Lee,  M. S. Lee,  S. V. Levchenko,  Ching Yeh Lin,  D. Liotard,  
 R. C. Lochan,  I. Lotan,  P. E. Maslen,  N. Nair,  D. P. O'Neill,  
 D. Neuhauser,  E. Neuscamman,  C. M. Oana,  R. Olson,  B. Peters,  
 R. Peverati,  P. A. Pieniazek,  Y. M. Rhee,  J. Ritchie,  M. A. Rohrdanz,  
 E. Rosta,  N. J. Russ,  H. F. Schaefer III,  N. E. Schultz,  N. Shenvi,  
 A. C. Simmonett,  A. Sodt,  D. Stuck,  K. S. Thanthiriwatte,  V. Vanovschi,  
 Tao Wang,  A. Warshel,  C. F. Williams,  Q. Wu,  X. Xu,  W. Zhang

 Please cite Q-Chem as follows:
 Y. Shao et al., Mol. Phys. 113, 184-215 (2015)
 DOI: 10.1080/00268976.2014.952696

 Q-Chem 5.0.1 for Intel X86 EM64T Linux

 Parts of Q-Chem use Armadillo 5.200.1 (Boston Tea Smuggler).
 http://arma.sourceforge.net/

 Q-Chem begins on Tue Jan 16 11:30:40 2018  

Host: vega02.cac.cornell.edu
0

     Scratch files written to /scratch/jj585/SOT1001/1135r.save//
 Parallel job on  1  processors

Checking the input file for inconsistencies... 	...done.

--------------------------------------------------------------
User input:
--------------------------------------------------------------
$molecule
0  1
O -6.2583904568 -0.661188729 -0.6731976704
C -5.0580001715 -0.3465597364 -0.5235989638
C -4.4516297373 0.5851990987 0.5799697995
C -2.9519184679 0.2516589425 0.9561692354
C -2.4443695294 -1.1514067456 0.4549605804
O -1.0930916651 -1.0004290678 0.0046577548
C -0.3353527742 -2.2641642952 0.1359883993
C 1.1789050088 -1.854659155 0.3723956862
O 1.2554180576 -0.3823009961 0.3876662493
C 2.177043129 0.1221771843 1.3901423195
C 3.3944294055 0.8905337581 0.7448714863
C 4.3358433785 0.0669347601 -0.2231373696
C 4.3303421642 -1.4921944667 -0.1124887036
O 4.7266916065 -2.3005375963 -0.9811231181
O -4.0203820973 -0.6770993636 -1.4562601148
O 3.9788735285 -1.8646462858 1.2285081115
O 1.9769959139 -0.0021783951 2.6170669513
C 4.1652658373 -3.3221001849 1.4263517021
C 2.8115722111 1.9456579949 -0.3034164047
C 3.9661281338 2.9197886255 -0.7742717503
C 4.7303229209 2.0162368201 -1.8133130337
C 3.9478182768 0.6559846508 -1.6481442126
O 2.5469708159 1.1027300425 -1.4921240258
H 3.9671008013 1.3700137326 1.5577970801
H 5.3832090498 0.3486955641 0.002914421
H 1.8809803363 2.4465627138 0.0269878499
H 3.5434244848 3.8185718452 -1.2505121512
H 4.6053221029 3.233697012 0.0666330696
H 4.6147797281 2.3998966658 -2.8396807918
H 5.8046867465 1.9173421461 -1.5907216682
H 4.0455436634 -0.0648631333 -2.4832402789
O -3.0105689114 -2.2548604481 0.6164788192
C -4.5427402252 -1.5702601063 -2.5133667909
C -4.2618357203 2.0438261752 -0.0346470405
C -3.8881470804 3.0475573152 1.1288012972
C -2.368165396 2.7059728288 1.354228928
C -2.1825335423 1.5013630096 0.3522519894
O -3.008813178 1.9073063509 -0.8095186495
H -5.1239747242 0.5839631703 1.4552470467
H -2.8359488352 0.2295140938 2.0566242399
H -5.4354148826 -1.13708425 -3.0084899472
H -5.0915647867 2.373745069 -0.6899271891
H -4.0273435948 4.08953867 0.7998897197
H -4.5001543053 2.8773849131 2.0291347671
H -1.7205140328 3.5484270688 1.0633414355
H -2.140703585 2.4269600664 2.3954430377
H -1.1436247003 1.274849113 0.0428660786
H -4.8125965205 -2.5649695325 -2.1025307599
H -3.7250654178 -1.6839196462 -3.2485962054
H 3.2162772132 -3.7617910819 1.7885940952
H 4.9549834782 -3.4825894194 2.1862395338
H 4.4622228747 -3.7868793866 0.4643750834
H 1.5348185769 -2.2930112197 1.3270229615
H 1.8085514563 -2.2482216779 -0.4562954531
H -0.4323492277 -2.8741117511 -0.7890107459
H -0.7315203765 -2.8653154516 0.9816143097
$end

$rem
JOBTYPE                   OPT
METHOD                    B3LYP
DFT_D                     d3_op
BASIS                     STO-3G
GEOM_OPT_MAX_CYCLES       100
GEOM_OPT_TOL_GRADIENT     300
GEOM_OPT_TOL_DISPLACEMENT 1200
GEOM_OPT_TOL_ENERGY       100
SYMMETRY                  False
THRESH                    12
SCF_CONVERGENCE           8
MAX_SUB_FILE_NUM          128
MEM_STATIC                400
MEM_TOTAL                 4000
$end
--------------------------------------------------------------
 Adding empirical dispersion correction 
 ----------------------------------------------------------------
 Doing -D3(op) with
 s6 =   1.00000
 s8 =   0.78311
 a1 =   0.30000
 a2 =   4.25000
 n  =  10.00000
 -D3 energy without 3body term =     -0.0690994339 hartrees
 ----------------------------------------------------------------
             Standard Nuclear Orientation (Angstroms)
    I     Atom           X                Y                Z
 ----------------------------------------------------------------
    1      O       6.2153158816    -1.0149873248     0.6317407277
    2      C       5.0352197413    -0.6325217707     0.4787661789
    3      C       4.4704614994     0.2650920947    -0.6740829537
    4      C       2.9458430595     0.0073254463    -1.0072554474
    5      C       2.3579596396    -1.3248626657    -0.4096960070
    6      O       1.0275437912    -1.0574382500     0.0485578667
    7      C       0.1876472740    -2.2746011104     0.0094285720
    8      C      -1.3010541065    -1.7825991871    -0.2319462520
    9      O      -1.2827191468    -0.3123299129    -0.3410245517
   10      C      -2.1877625300     0.1868455056    -1.3611077121
   11      C      -3.3412685589     1.0726708668    -0.7499507032
   12      C      -4.3162838458     0.3755605103     0.2820372155
   13      C      -4.4133304647    -1.1844521227     0.2720434557
   14      O      -4.8453064518    -1.9083779067     1.1963623658
   15      O       3.9953777027    -0.8345660347     1.4450328014
   16      O      -4.1107734071    -1.6634191497    -1.0468852124
   17      O      -2.0182373007    -0.0279052635    -2.5801116310
   18      C      -4.3942934095    -3.1151392306    -1.1477874523
   19      C      -2.6728324527     2.1516988776     0.2200023320
   20      C      -3.7535140015     3.2272643586     0.6429927653
   21      C      -4.5555869743     2.4434297807     1.7485643944
   22      C      -3.8655279617     1.0271089739     1.6606203608
   23      O      -2.4418175421     1.3703335421     1.4567996328
   24      H      -3.8963461271     1.5361140507    -1.5841035089
   25      H      -5.3471925366     0.7104220887     0.0527810125
   26      H      -1.7179644388     2.5686033094    -0.1548196485
   27      H      -3.2652368010     4.1248158749     1.0544307574
   28      H      -4.3861453585     3.5284089218    -0.2074881808
   29      H      -4.3971125070     2.8830124833     2.7463763868
   30      H      -5.6379191232     2.4012094013     1.5476682485
   31      H      -3.9945102075     0.3686251482     2.5417105097
   32      O       2.8488249481    -2.4710535461    -0.5075615765
   33      C       4.4779661254    -1.6911856763     2.5501933574
   34      C       4.3862061788     1.7690541471    -0.1521943034
   35      C       4.0571728158     2.7193007834    -1.3726449626
   36      C       2.5145207472     2.4644127552    -1.5545751343
   37      C       2.2696315792     1.3405235375    -0.4745732321
   38      O       3.1411188382     1.7643254756     0.6470955804
   39      H       5.1254855325     0.1643098795    -1.5566621453
   40      H       2.8089251357    -0.0769185305    -2.1022883243
   41      H       5.4054728468    -1.2868911873     3.0039923816
   42      H       5.2471283692     2.0848019190     0.4689378886
   43      H       4.2691654267     3.7686825156    -1.1135296364
   44      H       4.6406495381     2.4526492971    -2.2685041849
   45      H       1.9278799865     3.3642312605    -1.3096746577
   46      H       2.2508604703     2.1354312212    -2.5724003786
   47      H       1.2240069827     1.2026296550    -0.1369132706
   48      H       4.6756845731    -2.7254837415     2.2006358730
   49      H       3.6680115068    -1.7041817145     3.3024416491
   50      H      -3.4823002278    -3.6381368938    -1.4940083727
   51      H      -5.2062478911    -3.2714180517    -1.8847726037
   52      H      -4.7032660979    -3.4975234704    -0.1538456158
   53      H      -1.7015972133    -2.2563507013    -1.1513291742
   54      H      -1.9397729045    -2.0807224630     0.6290043401
   55      H       0.2617178435    -2.8297007762     0.9703893107
   56      H       0.5289585883    -2.9528277754    -0.8010835129
 ----------------------------------------------------------------
 Molecular Point Group                 C1    NOp =  1
 Largest Abelian Subgroup              C1    NOp =  1
 Nuclear Repulsion Energy =  3185.3505833101 hartrees
 There are      113 alpha and      113 beta electrons
 Requested basis set is STO-3G
 There are 86 shells and 176 basis functions

 Total QAlloc Memory Limit   4000 MB
 Mega-Array Size       392 MB
 MEM_STATIC part       400 MB
 A cutoff of  1.0D-12 yielded   2243 shell pairs
 There are     10628 function pairs
 
 -------------------------------------------------------
 OpenMP Integral Computing Module                       
 Release: version 1.0, May 2013, Q-Chem Inc. Pittsburgh 
 -------------------------------------------------------
 Integral Job Info:
 Integral job number is                      11
 Integral operator is                         1
 short-range coefficients                     0
 long-range coefficients              100000000
 Omega coefficients                           0
 if combine SR and LR in K                    0
 Integral screening is                        0
 Integral computing path is                   2
 max size of driver memory is            800000
 size of driver memory is                 45569
 size of scratch memory is              1046100
 max col of scratch BK array                289
 max len of scratch array in speh3           22
 max len of scratch index in speh4            8
 max int batch size is                      520
 min int batch size is                       52
 fixed nKL is                                52
 max L of basis functions is                  1
 order of int derivative is                   0
 number of shells is                         86
 number of basis is                         176
 number of cartesian basis is               176
 number of contracted shell pairs          2243
 number of primitive shell pairs          11316
 maxK2 (contraction) of shell pair            9
 max number of K2 of shell pair               1
 max number of CS2 of shell pair            354
 max number of PS2 of shell pair           1218
 mem total for path MDJ                   50314
 -------------------------------------------------------
 Smallest overlap matrix eigenvalue = 2.13E-01

 Scale SEOQF with 1.000000e-02/1.000000e-01/1.000000e-01

 Standard Electronic Orientation quadrupole field applied
 Nucleus-field energy     =     0.0000000272 hartrees
 Guess from superposition of atomic densities
 Warning:  Energy on first SCF cycle will be non-variational
 A restricted hybrid HF-DFT SCF calculation will be
 performed using Pulay DIIS extrapolation
 Exchange:     0.2000 Hartree-Fock + 0.0800 Slater + 0.7200 B88
 Correlation:  0.1900 VWN1RPA + 0.8100 LYP
 Using SG-1 standard quadrature grid
 Dispersion:   Grimme D3
 SCF converges when DIIS error is below 1.0E-08
 using 48 threads for integral computing
 -------------------------------------------------------
 OpenMP Integral computing Module                
 Release: version 1.0, May 2013, Q-Chem Inc. Pittsburgh 
 -------------------------------------------------------
 -------------------------------------------------------
 OpenMP BLAS3 based DFT computing Module                
 Release: version 1.0, May 2013, Q-Chem Inc. Pittsburgh 
 -------------------------------------------------------
 ---------------------------------------
  Cycle       Energy         DIIS Error
 ---------------------------------------
    1   -1507.6050255643      7.45E-02
    2   -1509.6971229678      1.05E-02
    3   -1507.3773201434      2.70E-02
    4   -1510.1484323721      4.73E-03
    5   -1510.2398294177      1.48E-03
    6   -1510.2481473298      5.60E-04
    7   -1510.2494524831      1.56E-04
    8   -1510.2495546471      3.75E-05
    9   -1510.2495595606      1.71E-05
   10   -1510.2495607220      5.63E-06
   11   -1510.2495608608      1.34E-06
   12   -1510.2495608694      2.65E-07
   13   -1510.2495608697      9.74E-08
   14   -1510.2495608697      4.74E-08
   15   -1510.2495608697      1.84E-08
   16   -1510.2495608697      5.92E-09 Convergence criterion met
 ---------------------------------------
 SCF time:  CPU 120.70 s  wall 2.58 s
 SCF   energy in the final basis set = -1510.24956087
 Total energy in the final basis set = -1510.24956087
 
 --------------------------------------------------------------
 
                    Orbital Energies (a.u.)
 --------------------------------------------------------------
 
 Alpha MOs
 -- Occupied --
-18.945 -18.929 -18.923 -18.902 -18.893 -18.891 -18.888 -18.881
-18.867 -18.862 -10.112 -10.105 -10.094 -10.091 -10.073 -10.068
-10.067 -10.063 -10.062 -10.057 -10.055 -10.048 -10.046 -10.040
-10.031 -10.030 -10.023 -10.022 -10.016 -10.014  -1.023  -1.008
 -1.003  -0.997  -0.973  -0.963  -0.948  -0.937  -0.929  -0.922
 -0.768  -0.757  -0.727  -0.719  -0.713  -0.704  -0.690  -0.669
 -0.653  -0.611  -0.600  -0.576  -0.550  -0.541  -0.538  -0.531
 -0.520  -0.506  -0.490  -0.474  -0.470  -0.457  -0.450  -0.436
 -0.434  -0.428  -0.427  -0.420  -0.416  -0.406  -0.405  -0.402
 -0.393  -0.387  -0.372  -0.365  -0.359  -0.356  -0.351  -0.347
 -0.345  -0.338  -0.335  -0.333  -0.330  -0.323  -0.318  -0.315
 -0.309  -0.303  -0.299  -0.298  -0.290  -0.287  -0.285  -0.281
 -0.268  -0.259  -0.245  -0.242  -0.236  -0.230  -0.226  -0.187
 -0.172  -0.171  -0.164  -0.159  -0.154  -0.149  -0.142  -0.141
 -0.135
 -- Virtual --
  0.078   0.090   0.100   0.116   0.214   0.229   0.251   0.254
  0.258   0.275   0.284   0.291   0.304   0.316   0.322   0.331
  0.336   0.340   0.341   0.346   0.347   0.353   0.361   0.370
  0.374   0.378   0.390   0.393   0.397   0.399   0.403   0.409
  0.412   0.416   0.418   0.420   0.429   0.431   0.434   0.437
  0.439   0.439   0.442   0.446   0.449   0.455   0.458   0.465
  0.477   0.479   0.486   0.493   0.497   0.508   0.513   0.535
  0.541   0.550   0.560   0.623   0.633   0.648   0.654
 --------------------------------------------------------------
 
          Ground-State Mulliken Net Atomic Charges

     Atom                 Charge (a.u.)
  ----------------------------------------
      1 O                    -0.214690
      2 C                     0.211982
      3 C                    -0.079269
      4 C                    -0.077015
      5 C                     0.219129
      6 O                    -0.167304
      7 C                    -0.046271
      8 C                    -0.041685
      9 O                    -0.187600
     10 C                     0.222613
     11 C                    -0.078805
     12 C                    -0.079381
     13 C                     0.209271
     14 O                    -0.212963
     15 O                    -0.164635
     16 O                    -0.172466
     17 O                    -0.190985
     18 C                    -0.137274
     19 C                     0.026940
     20 C                    -0.145295
     21 C                    -0.142217
     22 C                     0.025126
     23 O                    -0.181888
     24 H                     0.084767
     25 H                     0.087248
     26 H                     0.084033
     27 H                     0.079239
     28 H                     0.073363
     29 H                     0.079308
     30 H                     0.073185
     31 H                     0.089253
     32 O                    -0.222686
     33 C                    -0.127002
     34 C                     0.025243
     35 C                    -0.144632
     36 C                    -0.143527
     37 C                     0.022476
     38 O                    -0.187882
     39 H                     0.084810
     40 H                     0.082909
     41 H                     0.090384
     42 H                     0.081434
     43 H                     0.076788
     44 H                     0.073064
     45 H                     0.075646
     46 H                     0.072904
     47 H                     0.101152
     48 H                     0.089460
     49 H                     0.091317
     50 H                     0.085452
     51 H                     0.088850
     52 H                     0.103551
     53 H                     0.085521
     54 H                     0.078744
     55 H                     0.082690
     56 H                     0.087617
  ----------------------------------------
  Sum of atomic charges =    -0.000000

 -----------------------------------------------------------------
                    Cartesian Multipole Moments
 -----------------------------------------------------------------
    Charge (ESU x 10^10)
                 0.0000
    Dipole Moment (Debye)
         X      -3.5076      Y       0.7984      Z      -0.9771
       Tot       3.7277
    Quadrupole Moments (Debye-Ang)
        XX    -159.5959     XY       4.4064     YY    -151.0198
        XZ       0.4938     YZ      -2.2646     ZZ    -161.3751
    Octopole Moments (Debye-Ang^2)
       XXX    -137.2103    XXY      53.8264    XYY     -30.3769
       YYY     -32.3377    XXZ     -20.0248    XYZ     -34.3900
       YYZ      -6.0135    XZZ      39.1419    YZZ     -17.9468
       ZZZ      30.2969
    Hexadecapole Moments (Debye-Ang^3)
      XXXX  -13160.0587   XXXY     174.8626   XXYY   -2586.1401
      XYYY      88.0501   YYYY   -3213.7524   XXXZ     165.1831
      XXYZ      42.7315   XYYZ      92.1486   YYYZ      28.3790
      XXZZ   -2285.7146   XYZZ     -43.8210   YYZZ    -778.9564
      XZZZ      53.1390   YZZZ      -2.4137   ZZZZ   -1494.9068
 -----------------------------------------------------------------
 Calculating analytic gradient of the SCF energy
 Gradient of SCF Energy
            1           2           3           4           5           6
    1   0.0006070  -0.0015041   0.0015681  -0.0034174   0.0029645   0.0005939
    2   0.0026865  -0.0032841  -0.0017426   0.0012397   0.0023141  -0.0023330
    3   0.0018227  -0.0026432  -0.0027584  -0.0021390   0.0076127   0.0020797
            7           8           9          10          11          12
    1  -0.0016583  -0.0077577   0.0055628   0.0091442  -0.0124583   0.0039118
    2   0.0010958   0.0006962  -0.0069597   0.0159782  -0.0101817   0.0006105
    3  -0.0059384   0.0073762  -0.0074738   0.0008324  -0.0042972   0.0049237
           13          14          15          16          17          18
    1   0.0050165  -0.0042984   0.0000787   0.0001529   0.0000091   0.0000153
    2  -0.0001587   0.0001998  -0.0000324  -0.0001021  -0.0000063  -0.0000039
    3   0.0012065  -0.0016177   0.0000723  -0.0001156   0.0000035   0.0000560
           19          20          21          22          23          24
    1   0.0007228  -0.0001218   0.0001700  -0.0002360  -0.0000285   0.0000775
    2   0.0001816   0.0002227  -0.0003165   0.0001846   0.0000321   0.0000213
    3  -0.0002549   0.0001298  -0.0002194   0.0000869   0.0001174   0.0000743
           25          26          27          28          29          30
    1  -0.0000375  -0.0000385   0.0000360   0.0000010  -0.0000125   0.0000248
    2  -0.0000702  -0.0001470  -0.0000121  -0.0000727   0.0000308   0.0000204
    3   0.0000816  -0.0000151   0.0000744  -0.0000249   0.0000490   0.0000463
           31          32          33          34          35          36
    1  -0.0000024   0.0001242   0.0000130  -0.0001036  -0.0002308   0.0003193
    2   0.0000537  -0.0000079  -0.0000232  -0.0002985  -0.0002857   0.0001699
    3   0.0000126   0.0000187   0.0000477   0.0003227  -0.0001109  -0.0000624
           37          38          39          40          41          42
    1  -0.0000707   0.0001432  -0.0000042   0.0000432   0.0000291   0.0000233
    2   0.0001833   0.0001685   0.0000067  -0.0000541   0.0000025  -0.0000125
    3  -0.0000623   0.0000944  -0.0000455   0.0000507   0.0000098   0.0000759
           43          44          45          46          47          48
    1   0.0000554   0.0001743   0.0000299  -0.0000070   0.0000614   0.0000205
    2  -0.0000058   0.0000463  -0.0000859   0.0001299  -0.0001929  -0.0000457
    3   0.0000111   0.0000005   0.0000849   0.0000599   0.0000370   0.0000682
           49          50          51          52          53          54
    1   0.0000211   0.0000040   0.0000076   0.0000562  -0.0000104   0.0000259
    2   0.0000245   0.0000165   0.0000134   0.0000584  -0.0000425  -0.0000069
    3  -0.0000273   0.0000640   0.0000028   0.0000063   0.0000664   0.0000072
           55          56
    1   0.0000440   0.0001456
    2  -0.0000150   0.0001114
    3   0.0000590   0.0000613
 Max gradient component =       1.598E-02
 RMS gradient           =       2.605E-03
 Gradient time:  CPU 31.46 s  wall 0.68 s
 Geometry Optimization Parameters
   NAtoms,    NIC,     NZ,  NCons,   NDum,   NFix, NCnnct, MaxDiis
       56     458       0       0       0       0       0       0


** GEOMETRY OPTIMIZATION IN DELOCALIZED INTERNAL COORDINATES **
   Searching for a Minimum

   Optimization Cycle:   1

                       Coordinates (Angstroms)
     ATOM                X               Y               Z
      1  O         6.2153158816   -1.0149873248    0.6317407277
      2  C         5.0352197413   -0.6325217707    0.4787661789
      3  C         4.4704614994    0.2650920947   -0.6740829537
      4  C         2.9458430595    0.0073254463   -1.0072554474
      5  C         2.3579596396   -1.3248626657   -0.4096960070
      6  O         1.0275437912   -1.0574382500    0.0485578667
      7  C         0.1876472740   -2.2746011104    0.0094285720
      8  C        -1.3010541065   -1.7825991871   -0.2319462520
      9  O        -1.2827191468   -0.3123299129   -0.3410245517
     10  C        -2.1877625300    0.1868455056   -1.3611077121
     11  C        -3.3412685589    1.0726708668   -0.7499507032
     12  C        -4.3162838458    0.3755605103    0.2820372155
     13  C        -4.4133304647   -1.1844521227    0.2720434557
     14  O        -4.8453064518   -1.9083779067    1.1963623658
     15  O         3.9953777027   -0.8345660347    1.4450328014
     16  O        -4.1107734071   -1.6634191497   -1.0468852124
     17  O        -2.0182373007   -0.0279052635   -2.5801116310
     18  C        -4.3942934095   -3.1151392306   -1.1477874523
     19  C        -2.6728324527    2.1516988776    0.2200023320
     20  C        -3.7535140015    3.2272643586    0.6429927653
     21  C        -4.5555869743    2.4434297807    1.7485643944
     22  C        -3.8655279617    1.0271089739    1.6606203608
     23  O        -2.4418175421    1.3703335421    1.4567996328
     24  H        -3.8963461271    1.5361140507   -1.5841035089
     25  H        -5.3471925366    0.7104220887    0.0527810125
     26  H        -1.7179644388    2.5686033094   -0.1548196485
     27  H        -3.2652368010    4.1248158749    1.0544307574
     28  H        -4.3861453585    3.5284089218   -0.2074881808
     29  H        -4.3971125070    2.8830124833    2.7463763868
     30  H        -5.6379191232    2.4012094013    1.5476682485
     31  H        -3.9945102075    0.3686251482    2.5417105097
     32  O         2.8488249481   -2.4710535461   -0.5075615765
     33  C         4.4779661254   -1.6911856763    2.5501933574
     34  C         4.3862061788    1.7690541471   -0.1521943034
     35  C         4.0571728158    2.7193007834   -1.3726449626
     36  C         2.5145207472    2.4644127552   -1.5545751343
     37  C         2.2696315792    1.3405235375   -0.4745732321
     38  O         3.1411188382    1.7643254756    0.6470955804
     39  H         5.1254855325    0.1643098795   -1.5566621453
     40  H         2.8089251357   -0.0769185305   -2.1022883243
     41  H         5.4054728468   -1.2868911873    3.0039923816
     42  H         5.2471283692    2.0848019190    0.4689378886
     43  H         4.2691654267    3.7686825156   -1.1135296364
     44  H         4.6406495381    2.4526492971   -2.2685041849
     45  H         1.9278799865    3.3642312605   -1.3096746577
     46  H         2.2508604703    2.1354312212   -2.5724003786
     47  H         1.2240069827    1.2026296550   -0.1369132706
     48  H         4.6756845731   -2.7254837415    2.2006358730
     49  H         3.6680115068   -1.7041817145    3.3024416491
     50  H        -3.4823002278   -3.6381368938   -1.4940083727
     51  H        -5.2062478911   -3.2714180517   -1.8847726037
     52  H        -4.7032660979   -3.4975234704   -0.1538456158
     53  H        -1.7015972133   -2.2563507013   -1.1513291742
     54  H        -1.9397729045   -2.0807224630    0.6290043401
     55  H         0.2617178435   -2.8297007762    0.9703893107
     56  H         0.5289585883   -2.9528277754   -0.8010835129
   Point Group: c1    Number of degrees of freedom:   162


   Energy is  -1510.249560870


 Attempting to Generate Delocalized Internal Coordinates

162 Hessian modes will be used to form the next step
  Hessian Eigenvalues:
     0.002000    0.002000    0.002000    0.002000    0.002000    0.002714
     0.002744    0.003706    0.004608    0.004721    0.004896    0.005150
     0.005167    0.005558    0.005801    0.006786    0.006790    0.008742
     0.010956    0.011175    0.011371    0.021497    0.021703    0.025029
     0.025807    0.030667    0.030915    0.034916    0.035188    0.037690
     0.039943    0.042067    0.042169    0.043477    0.044838    0.047869
     0.048573    0.051015    0.051084    0.051365    0.052295    0.053552
     0.054370    0.054847    0.055549    0.055731    0.055770    0.056395
     0.058074    0.058465    0.058884    0.060449    0.060501    0.063309
     0.063577    0.064268    0.064373    0.069472    0.069601    0.072864
     0.073136    0.091968    0.092040    0.093120    0.093792    0.096377
     0.096712    0.097095    0.100625    0.101453    0.102833    0.107619
     0.108121    0.110664    0.111900    0.122457    0.124317    0.133977
     0.135065    0.157775    0.159087    0.160000    0.160000    0.160000
     0.160000    0.160000    0.160000    0.164059    0.165242    0.218685
     0.218826    0.219187    0.220024    0.229619    0.229946    0.238218
     0.238507    0.239172    0.239443    0.243087    0.245226    0.246690
     0.247766    0.248127    0.248852    0.249801    0.250000    0.250000
     0.250000    0.250000    0.250000    0.250000    0.250000    0.250000
     0.252759    0.253160    0.254328    0.257090    0.262997    0.265700
     0.292653    0.293669    0.307596    0.308530    0.323171    0.323645
     0.325374    0.326499    0.326937    0.327169    0.327195    0.328224
     0.328524    0.328597    0.328661    0.328756    0.328895    0.329353
     0.329444    0.330839    0.332492    0.332759    0.334706    0.334764
     0.334832    0.334921    0.334963    0.335027    0.335172    0.335177
     0.342754    0.346454    0.346599    0.352159    0.379598    0.402158
     0.404490    0.406589    0.828631    0.829744    0.832652    0.834846

 Minimum Search - Taking Simple RFO Step
 Searching for Lamda that Minimizes Along All modes
 Value Taken    Lamda =  -0.02500398
 Calculated Step too Large.  Step scaled by  0.339688
 Step Taken.  Stepsize is  0.300000

                             Maximum     Tolerance    Cnvgd?
         Gradient           0.009085      0.000300      NO
         Displacement       0.098836      0.001200      NO
         Energy change     *********      0.000001      NO


 New Cartesian Coordinates Obtained by Inverse Iteration

 Displacement from previous Coordinates is:  4.153182
 Adding empirical dispersion correction 
 ----------------------------------------------------------------
 Doing -D3(op) with
 s6 =   1.00000
 s8 =   0.78311
 a1 =   0.30000
 a2 =   4.25000
 n  =  10.00000
 -D3 energy without 3body term =     -0.0683410755 hartrees
 ----------------------------------------------------------------
             Standard Nuclear Orientation (Angstroms)
    I     Atom           X                Y                Z
 ----------------------------------------------------------------
    1      O       6.2001866264    -0.8746298305     0.6334065419
    2      C       5.0087476509    -0.5260959648     0.4873920561
    3      C       4.4276341619     0.4378767496    -0.6023574318
    4      C       2.9312413354     0.1265893778    -1.0098169842
    5      C       2.4019556673    -1.2815977393    -0.5472133267
    6      O       1.0650024509    -1.1184375246    -0.0596839352
    7      C       0.3142881359    -2.3926108397    -0.0958732652
    8      C      -1.2082760090    -2.0056977308    -0.3170259598
    9      O      -1.2930996781    -0.5374716922    -0.4228211631
   10      C      -2.2503012652    -0.0988169653    -1.4228828136
   11      C      -3.2864748409     0.9352192387    -0.8345265091
   12      C      -4.2846255550     0.4077889025     0.2733833489
   13      C      -4.5296475887    -1.1324720977     0.3767526149
   14      O      -4.9615140237    -1.7523001157     1.3738721067
   15      O       3.9552521871    -0.8663933395     1.3984924147
   16      O      -4.3402410438    -1.7245003478    -0.9171111521
   17      O      -2.1336667485    -0.3791854495    -2.6347475284
   18      C      -4.7545738883    -3.1479515812    -0.9012526823
   19      C      -2.4800988100     2.0062278759     0.0330011805
   20      C      -3.4352789206     3.2078373885     0.4165088038
   21      C      -4.2627441838     2.5809476729     1.6007374177
   22      C      -3.7157031235     1.1007160947     1.5871261221
   23      O      -2.2749899533     1.2886272836     1.3120498522
   24      H      -3.8298678746     1.3923442107    -1.6798420677
   25      H      -5.2873773004     0.8273308767     0.0590405093
   26      H      -1.5058110107     2.3021591845    -0.4021561820
   27      H      -2.8472125036     4.0784070320     0.7475084488
   28      H      -4.0704116509     3.5129279463    -0.4306889069
   29      H      -4.0221724912     3.0673354321     2.5596333500
   30      H      -5.3514691844     2.6321547589     1.4405292983
   31      H      -3.8710278289     0.5172593436     2.5155834208
   32      O       2.9619762343    -2.3880630679    -0.7095866355
   33      C       4.4493682337    -1.8031093092     2.4311248839
   34      C       4.2433930443     1.8846009546     0.0409357605
   35      C       3.8954713364     2.9171009210    -1.1052888618
   36      C       2.3758433724     2.5944591397    -1.3598828148
   37      C       2.1652051047     1.3697488911    -0.3878119853
   38      O       2.9780981296     1.7422571729     0.7944504754
   39      H       5.1120031263     0.4481680552    -1.4681861261
   40      H       2.8293904709     0.1313645394    -2.1119082182
   41      H       5.3448015217    -1.4035456704     2.9489624904
   42      H       5.0665675748     2.1920875840     0.7150729708
   43      H       4.0391969283     3.9503141147    -0.7516201766
   44      H       4.5185221592     2.7609263081    -2.0005224368
   45      H       1.7315926252     3.4363357357    -1.0598000973
   46      H       2.1609730612     2.3403372978    -2.4101512758
   47      H       1.1198195596     1.1465569749    -0.0984374975
   48      H       4.7046561057    -2.7888928204     1.9905460955
   49      H       3.6219457257    -1.9249412623     3.1540618991
   50      H      -3.9114438116    -3.7736028912    -1.2517247435
   51      H      -5.6148252649    -3.2783821624    -1.5866842903
   52      H      -5.0431132316    -3.4337707101     0.1305808609
   53      H      -1.5871067394    -2.5038391834    -1.2327357767
   54      H      -1.8130993228    -2.3496799609     0.5512756396
   55      H       0.4403291858    -2.9455761286     0.8608576621
   56      H       0.6915491659    -3.0411434488    -0.9147597629
 ----------------------------------------------------------------
 Molecular Point Group                 C1    NOp =  1
 Largest Abelian Subgroup              C1    NOp =  1
 Nuclear Repulsion Energy =  3186.5197874655 hartrees
 There are      113 alpha and      113 beta electrons
 Applying Cartesian multipole field
    Component          Value
    ---------          -----
     (2,0,0)        1.00000E-12
     (0,2,0)        2.00000E-11
     (0,0,2)       -3.00000E-11
 Nucleus-field energy     =     0.0000000315 hartrees
 Requested basis set is STO-3G
 There are 86 shells and 176 basis functions
 A cutoff of  1.0D-12 yielded   2272 shell pairs
 There are     10795 function pairs
 Smallest overlap matrix eigenvalue = 2.13E-01
 Guess MOs from SCF MO coefficient file
 Reading MOs from coefficient file
 Reading MOs from coefficient file
 A restricted hybrid HF-DFT SCF calculation will be
 performed using Pulay DIIS extrapolation
 Exchange:     0.2000 Hartree-Fock + 0.0800 Slater + 0.7200 B88
 Correlation:  0.1900 VWN1RPA + 0.8100 LYP
 Using SG-1 standard quadrature grid
 Dispersion:   Grimme D3
 SCF converges when DIIS error is below 1.0E-08
 Geometry optimization detected.  Setting ReadMinima to 0
 Setting SaveMinima to 0
 using 48 threads for integral computing
 -------------------------------------------------------
 OpenMP Integral computing Module                
 Release: version 1.0, May 2013, Q-Chem Inc. Pittsburgh 
 -------------------------------------------------------
 -------------------------------------------------------
 OpenMP BLAS3 based DFT computing Module                
 Release: version 1.0, May 2013, Q-Chem Inc. Pittsburgh 
 -------------------------------------------------------
 ---------------------------------------
  Cycle       Energy         DIIS Error
 ---------------------------------------
    1   -1510.1068246952      5.52E-03
    2   -1510.2530667054      6.28E-04
    3   -1510.2497683354      1.14E-03
    4   -1510.2552002684      2.63E-04
    5   -1510.2554990809      7.01E-05
    6   -1510.2555176965      3.38E-05
    7   -1510.2555222090      1.54E-05
    8   -1510.2555232511      3.17E-06
    9   -1510.2555233037      7.74E-07
   10   -1510.2555233063      5.24E-07
   11   -1510.2555233075      2.56E-07
   12   -1510.2555233078      4.81E-08
   13   -1510.2555233078      2.45E-08
   14   -1510.2555233078      1.04E-08
   15   -1510.2555233078      2.61E-09 Convergence criterion met
 ---------------------------------------
 SCF time:  CPU 105.68 s  wall 2.21 s
 SCF   energy in the final basis set = -1510.25552331
 Total energy in the final basis set = -1510.25552331
 
 --------------------------------------------------------------
 
                    Orbital Energies (a.u.)
 --------------------------------------------------------------
 
 Alpha MOs
 -- Occupied --
-18.943 -18.929 -18.926 -18.908 -18.890 -18.888 -18.886 -18.881
-18.867 -18.862 -10.110 -10.103 -10.094 -10.092 -10.074 -10.068
-10.066 -10.062 -10.062 -10.057 -10.056 -10.049 -10.045 -10.039
-10.032 -10.030 -10.023 -10.021 -10.016 -10.015  -1.021  -1.009
 -1.003  -0.998  -0.972  -0.964  -0.946  -0.938  -0.929  -0.923
 -0.767  -0.757  -0.726  -0.719  -0.713  -0.704  -0.691  -0.667
 -0.654  -0.611  -0.600  -0.576  -0.549  -0.540  -0.539  -0.532
 -0.520  -0.506  -0.490  -0.473  -0.469  -0.457  -0.450  -0.435
 -0.433  -0.429  -0.427  -0.418  -0.414  -0.407  -0.406  -0.403
 -0.393  -0.385  -0.373  -0.365  -0.358  -0.355  -0.352  -0.346
 -0.343  -0.338  -0.336  -0.332  -0.330  -0.324  -0.318  -0.316
 -0.308  -0.304  -0.299  -0.298  -0.291  -0.287  -0.286  -0.281
 -0.269  -0.257  -0.247  -0.242  -0.236  -0.231  -0.227  -0.185
 -0.173  -0.169  -0.165  -0.160  -0.153  -0.149  -0.143  -0.142
 -0.136
 -- Virtual --
  0.082   0.093   0.100   0.117   0.212   0.229   0.251   0.253
  0.258   0.276   0.283   0.290   0.305   0.319   0.324   0.330
  0.336   0.339   0.342   0.346   0.347   0.354   0.361   0.369
  0.374   0.378   0.389   0.395   0.400   0.401   0.404   0.408
  0.412   0.416   0.417   0.420   0.428   0.431   0.433   0.437
  0.438   0.439   0.440   0.445   0.450   0.454   0.457   0.466
  0.476   0.477   0.487   0.493   0.495   0.505   0.513   0.536
  0.541   0.551   0.560   0.625   0.634   0.648   0.653
 --------------------------------------------------------------
 
          Ground-State Mulliken Net Atomic Charges

     Atom                 Charge (a.u.)
  ----------------------------------------
      1 O                    -0.214337
      2 C                     0.211979
      3 C                    -0.079117
      4 C                    -0.077362
      5 C                     0.218789
      6 O                    -0.166068
      7 C                    -0.046289
      8 C                    -0.042466
      9 O                    -0.181869
     10 C                     0.219679
     11 C                    -0.078123
     12 C                    -0.079444
     13 C                     0.209227
     14 O                    -0.213311
     15 O                    -0.164824
     16 O                    -0.171756
     17 O                    -0.195762
     18 C                    -0.137182
     19 C                     0.027070
     20 C                    -0.145340
     21 C                    -0.142211
     22 C                     0.025037
     23 O                    -0.181911
     24 H                     0.085076
     25 H                     0.086544
     26 H                     0.083762
     27 H                     0.079052
     28 H                     0.073313
     29 H                     0.079174
     30 H                     0.073050
     31 H                     0.089316
     32 O                    -0.223104
     33 C                    -0.127028
     34 C                     0.025275
     35 C                    -0.144627
     36 C                    -0.143654
     37 C                     0.022334
     38 O                    -0.187433
     39 H                     0.085042
     40 H                     0.082608
     41 H                     0.090397
     42 H                     0.081647
     43 H                     0.076911
     44 H                     0.073190
     45 H                     0.075406
     46 H                     0.072474
     47 H                     0.101136
     48 H                     0.089610
     49 H                     0.091070
     50 H                     0.085841
     51 H                     0.088261
     52 H                     0.103224
     53 H                     0.085568
     54 H                     0.079719
     55 H                     0.083047
     56 H                     0.089387
  ----------------------------------------
  Sum of atomic charges =     0.000000

 -----------------------------------------------------------------
                    Cartesian Multipole Moments
 -----------------------------------------------------------------
    Charge (ESU x 10^10)
                 0.0000
    Dipole Moment (Debye)
         X      -3.2520      Y       0.8469      Z      -0.8402
       Tot       3.4639
    Quadrupole Moments (Debye-Ang)
        XX    -161.0696     XY       4.8020     YY    -148.6913
        XZ       1.1054     YZ      -3.6606     ZZ    -162.9120
    Octopole Moments (Debye-Ang^2)
       XXX    -135.8276    XXY      46.6231    XYY     -27.8057
       YYY     -36.7979    XXZ     -18.0400    XYZ     -32.9058
       YYZ      -1.1768    XZZ      42.3219    YZZ     -11.4343
       ZZZ      32.1237
    Hexadecapole Moments (Debye-Ang^3)
      XXXX  -12983.6611   XXXY      72.9103   XXYY   -2527.0318
      XYYY     -17.5535   YYYY   -3327.8826   XXXZ     123.0326
      XXYZ      26.0240   XYYZ      69.6200   YYYZ      10.9152
      XXZZ   -2270.0642   XYZZ     -93.0932   YYZZ    -788.7219
      XZZZ     -25.5232   YZZZ     -25.0257   ZZZZ   -1401.2770
 -----------------------------------------------------------------
 Calculating analytic gradient of the SCF energy
 Gradient of SCF Energy
            1           2           3           4           5           6
    1   0.0005176  -0.0008939   0.0011255  -0.0018776   0.0013509  -0.0000079
    2   0.0018690  -0.0016988  -0.0013087   0.0015627   0.0014693  -0.0015663
    3   0.0016008  -0.0018007  -0.0028266  -0.0003592   0.0022925   0.0024942
            7           8           9          10          11          12
    1  -0.0008547  -0.0058426   0.0107563   0.0013711  -0.0114155   0.0043717
    2   0.0010476   0.0010933  -0.0049111   0.0055078  -0.0065648   0.0002626
    3  -0.0041304   0.0072574  -0.0088919   0.0019792  -0.0039286   0.0041058
           13          14          15          16          17          18
    1   0.0014894  -0.0033800  -0.0001928  -0.0020423   0.0031649  -0.0009175
    2   0.0004685   0.0002154  -0.0005400  -0.0002457   0.0045146  -0.0002697
    3   0.0002586  -0.0010113  -0.0002181  -0.0005408   0.0002209  -0.0001350
           19          20          21          22          23          24
    1   0.0004702   0.0000313  -0.0001700   0.0004348  -0.0001027  -0.0002874
    2   0.0002582   0.0000756  -0.0000258   0.0001418   0.0001933   0.0002306
    3  -0.0001277  -0.0000641  -0.0000772   0.0001753  -0.0004194   0.0004740
           25          26          27          28          29          30
    1  -0.0002608   0.0000277   0.0000605  -0.0000871  -0.0001199   0.0000274
    2  -0.0003321  -0.0000753   0.0000825   0.0000002   0.0000079  -0.0001241
    3   0.0002767   0.0000374   0.0000649  -0.0000292   0.0000351  -0.0000769
           31          32          33          34          35          36
    1  -0.0000106   0.0011765  -0.0001032   0.0004742   0.0000651  -0.0000393
    2   0.0001427  -0.0001972  -0.0000594   0.0002103  -0.0000092  -0.0000666
    3  -0.0000262   0.0016733  -0.0000943   0.0004209   0.0000305   0.0000525
           37          38          39          40          41          42
    1   0.0003434   0.0003420  -0.0001148  -0.0005819   0.0000447   0.0000145
    2  -0.0001600   0.0000623  -0.0000493  -0.0003874   0.0000011   0.0000771
    3  -0.0000820   0.0001124  -0.0000148   0.0000736   0.0000612   0.0000040
           43          44          45          46          47          48
    1   0.0000299  -0.0000210   0.0000266  -0.0000113   0.0000235   0.0000384
    2  -0.0000049  -0.0000678   0.0000036  -0.0000741  -0.0000834   0.0000032
    3   0.0000136   0.0000573   0.0000085  -0.0000188  -0.0001856   0.0000543
           49          50          51          52          53          54
    1   0.0000092  -0.0004914   0.0000590   0.0000935   0.0012027   0.0009483
    2  -0.0000342  -0.0001874   0.0000743   0.0000902   0.0004210  -0.0006541
    3   0.0000442   0.0000425   0.0000473  -0.0000419   0.0011150   0.0000431
           55          56
    1  -0.0000064  -0.0002580
    2  -0.0002920  -0.0000974
    3  -0.0000415   0.0000154
 Max gradient component =       1.142E-02
 RMS gradient           =       2.038E-03
 Gradient time:  CPU 30.30 s  wall 0.64 s
 Geometry Optimization Parameters
   NAtoms,    NIC,     NZ,  NCons,   NDum,   NFix, NCnnct, MaxDiis
       56     458       0       0       0       0       0       0

 Cartesian Hessian Update
 Hessian Updated using BFGS Update


** GEOMETRY OPTIMIZATION IN DELOCALIZED INTERNAL COORDINATES **
   Searching for a Minimum

   Optimization Cycle:   2

                       Coordinates (Angstroms)
     ATOM                X               Y               Z
      1  O         6.2001866264   -0.8746298305    0.6334065419
      2  C         5.0087476509   -0.5260959648    0.4873920561
      3  C         4.4276341619    0.4378767496   -0.6023574318
      4  C         2.9312413354    0.1265893778   -1.0098169842
      5  C         2.4019556673   -1.2815977393   -0.5472133267
      6  O         1.0650024509   -1.1184375246   -0.0596839352
      7  C         0.3142881359   -2.3926108397   -0.0958732652
      8  C        -1.2082760090   -2.0056977308   -0.3170259598
      9  O        -1.2930996781   -0.5374716922   -0.4228211631
     10  C        -2.2503012652   -0.0988169653   -1.4228828136
     11  C        -3.2864748409    0.9352192387   -0.8345265091
     12  C        -4.2846255550    0.4077889025    0.2733833489
     13  C        -4.5296475887   -1.1324720977    0.3767526149
     14  O        -4.9615140237   -1.7523001157    1.3738721067
     15  O         3.9552521871   -0.8663933395    1.3984924147
     16  O        -4.3402410438   -1.7245003478   -0.9171111521
     17  O        -2.1336667485   -0.3791854495   -2.6347475284
     18  C        -4.7545738883   -3.1479515812   -0.9012526823
     19  C        -2.4800988100    2.0062278759    0.0330011805
     20  C        -3.4352789206    3.2078373885    0.4165088038
     21  C        -4.2627441838    2.5809476729    1.6007374177
     22  C        -3.7157031235    1.1007160947    1.5871261221
     23  O        -2.2749899533    1.2886272836    1.3120498522
     24  H        -3.8298678746    1.3923442107   -1.6798420677
     25  H        -5.2873773004    0.8273308767    0.0590405093
     26  H        -1.5058110107    2.3021591845   -0.4021561820
     27  H        -2.8472125036    4.0784070320    0.7475084488
     28  H        -4.0704116509    3.5129279463   -0.4306889069
     29  H        -4.0221724912    3.0673354321    2.5596333500
     30  H        -5.3514691844    2.6321547589    1.4405292983
     31  H        -3.8710278289    0.5172593436    2.5155834208
     32  O         2.9619762343   -2.3880630679   -0.7095866355
     33  C         4.4493682337   -1.8031093092    2.4311248839
     34  C         4.2433930443    1.8846009546    0.0409357605
     35  C         3.8954713364    2.9171009210   -1.1052888618
     36  C         2.3758433724    2.5944591397   -1.3598828148
     37  C         2.1652051047    1.3697488911   -0.3878119853
     38  O         2.9780981296    1.7422571729    0.7944504754
     39  H         5.1120031263    0.4481680552   -1.4681861261
     40  H         2.8293904709    0.1313645394   -2.1119082182
     41  H         5.3448015217   -1.4035456704    2.9489624904
     42  H         5.0665675748    2.1920875840    0.7150729708
     43  H         4.0391969283    3.9503141147   -0.7516201766
     44  H         4.5185221592    2.7609263081   -2.0005224368
     45  H         1.7315926252    3.4363357357   -1.0598000973
     46  H         2.1609730612    2.3403372978   -2.4101512758
     47  H         1.1198195596    1.1465569749   -0.0984374975
     48  H         4.7046561057   -2.7888928204    1.9905460955
     49  H         3.6219457257   -1.9249412623    3.1540618991
     50  H        -3.9114438116   -3.7736028912   -1.2517247435
     51  H        -5.6148252649   -3.2783821624   -1.5866842903
     52  H        -5.0431132316   -3.4337707101    0.1305808609
     53  H        -1.5871067394   -2.5038391834   -1.2327357767
     54  H        -1.8130993228   -2.3496799609    0.5512756396
     55  H         0.4403291858   -2.9455761286    0.8608576621
     56  H         0.6915491659   -3.0411434488   -0.9147597629
   Point Group: c1    Number of degrees of freedom:   162


   Energy is  -1510.255523308

 Hessian Updated using BFGS Update

149 Hessian modes will be used to form the next step
  Hessian Eigenvalues:
     0.001614    0.002090    0.002538    0.002714    0.003194    0.004606
     0.004721    0.004916    0.005162    0.005167    0.005759    0.005885
     0.006641    0.006790    0.010726    0.010807    0.011175    0.020513
     0.021703    0.023480    0.025802    0.029788    0.030915    0.033626
     0.035171    0.036181    0.039913    0.041827    0.042070    0.042413
     0.044710    0.046254    0.048479    0.050681    0.051022    0.051336
     0.052133    0.052769    0.053613    0.054584    0.054834    0.055550
     0.055734    0.056106    0.056603    0.058084    0.058849    0.059148
     0.060445    0.063248    0.063577    0.064264    0.064368    0.066913
     0.069476    0.069601    0.072851    0.073877    0.091959    0.092569
     0.093120    0.095036    0.096378    0.097094    0.100598    0.101451
     0.102514    0.102834    0.107615    0.108317    0.110663    0.121617
     0.122467    0.133688    0.134934    0.137594    0.157781    0.159966
     0.159995    0.162174    0.164048    0.174829    0.218555    0.218880
     0.219772    0.221003    0.229614    0.231498    0.238350    0.238509
     0.239180    0.239439    0.243099    0.245226    0.246476    0.247771
     0.248124    0.248846    0.249237    0.249813    0.252756    0.253158
     0.253939    0.257088    0.262976    0.265667    0.292587    0.293097
     0.307239    0.307608    0.322283    0.323543    0.323678    0.325374
     0.326499    0.327169    0.327194    0.328222    0.328521    0.328597
     0.328657    0.328756    0.328889    0.329290    0.329443    0.330834
     0.332485    0.332734    0.334480    0.334719    0.334826    0.334882
     0.334931    0.335027    0.335131    0.335177    0.336120    0.343720
     0.346493    0.346598    0.352172    0.400935    0.402673    0.404542
     0.413969    0.828628    0.829803    0.832662    0.835142

 Minimum Search - Taking Simple RFO Step
 Searching for Lamda that Minimizes Along All modes
 Value Taken    Lamda =  -0.02147773
 Calculated Step too Large.  Step scaled by  0.328666
 Step Taken.  Stepsize is  0.300000

                             Maximum     Tolerance    Cnvgd?
         Gradient           0.014197      0.000300      NO
         Displacement       0.114581      0.001200      NO
         Energy change     -0.005962      0.000001      NO


 New Cartesian Coordinates Obtained by Inverse Iteration

 Displacement from previous Coordinates is:  4.478114
 Adding empirical dispersion correction 
 ----------------------------------------------------------------
 Doing -D3(op) with
 s6 =   1.00000
 s8 =   0.78311
 a1 =   0.30000
 a2 =   4.25000
 n  =  10.00000
 -D3 energy without 3body term =     -0.0689042349 hartrees
 ----------------------------------------------------------------
             Standard Nuclear Orientation (Angstroms)
    I     Atom           X                Y                Z
 ----------------------------------------------------------------
    1      O       6.1193532060    -0.8461256733     0.5884830022
    2      C       4.9221816171    -0.5070803742     0.4697756164
    3      C       4.3290657271     0.5593606693    -0.5133258221
    4      C       2.8559509214     0.2456529343    -0.9970851632
    5      C       2.3678484491    -1.2236804781    -0.7149688647
    6      O       1.0346405045    -1.1577641113    -0.1964412350
    7      C       0.3569623140    -2.4712947082    -0.2557565041
    8      C      -1.1861402392    -2.1604525629    -0.4512023339
    9      O      -1.3446578530    -0.6963348023    -0.5269591753
   10      C      -2.3459867355    -0.3010627534    -1.4981821614
   11      C      -3.2741785303     0.8442366379    -0.9424870306
   12      C      -4.2074040633     0.4631813685     0.2744756476
   13      C      -4.4632691969    -1.0541312753     0.5470447594
   14      O      -4.8002692897    -1.5714557875     1.6349471130
   15      O       3.8649630265    -0.9807089167     1.3144649370
   16      O      -4.3351026113    -1.7775639919    -0.6859140682
   17      O      -2.3301843294    -0.6941221292    -2.6841500539
   18      C      -4.7030972541    -3.2007584091    -0.4949882517
   19      C      -2.3662394884     1.9544906801    -0.2424452463
   20      C      -3.2463530023     3.2278468068     0.0854875100
   21      C      -4.0110534854     2.7529058510     1.3781576867
   22      C      -3.5213963575     1.2554109828     1.4717904826
   23      O      -2.0977268609     1.3540387041     1.0837730191
   24      H      -3.8610658851     1.2420241630    -1.7888601950
   25      H      -5.2119204338     0.8934587377     0.0921946051
   26      H      -1.4153183564     2.1642790068    -0.7697245898
   27      H      -2.6040779815     4.0990503086     0.2895261564
   28      H      -3.9282194315     3.4791442314    -0.7427870526
   29      H      -3.6844880905     3.3168225660     2.2665466131
   30      H      -5.1057760616     2.8367255214     1.2875467715
   31      H      -3.6288430553     0.7688445910     2.4609360120
   32      O       2.9692293196    -2.2870317745    -0.9825925659
   33      C       4.3683816059    -2.0240546987     2.2340565207
   34      C       4.0774014759     1.9138746842     0.2874263286
   35      C       3.7157665613     3.0606729336    -0.7398615993
   36      C       2.2153299223     2.7167843578    -1.0696684089
   37      C       2.0304582925     1.3796532242    -0.2528842228
   38      O       2.8021897908     1.6393947392     0.9856390404
   39      H       5.0304051520     0.6927800450    -1.3550374971
   40      H       2.7763168002     0.3784789646    -2.0930326200
   41      H       5.2460143820    -1.6694868804     2.8115770404
   42      H       4.8734069338     2.1687476476     1.0140218684
   43      H       3.8124153168     4.0497776992    -0.2649150894
   44      H       4.3633342013     3.0324422289    -1.6308467495
   45      H       1.5332689805     3.4945532532    -0.6904511212
   46      H       2.0330230559     2.5802282415    -2.1476234604
   47      H       0.9881006069     1.0879443675    -0.0186695091
   48      H       4.6547708797    -2.9423982931     1.6811587461
   49      H       3.5342850615    -2.2526422825     2.9226407757
   50      H      -3.8623659197    -3.8381065981    -0.8302304285
   51      H      -5.5979381215    -3.4251133360    -1.1080902395
   52      H      -4.9207186399    -3.3826278102     0.5770700820
   53      H      -1.5537877248    -2.6578342251    -1.3727449965
   54      H      -1.7622905858    -2.5507946321     0.4171689107
   55      H       0.5260344997    -3.0376319716     0.6863041952
   56      H       0.7576080140    -3.0792484480    -1.0945015662
 ----------------------------------------------------------------
 Molecular Point Group                 C1    NOp =  1
 Largest Abelian Subgroup              C1    NOp =  1
 Nuclear Repulsion Energy =  3206.2096754700 hartrees
 There are      113 alpha and      113 beta electrons
 Applying Cartesian multipole field
    Component          Value
    ---------          -----
     (2,0,0)        1.00000E-12
     (0,2,0)        2.00000E-11
     (0,0,2)       -3.00000E-11
 Nucleus-field energy     =     0.0000000363 hartrees
 Requested basis set is STO-3G
 There are 86 shells and 176 basis functions
 A cutoff of  1.0D-12 yielded   2313 shell pairs
 There are     10947 function pairs
 Smallest overlap matrix eigenvalue = 2.13E-01
 Guess MOs from SCF MO coefficient file
 Reading MOs from coefficient file
 Reading MOs from coefficient file
 A restricted hybrid HF-DFT SCF calculation will be
 performed using Pulay DIIS extrapolation
 Exchange:     0.2000 Hartree-Fock + 0.0800 Slater + 0.7200 B88
 Correlation:  0.1900 VWN1RPA + 0.8100 LYP
 Using SG-1 standard quadrature grid
 Dispersion:   Grimme D3
 SCF converges when DIIS error is below 1.0E-08
 Geometry optimization detected.  Setting ReadMinima to 0
 Setting SaveMinima to 0
 using 48 threads for integral computing
 -------------------------------------------------------
 OpenMP Integral computing Module                
 Release: version 1.0, May 2013, Q-Chem Inc. Pittsburgh 
 -------------------------------------------------------
 -------------------------------------------------------
 OpenMP BLAS3 based DFT computing Module                
 Release: version 1.0, May 2013, Q-Chem Inc. Pittsburgh 
 -------------------------------------------------------
 ---------------------------------------
  Cycle       Energy         DIIS Error
 ---------------------------------------
    1   -1510.0785256558      6.25E-03
    2   -1510.2587797823      7.37E-04
    3   -1510.2542627285      1.33E-03
    4   -1510.2617015757      3.07E-04
    5   -1510.2621093750      8.57E-05
    6   -1510.2621354079      4.55E-05
    7   -1510.2621433220      2.07E-05
    8   -1510.2621452080      3.58E-06
    9   -1510.2621452744      8.53E-07
   10   -1510.2621452775      5.64E-07
   11   -1510.2621452789      2.61E-07
   12   -1510.2621452792      5.94E-08
   13   -1510.2621452792      2.15E-08
   14   -1510.2621452793      7.80E-09 Convergence criterion met
 ---------------------------------------
 SCF time:  CPU 101.57 s  wall 2.12 s
 SCF   energy in the final basis set = -1510.26214528
 Total energy in the final basis set = -1510.26214528
 
 --------------------------------------------------------------
 
                    Orbital Energies (a.u.)
 --------------------------------------------------------------
 
 Alpha MOs
 -- Occupied --
-18.944 -18.929 -18.927 -18.913 -18.890 -18.886 -18.881 -18.881
-18.868 -18.862 -10.110 -10.101 -10.094 -10.092 -10.073 -10.068
-10.067 -10.062 -10.061 -10.058 -10.056 -10.049 -10.044 -10.039
-10.032 -10.030 -10.022 -10.021 -10.017 -10.015  -1.021  -1.009
 -1.003  -0.997  -0.972  -0.963  -0.946  -0.937  -0.929  -0.923
 -0.766  -0.758  -0.727  -0.719  -0.713  -0.704  -0.691  -0.667
 -0.654  -0.611  -0.599  -0.576  -0.549  -0.540  -0.538  -0.532
 -0.519  -0.505  -0.490  -0.473  -0.470  -0.457  -0.450  -0.435
 -0.433  -0.429  -0.427  -0.418  -0.414  -0.407  -0.406  -0.403
 -0.392  -0.386  -0.372  -0.365  -0.358  -0.354  -0.352  -0.345
 -0.341  -0.338  -0.335  -0.332  -0.330  -0.324  -0.317  -0.316
 -0.308  -0.304  -0.298  -0.298  -0.291  -0.288  -0.286  -0.281
 -0.269  -0.257  -0.248  -0.243  -0.235  -0.232  -0.227  -0.185
 -0.173  -0.169  -0.165  -0.161  -0.152  -0.149  -0.143  -0.142
 -0.136
 -- Virtual --
  0.085   0.095   0.100   0.118   0.211   0.230   0.250   0.253
  0.258   0.277   0.284   0.290   0.306   0.320   0.324   0.329
  0.336   0.338   0.342   0.346   0.346   0.355   0.361   0.369
  0.374   0.378   0.389   0.397   0.400   0.401   0.403   0.408
  0.412   0.416   0.417   0.420   0.428   0.430   0.433   0.437
  0.438   0.439   0.440   0.445   0.451   0.454   0.457   0.466
  0.476   0.478   0.487   0.493   0.496   0.504   0.513   0.536
  0.541   0.552   0.560   0.627   0.638   0.649   0.653
 --------------------------------------------------------------
 
          Ground-State Mulliken Net Atomic Charges

     Atom                 Charge (a.u.)
  ----------------------------------------
      1 O                    -0.214080
      2 C                     0.211957
      3 C                    -0.078956
      4 C                    -0.077732
      5 C                     0.218099
      6 O                    -0.164816
      7 C                    -0.046898
      8 C                    -0.043678
      9 O                    -0.177466
     10 C                     0.218215
     11 C                    -0.077791
     12 C                    -0.079393
     13 C                     0.210807
     14 O                    -0.212499
     15 O                    -0.165042
     16 O                    -0.170995
     17 O                    -0.202533
     18 C                    -0.136832
     19 C                     0.026759
     20 C                    -0.145243
     21 C                    -0.142331
     22 C                     0.025444
     23 O                    -0.182364
     24 H                     0.085280
     25 H                     0.086064
     26 H                     0.083342
     27 H                     0.078601
     28 H                     0.073361
     29 H                     0.079234
     30 H                     0.073113
     31 H                     0.089673
     32 O                    -0.223658
     33 C                    -0.127135
     34 C                     0.025246
     35 C                    -0.144572
     36 C                    -0.143919
     37 C                     0.022116
     38 O                    -0.186919
     39 H                     0.085070
     40 H                     0.082057
     41 H                     0.090441
     42 H                     0.081681
     43 H                     0.076946
     44 H                     0.073104
     45 H                     0.075562
     46 H                     0.071627
     47 H                     0.102665
     48 H                     0.089637
     49 H                     0.090700
     50 H                     0.086172
     51 H                     0.088460
     52 H                     0.103125
     53 H                     0.087483
     54 H                     0.079075
     55 H                     0.082951
     56 H                     0.090782
  ----------------------------------------
  Sum of atomic charges =     0.000000

 -----------------------------------------------------------------
                    Cartesian Multipole Moments
 -----------------------------------------------------------------
    Charge (ESU x 10^10)
                -0.0000
    Dipole Moment (Debye)
         X      -3.1025      Y       0.8878      Z      -0.6420
       Tot       3.2903
    Quadrupole Moments (Debye-Ang)
        XX    -161.7717     XY       4.9168     YY    -146.4808
        XZ       1.3439     YZ      -5.2950     ZZ    -164.8154
    Octopole Moments (Debye-Ang^2)
       XXX    -131.9738    XXY      40.6393    XYY     -23.8375
       YYY     -42.5508    XXZ      -7.6528    XYZ     -28.0118
       YYZ       5.6202    XZZ      45.2270    YZZ      -4.5976
       ZZZ      32.8188
    Hexadecapole Moments (Debye-Ang^3)
      XXXX  -12360.9231   XXXY      76.3911   XXYY   -2423.5177
      XYYY     -18.3521   YYYY   -3489.2496   XXXZ      67.2959
      XXYZ      -9.2082   XYYZ      45.7858   YYYZ      -6.6895
      XXZZ   -2198.4718   XYZZ    -102.8619   YYZZ    -807.8662
      XZZZ     -79.2380   YZZZ     -42.2512   ZZZZ   -1308.6134
 -----------------------------------------------------------------
 Calculating analytic gradient of the SCF energy
 Gradient of SCF Energy
            1           2           3           4           5           6
    1   0.0004295  -0.0005423   0.0005058  -0.0000564   0.0003881  -0.0007942
    2   0.0013161  -0.0007865  -0.0004486   0.0016211   0.0010501  -0.0006922
    3   0.0014752  -0.0012017  -0.0022331   0.0013464  -0.0020501   0.0021856
            7           8           9          10          11          12
    1   0.0000970  -0.0066493   0.0134407  -0.0019506  -0.0098971   0.0052039
    2   0.0008057   0.0025175  -0.0043677   0.0024546  -0.0048688  -0.0013146
    3  -0.0021733   0.0065249  -0.0102453   0.0038525  -0.0020726   0.0024993
           13          14          15          16          17          18
    1  -0.0028782  -0.0015685  -0.0001195  -0.0006999   0.0037397  -0.0005345
    2   0.0009102   0.0000180  -0.0008541  -0.0001189   0.0052579  -0.0000936
    3  -0.0011683   0.0004991  -0.0000073  -0.0006384   0.0000460   0.0000466
           19          20          21          22          23          24
    1   0.0002391   0.0004300  -0.0005914   0.0005130  -0.0002693  -0.0006168
    2   0.0008530  -0.0000303  -0.0000613   0.0005263   0.0004401  -0.0000519
    3   0.0002565  -0.0000056  -0.0000210  -0.0004723  -0.0004408   0.0002780
           25          26          27          28          29          30
    1  -0.0002471  -0.0000089  -0.0000057  -0.0000442  -0.0000215  -0.0000166
    2   0.0001150  -0.0000223  -0.0000318   0.0000426   0.0000682   0.0000153
    3   0.0001378   0.0001458  -0.0000537  -0.0000166  -0.0000314   0.0001757
           31          32          33          34          35          36
    1   0.0001705   0.0015762  -0.0001069   0.0007038   0.0000474  -0.0001298
    2  -0.0001251  -0.0002003  -0.0001161  -0.0000047   0.0000572  -0.0002389
    3   0.0000008   0.0024322  -0.0001906   0.0005039   0.0001733   0.0000464
           37          38          39          40          41          42
    1   0.0006253   0.0005854  -0.0004632  -0.0013146   0.0000432  -0.0000210
    2  -0.0004229   0.0001540   0.0000885  -0.0007429   0.0000767   0.0001379
    3  -0.0005321   0.0007420  -0.0003878  -0.0000238  -0.0000435   0.0000294
           43          44          45          46          47          48
    1   0.0000266   0.0000731   0.0001027  -0.0000915   0.0000665   0.0000151
    2   0.0000077   0.0000433  -0.0000226  -0.0001010  -0.0003035   0.0000043
    3   0.0000249   0.0000427  -0.0000321  -0.0000417  -0.0005542   0.0000673
           49          50          51          52          53          54
    1  -0.0000456  -0.0001181   0.0000819   0.0000031   0.0008312   0.0006481
    2  -0.0000084  -0.0002142   0.0001298   0.0000547  -0.0003374  -0.0011656
    3   0.0000398   0.0000912   0.0000129  -0.0000560   0.0010211   0.0000885
           55          56
    1  -0.0000107  -0.0007732
    2  -0.0005379  -0.0004814
    3  -0.0001348   0.0000420
 Max gradient component =       1.344E-02
 RMS gradient           =       2.035E-03
 Gradient time:  CPU 30.56 s  wall 0.65 s
 Geometry Optimization Parameters
   NAtoms,    NIC,     NZ,  NCons,   NDum,   NFix, NCnnct, MaxDiis
       56     458       0       0       0       0       0       0

 Cartesian Hessian Update
 Hessian Updated using BFGS Update


** GEOMETRY OPTIMIZATION IN DELOCALIZED INTERNAL COORDINATES **
   Searching for a Minimum

   Optimization Cycle:   3

                       Coordinates (Angstroms)
     ATOM                X               Y               Z
      1  O         6.1193532060   -0.8461256733    0.5884830022
      2  C         4.9221816171   -0.5070803742    0.4697756164
      3  C         4.3290657271    0.5593606693   -0.5133258221
      4  C         2.8559509214    0.2456529343   -0.9970851632
      5  C         2.3678484491   -1.2236804781   -0.7149688647
      6  O         1.0346405045   -1.1577641113   -0.1964412350
      7  C         0.3569623140   -2.4712947082   -0.2557565041
      8  C        -1.1861402392   -2.1604525629   -0.4512023339
      9  O        -1.3446578530   -0.6963348023   -0.5269591753
     10  C        -2.3459867355   -0.3010627534   -1.4981821614
     11  C        -3.2741785303    0.8442366379   -0.9424870306
     12  C        -4.2074040633    0.4631813685    0.2744756476
     13  C        -4.4632691969   -1.0541312753    0.5470447594
     14  O        -4.8002692897   -1.5714557875    1.6349471130
     15  O         3.8649630265   -0.9807089167    1.3144649370
     16  O        -4.3351026113   -1.7775639919   -0.6859140682
     17  O        -2.3301843294   -0.6941221292   -2.6841500539
     18  C        -4.7030972541   -3.2007584091   -0.4949882517
     19  C        -2.3662394884    1.9544906801   -0.2424452463
     20  C        -3.2463530023    3.2278468068    0.0854875100
     21  C        -4.0110534854    2.7529058510    1.3781576867
     22  C        -3.5213963575    1.2554109828    1.4717904826
     23  O        -2.0977268609    1.3540387041    1.0837730191
     24  H        -3.8610658851    1.2420241630   -1.7888601950
     25  H        -5.2119204338    0.8934587377    0.0921946051
     26  H        -1.4153183564    2.1642790068   -0.7697245898
     27  H        -2.6040779815    4.0990503086    0.2895261564
     28  H        -3.9282194315    3.4791442314   -0.7427870526
     29  H        -3.6844880905    3.3168225660    2.2665466131
     30  H        -5.1057760616    2.8367255214    1.2875467715
     31  H        -3.6288430553    0.7688445910    2.4609360120
     32  O         2.9692293196   -2.2870317745   -0.9825925659
     33  C         4.3683816059   -2.0240546987    2.2340565207
     34  C         4.0774014759    1.9138746842    0.2874263286
     35  C         3.7157665613    3.0606729336   -0.7398615993
     36  C         2.2153299223    2.7167843578   -1.0696684089
     37  C         2.0304582925    1.3796532242   -0.2528842228
     38  O         2.8021897908    1.6393947392    0.9856390404
     39  H         5.0304051520    0.6927800450   -1.3550374971
     40  H         2.7763168002    0.3784789646   -2.0930326200
     41  H         5.2460143820   -1.6694868804    2.8115770404
     42  H         4.8734069338    2.1687476476    1.0140218684
     43  H         3.8124153168    4.0497776992   -0.2649150894
     44  H         4.3633342013    3.0324422289   -1.6308467495
     45  H         1.5332689805    3.4945532532   -0.6904511212
     46  H         2.0330230559    2.5802282415   -2.1476234604
     47  H         0.9881006069    1.0879443675   -0.0186695091
     48  H         4.6547708797   -2.9423982931    1.6811587461
     49  H         3.5342850615   -2.2526422825    2.9226407757
     50  H        -3.8623659197   -3.8381065981   -0.8302304285
     51  H        -5.5979381215   -3.4251133360   -1.1080902395
     52  H        -4.9207186399   -3.3826278102    0.5770700820
     53  H        -1.5537877248   -2.6578342251   -1.3727449965
     54  H        -1.7622905858   -2.5507946321    0.4171689107
     55  H         0.5260344997   -3.0376319716    0.6863041952
     56  H         0.7576080140   -3.0792484480   -1.0945015662
   Point Group: c1    Number of degrees of freedom:   162


   Energy is  -1510.262145279

 Hessian Updated using BFGS Update

152 Hessian modes will be used to form the next step
  Hessian Eigenvalues:
     0.001449    0.002043    0.002147    0.002255    0.002728    0.002826
     0.004601    0.004722    0.005102    0.005167    0.005177    0.005813
     0.006493    0.006790    0.008552    0.010602    0.011174    0.017246
     0.021671    0.022492    0.025797    0.026267    0.030855    0.031758
     0.034131    0.035220    0.038277    0.039918    0.041680    0.042069
     0.044411    0.044706    0.046413    0.049354    0.050834    0.051291
     0.051543    0.052018    0.052656    0.053935    0.054597    0.054891
     0.055590    0.055794    0.056004    0.056792    0.058487    0.058855
     0.060399    0.061915    0.063243    0.063582    0.064264    0.064371
     0.066799    0.069474    0.069813    0.072836    0.073875    0.092007
     0.092608    0.093138    0.095180    0.096402    0.097095    0.100598
     0.101451    0.102569    0.102837    0.107848    0.108450    0.111001
     0.121654    0.122737    0.134361    0.134687    0.137398    0.157937
     0.159948    0.159986    0.160023    0.162220    0.164851    0.172944
     0.217821    0.218788    0.219887    0.220736    0.229609    0.231483
     0.238241    0.238521    0.239225    0.239431    0.243169    0.245175
     0.245479    0.247777    0.248086    0.248158    0.248860    0.249811
     0.252754    0.253156    0.253931    0.257067    0.262836    0.265563
     0.278483    0.291763    0.294155    0.303339    0.307750    0.315775
     0.323619    0.323957    0.325375    0.326500    0.327169    0.327194
     0.328027    0.328495    0.328530    0.328599    0.328737    0.328812
     0.328992    0.329445    0.330644    0.330874    0.332694    0.332973
     0.334707    0.334796    0.334833    0.334970    0.334972    0.335029
     0.335177    0.335377    0.343425    0.346548    0.346872    0.352488
     0.381401    0.402163    0.404530    0.408579    0.828975    0.829741
     0.832655    0.835442

 Minimum Search - Taking Simple RFO Step
 Searching for Lamda that Minimizes Along All modes
 Value Taken    Lamda =  -0.02039451
 Calculated Step too Large.  Step scaled by  0.322346
 Step Taken.  Stepsize is  0.300000

                             Maximum     Tolerance    Cnvgd?
         Gradient           0.010118      0.000300      NO
         Displacement       0.103570      0.001200      NO
         Energy change     -0.006622      0.000001      NO


 New Cartesian Coordinates Obtained by Inverse Iteration

 Displacement from previous Coordinates is:  4.370969
 Adding empirical dispersion correction 
 ----------------------------------------------------------------
 Doing -D3(op) with
 s6 =   1.00000
 s8 =   0.78311
 a1 =   0.30000
 a2 =   4.25000
 n  =  10.00000
 -D3 energy without 3body term =     -0.0698305678 hartrees
 ----------------------------------------------------------------
             Standard Nuclear Orientation (Angstroms)
    I     Atom           X                Y                Z
 ----------------------------------------------------------------
    1      O       6.0295045421    -0.7537855900     0.5597292910
    2      C       4.8206232515    -0.4491864658     0.4707374884
    3      C       4.1864297159     0.6795049664    -0.4121736536
    4      C       2.7361257723     0.3439476728    -0.9482353426
    5      C       2.3189164473    -1.1677418935    -0.8138160801
    6      O       0.9874275704    -1.2125303209    -0.2928929008
    7      C       0.3901151552    -2.5595985801    -0.4178427735
    8      C      -1.1666581660    -2.3245674389    -0.6029505549
    9      O      -1.3965981310    -0.8675132117    -0.6110058033
   10      C      -2.4274590668    -0.4958287736    -1.5535893193
   11      C      -3.2209167945     0.7583664695    -1.0366674570
   12      C      -4.0696962996     0.5228615275     0.2733174671
   13      C      -4.3366726343    -0.9599682228     0.6874392004
   14      O      -4.5823112739    -1.3838446833     1.8380229997
   15      O       3.7805656753    -1.0423004618     1.2588861540
   16      O      -4.3356018573    -1.7765231376    -0.4924341697
   17      O      -2.5238673566    -0.9896398366    -2.6979868841
   18      C      -4.7059027700    -3.1733229810    -0.1631544941
   19      C      -2.2041488947     1.8645987386    -0.5030065785
   20      C      -2.9913578534     3.2067714573    -0.2128911412
   21      C      -3.6712187274     2.8769066850     1.1700815783
   22      C      -3.2506355723     1.3660456562     1.3462761209
   23      O      -1.8598180737     1.3555816499     0.8432560861
   24      H      -3.8502050070     1.1201164880    -1.8685910849
   25      H      -5.0670351579     0.9857441265     0.1391356820
   26      H      -1.2893848270     1.9784419509    -1.1168366919
   27      H      -2.2923625110     4.0540373952    -0.1308952480
   28      H      -3.7252029660     3.4308168288    -1.0036334190
   29      H      -3.2457062560     3.4883287712     1.9818348318
   30      H      -4.7641906785     3.0144767269     1.1574490692
   31      H      -3.2986537419     0.9611849092     2.3760652347
   32      O       2.9657704000    -2.1719837950    -1.1834606572
   33      C       4.3218680443    -2.1500234503     2.0759452033
   34      C       3.8618256085     1.9387656448     0.5076585474
   35      C       3.4543513983     3.1594132296    -0.4118829151
   36      C       1.9752094470     2.7778106350    -0.7921479331
   37      C       1.8485634864     1.3611019311    -0.1088223171
   38      O       2.5949284315     1.5381732277     1.1585923285
   39      H       4.8886226046     0.9231747024    -1.2280573597
   40      H       2.6610932464     0.5808331476    -2.0268280144
   41      H       5.1835145995    -1.8204780828     2.6910129281
   42      H       4.6376353066     2.1606814835     1.2661150794
   43      H       3.4987609934     4.1024242893     0.1555231991
   44      H       4.1097675605     3.2465620361    -1.2932069147
   45      H       1.2529533378     3.4826707256    -0.3497679171
   46      H       1.8091090978     2.7364531318    -1.8805115270
   47      H       0.8193712636     1.0001529434     0.0839509757
   48      H       4.6450303973    -2.9980664290     1.4375550689
   49      H       3.4954670035    -2.4768742659     2.7334059990
   50      H      -3.9098508860    -3.8505361119    -0.5280719960
   51      H      -5.6580361198    -3.4221166992    -0.6718220084
   52      H      -4.8235769439    -3.2730945758     0.9350726996
   53      H      -1.5133735738    -2.7933165655    -1.5484891451
   54      H      -1.7233611823    -2.7805224367     0.2457882599
   55      H       0.5923731743    -3.1571487255     0.4978050376
   56      H       0.8267168252    -3.1021371886    -1.2831986109
 ----------------------------------------------------------------
 Molecular Point Group                 C1    NOp =  1
 Largest Abelian Subgroup              C1    NOp =  1
 Nuclear Repulsion Energy =  3235.7917134038 hartrees
 There are      113 alpha and      113 beta electrons
 Applying Cartesian multipole field
    Component          Value
    ---------          -----
     (2,0,0)        1.00000E-12
     (0,2,0)        2.00000E-11
     (0,0,2)       -3.00000E-11
 Nucleus-field energy     =     0.0000000380 hartrees
 Requested basis set is STO-3G
 There are 86 shells and 176 basis functions
 A cutoff of  1.0D-12 yielded   2362 shell pairs
 There are     11239 function pairs
 Smallest overlap matrix eigenvalue = 2.13E-01
 Guess MOs from SCF MO coefficient file
 Reading MOs from coefficient file
 Reading MOs from coefficient file
 A restricted hybrid HF-DFT SCF calculation will be
[...]
      6  O         0.7971765808   -0.9998714586    0.5376766428
      7  C         0.3120303607   -2.3986135914    0.5579122590
      8  C        -0.8906539889   -2.6008461917   -0.4346744805
      9  O        -1.7502211059   -1.4024504955   -0.3073956693
     10  C        -2.1743925833   -0.9183778760   -1.5860644021
     11  C        -2.8690180207    0.4653110281   -1.3541389113
     12  C        -3.7349361001    0.5377586278   -0.0289053476
     13  C        -3.9517761049   -0.8464692107    0.6786819454
     14  O        -3.7568595057   -1.1231417908    1.8812173990
     15  O         3.5878245734   -1.2712092417    0.7614963245
     16  O        -4.5134641246   -1.7483915333   -0.2887858330
     17  O        -1.9382935889   -1.4849796878   -2.6742884184
     18  C        -4.7226696444   -3.0850938701    0.3116962494
     19  C        -1.7490747731    1.5427620954   -1.0190164520
     20  C        -2.3901268576    2.9860351563   -1.0228166614
     21  C        -3.1390703766    2.9984012604    0.3619178402
     22  C        -2.8712349841    1.5267560874    0.8600942328
     23  O        -1.4807982323    1.2738611897    0.4103155719
     24  H        -3.4508629001    0.7280760768   -2.2546291378
     25  H        -4.7305096269    0.9670956262   -0.2462782930
     26  H        -0.8217110157    1.4392756822   -1.6147458927
     27  H        -1.6042026444    3.7567762168   -1.0680452049
     28  H        -3.0738262889    3.1267164901   -1.8751716527
     29  H        -2.6896741287    3.7263036503    1.0561090149
     30  H        -4.2142036925    3.2176444473    0.2641035711
     31  H        -2.9631904539    1.3501087479    1.9494964495
     32  O         1.7517161738   -1.5961224332   -1.5474913181
     33  C         4.2207595378   -2.5999406592    0.9153204682
     34  C         3.5451232363    1.7862793656    0.9755065523
     35  C         3.2281712504    3.2706625967    0.5396370327
     36  C         1.7031873403    3.1511824520    0.1711066977
     37  C         1.4166251644    1.6306455092    0.4974614079
     38  O         2.3046306223    1.3495978264    1.6498717009
     39  H         4.1181544729    1.4327012363   -1.1612175295
     40  H         1.8214823064    1.1584924354   -1.6610036968
     41  H         5.2851014505   -2.5158957299    1.2139336668
     42  H         4.4185062999    1.6655601508    1.6454973498
     43  H         3.3886575855    3.9608041044    1.3832653576
     44  H         3.8506467212    3.5975545532   -0.3085936009
     45  H         1.0812747259    3.8020105732    0.8061589270
     46  H         1.5019787540    3.3954617525   -0.8843567080
     47  H         0.3498714761    1.4007862523    0.7260759543
     48  H         4.1622671699   -3.1826622268   -0.0272933701
     49  H         3.6505880614   -3.1198305999    1.7069838589
     50  H        -4.1245595269   -3.8294762635   -0.2500634602
     51  H        -5.7955071710   -3.3510039896    0.2377397684
     52  H        -4.4091720781   -3.0670189341    1.3754174987
     53  H        -0.5403507530   -2.6941094825   -1.4845936590
     54  H        -1.4672296398   -3.5109386442   -0.1609168227
     55  H        -0.0217722964   -2.5702765397    1.6004733864
     56  H         1.1236624308   -3.1137946150    0.3021292441
   Point Group: c1    Number of degrees of freedom:   162


   Energy is  -1510.292322725

 Hessian Updated using BFGS Update

162 Hessian modes will be used to form the next step
  Hessian Eigenvalues:
     0.000732    0.001927    0.002640    0.003112    0.003520    0.004668
     0.005175    0.006459    0.007073    0.008577    0.010795    0.013087
     0.013753    0.016264    0.018911    0.021821    0.022299    0.026926
     0.027375    0.030132    0.031164    0.031696    0.032830    0.034803
     0.036525    0.039790    0.040044    0.042376    0.042965    0.044032
     0.044593    0.046204    0.048783    0.049262    0.051074    0.051558
     0.052057    0.053296    0.054971    0.055315    0.056183    0.056326
     0.056809    0.057377    0.058458    0.060190    0.060699    0.062874
     0.063156    0.064067    0.064407    0.064716    0.065232    0.066389
     0.068922    0.070532    0.072546    0.075161    0.076439    0.085657
     0.092578    0.092826    0.096327    0.096834    0.100447    0.101226
     0.101774    0.102493    0.103047    0.105539    0.107615    0.110863
     0.113440    0.118983    0.129564    0.137041    0.139442    0.145636
     0.158975    0.159570    0.160136    0.160680    0.162095    0.164551
     0.164664    0.166684    0.181427    0.185344    0.201314    0.218684
     0.221926    0.229151    0.234072    0.234977    0.237686    0.238358
     0.239847    0.241284    0.242442    0.244215    0.245331    0.246605
     0.249303    0.249911    0.251226    0.252846    0.253805    0.258294
     0.261342    0.262578    0.263535    0.270853    0.275042    0.285751
     0.291895    0.297408    0.303079    0.312777    0.320771    0.323119
     0.323405    0.324803    0.326416    0.326927    0.327057    0.328405
     0.328492    0.328518    0.328777    0.329016    0.329348    0.329967
     0.330423    0.330870    0.332704    0.332962    0.333741    0.334627
     0.334837    0.334974    0.335054    0.335163    0.335210    0.335298
     0.337355    0.343471    0.348225    0.349755    0.362154    0.365309
     0.371338    0.384958    0.405148    0.471564    0.527675    0.593489
     0.825536    0.828984    0.832572    0.837243    1.617475    1.750312

 Minimum Search - Taking Simple RFO Step
 Searching for Lamda that Minimizes Along All modes
 Value Taken    Lamda =   0.00000000
 Step Taken.  Stepsize is  0.007942

                             Maximum     Tolerance    Cnvgd?
         Gradient           0.000136      0.000300     YES
         Displacement       0.003736      0.001200      NO
         Energy change     -0.000000      0.000001     YES

 Final energy is   -1510.29232272495     


 ******************************
 **  OPTIMIZATION CONVERGED  **
 ******************************

                       Coordinates (Angstroms)
     ATOM                X               Y               Z
      1  O         5.4520351407   -0.7953220303   -0.6235203828
      2  C         4.3548359082   -0.4534243145   -0.1317163586
      3  C         3.5987096765    0.8968358702   -0.3476505963
      4  C         2.0463383604    0.7484469497   -0.6595147195
      5  C         1.5568438606   -0.7473433766   -0.6486221754
      6  O         0.7971765808   -0.9998714586    0.5376766428
      7  C         0.3120303607   -2.3986135914    0.5579122590
      8  C        -0.8906539889   -2.6008461917   -0.4346744805
      9  O        -1.7502211059   -1.4024504955   -0.3073956693
     10  C        -2.1743925833   -0.9183778760   -1.5860644021
     11  C        -2.8690180207    0.4653110281   -1.3541389113
     12  C        -3.7349361001    0.5377586278   -0.0289053476
     13  C        -3.9517761049   -0.8464692107    0.6786819454
     14  O        -3.7568595057   -1.1231417908    1.8812173990
     15  O         3.5878245734   -1.2712092417    0.7614963245
     16  O        -4.5134641246   -1.7483915333   -0.2887858330
     17  O        -1.9382935889   -1.4849796878   -2.6742884184
     18  C        -4.7226696444   -3.0850938701    0.3116962494
     19  C        -1.7490747731    1.5427620954   -1.0190164520
     20  C        -2.3901268576    2.9860351563   -1.0228166614
     21  C        -3.1390703766    2.9984012604    0.3619178402
     22  C        -2.8712349841    1.5267560874    0.8600942328
     23  O        -1.4807982323    1.2738611897    0.4103155719
     24  H        -3.4508629001    0.7280760768   -2.2546291378
     25  H        -4.7305096269    0.9670956262   -0.2462782930
     26  H        -0.8217110157    1.4392756822   -1.6147458927
     27  H        -1.6042026444    3.7567762168   -1.0680452049
     28  H        -3.0738262889    3.1267164901   -1.8751716527
     29  H        -2.6896741287    3.7263036503    1.0561090149
     30  H        -4.2142036925    3.2176444473    0.2641035711
     31  H        -2.9631904539    1.3501087479    1.9494964495
     32  O         1.7517161738   -1.5961224332   -1.5474913181
     33  C         4.2207595378   -2.5999406592    0.9153204682
     34  C         3.5451232363    1.7862793656    0.9755065523
     35  C         3.2281712504    3.2706625967    0.5396370327
     36  C         1.7031873403    3.1511824520    0.1711066977
     37  C         1.4166251644    1.6306455092    0.4974614079
     38  O         2.3046306223    1.3495978264    1.6498717009
     39  H         4.1181544729    1.4327012363   -1.1612175295
     40  H         1.8214823064    1.1584924354   -1.6610036968
     41  H         5.2851014505   -2.5158957299    1.2139336668
     42  H         4.4185062999    1.6655601508    1.6454973498
     43  H         3.3886575855    3.9608041044    1.3832653576
     44  H         3.8506467212    3.5975545532   -0.3085936009
     45  H         1.0812747259    3.8020105732    0.8061589270
     46  H         1.5019787540    3.3954617525   -0.8843567080
     47  H         0.3498714761    1.4007862523    0.7260759543
     48  H         4.1622671699   -3.1826622268   -0.0272933701
     49  H         3.6505880614   -3.1198305999    1.7069838589
     50  H        -4.1245595269   -3.8294762635   -0.2500634602
     51  H        -5.7955071710   -3.3510039896    0.2377397684
     52  H        -4.4091720781   -3.0670189341    1.3754174987
     53  H        -0.5403507530   -2.6941094825   -1.4845936590
     54  H        -1.4672296398   -3.5109386442   -0.1609168227
     55  H        -0.0217722964   -2.5702765397    1.6004733864
     56  H         1.1236624308   -3.1137946150    0.3021292441

Z-matrix Print:
$molecule
0 1
O 
C  1 1.431517
O  2 1.249405 1 124.656120
C  1 1.480273 2 111.655199 3 5.006480 0
H  4 1.110739 1 109.413661 2 15.393418 0
H  4 1.111598 1 109.904365 2 -104.411960 0
C  2 1.565532 1 107.338775 3 -175.878240 0
H  7 1.103844 2 108.869870 1 -164.162723 0
C  4 1.572443 1 106.603007 2 136.078059 0
H  9 1.108073 4 110.095482 1 75.286193 0
H  9 1.111600 4 109.296600 1 -164.179396 0
O  9 1.480627 4 111.314306 1 -40.661473 0
C  12 1.431143 9 110.606600 4 -75.217700 0
O  13 1.251546 12 123.939512 9 1.312906 0
C  13 1.573884 12 109.786820 9 179.251224 0
H  15 1.105295 13 107.192043 12 -132.602516 0
C  7 1.584710 2 114.000266 1 -37.608757 0
H  17 1.105779 7 110.201387 2 -131.945294 0
C  17 1.569645 7 114.340083 2 -10.272736 0
O  19 1.249252 17 127.422732 7 129.386368 0
O  19 1.436994 17 107.698041 7 -54.550351 0
C  21 1.480243 19 110.420559 17 179.066481 0
H  22 1.107772 21 109.059856 19 121.303102 0
H  22 1.107888 21 108.950125 19 -119.670631 0
H  22 1.109103 21 109.536082 19 0.893436 0
C  15 1.585373 13 113.594793 12 -8.384246 0
H  26 1.114927 15 114.516646 13 -37.551861 0
O  26 1.481753 15 102.943516 13 84.286540 0
C  28 1.477931 26 95.284380 15 57.417925 0
H  29 1.107366 28 110.714608 26 -179.354051 0
C  29 1.579188 28 103.603936 26 56.448931 0
H  31 1.101708 29 110.379246 28 82.180927 0
H  31 1.101739 29 112.209550 28 -156.353441 0
C  31 1.573425 29 100.824200 28 -35.907145 0
H  34 1.101655 31 111.547147 29 118.829967 0
H  34 1.101889 31 112.612720 29 -118.828657 0
C  17 1.585691 7 101.521042 2 110.357551 0
H  37 1.107455 17 114.003195 7 -150.551037 0
O  37 1.483095 17 103.549007 7 -30.534318 0
C  39 1.478942 37 95.280353 17 55.464835 0
H  40 1.107071 39 110.555494 37 178.812991 0
C  37 1.576596 17 108.209881 7 78.148567 0
H  42 1.101611 37 112.310623 17 49.058055 0
H  42 1.101681 37 110.385343 17 170.689374 0
C  42 1.574344 37 100.939855 17 -71.352916 0
H  45 1.101701 42 112.598209 37 115.915818 0
H  45 1.101710 42 111.714102 37 -121.351696 0
C  15 1.590326 13 113.011027 12 106.068822 0
H  48 1.104023 15 111.103466 13 123.342332 0
C  48 1.562548 15 114.760520 13 1.703579 0
O  50 1.250045 48 127.352560 15 133.842243 0
O  50 1.433495 48 108.672933 15 -46.933780 0
C  52 1.479796 50 110.374847 48 175.880802 0
H  53 1.105492 52 106.028198 50 173.031016 0
H  53 1.108628 52 111.750161 50 53.483067 0
H  53 1.109733 52 111.140509 50 -68.032957 0
$end

 
 --------------------------------------------------------------
 
                    Orbital Energies (a.u.)
 --------------------------------------------------------------
 
 Alpha MOs
 -- Occupied --
-18.936 -18.933 -18.929 -18.928 -18.903 -18.879 -18.876 -18.875
-18.872 -18.859 -10.103 -10.102 -10.095 -10.092 -10.070 -10.070
-10.069 -10.066 -10.062 -10.059 -10.053 -10.044 -10.042 -10.036
-10.031 -10.028 -10.028 -10.026 -10.013 -10.010  -1.019  -1.010
 -1.006  -0.999  -0.981  -0.958  -0.941  -0.936  -0.933  -0.926
 -0.770  -0.755  -0.733  -0.718  -0.713  -0.704  -0.691  -0.661
 -0.657  -0.615  -0.598  -0.579  -0.552  -0.545  -0.537  -0.527
 -0.519  -0.503  -0.492  -0.472  -0.470  -0.455  -0.449  -0.440
 -0.433  -0.426  -0.421  -0.420  -0.414  -0.410  -0.406  -0.403
 -0.395  -0.376  -0.372  -0.366  -0.362  -0.354  -0.353  -0.351
 -0.346  -0.341  -0.339  -0.334  -0.329  -0.324  -0.315  -0.314
 -0.310  -0.302  -0.300  -0.298  -0.293  -0.292  -0.285  -0.278
 -0.270  -0.251  -0.249  -0.245  -0.240  -0.237  -0.220  -0.179
 -0.173  -0.173  -0.167  -0.162  -0.155  -0.154  -0.151  -0.141
 -0.133
 -- Virtual --
  0.091   0.097   0.111   0.116   0.223   0.231   0.249   0.254
  0.259   0.270   0.282   0.298   0.305   0.314   0.326   0.332
  0.337   0.340   0.345   0.349   0.351   0.353   0.366   0.375
  0.376   0.384   0.387   0.395   0.402   0.405   0.405   0.410
  0.413   0.417   0.420   0.425   0.426   0.430   0.431   0.434
  0.435   0.441   0.443   0.445   0.447   0.456   0.460   0.466
  0.469   0.484   0.485   0.494   0.497   0.502   0.516   0.532
  0.543   0.548   0.572   0.638   0.643   0.648   0.655
 --------------------------------------------------------------
 
          Ground-State Mulliken Net Atomic Charges

     Atom                 Charge (a.u.)
  ----------------------------------------
      1 O                    -0.212171
      2 C                     0.208742
      3 C                    -0.080244
      4 C                    -0.079597
      5 C                     0.211000
      6 O                    -0.157106
      7 C                    -0.044332
      8 C                    -0.054003
      9 O                    -0.170759
     10 C                     0.215080
     11 C                    -0.076412
     12 C                    -0.077166
     13 C                     0.221127
     14 O                    -0.215681
     15 O                    -0.165904
     16 O                    -0.176690
     17 O                    -0.210428
     18 C                    -0.136091
     19 C                     0.026841
     20 C                    -0.144428
     21 C                    -0.143206
     22 C                     0.027623
     23 O                    -0.184379
     24 H                     0.087771
     25 H                     0.085406
     26 H                     0.083131
     27 H                     0.079043
     28 H                     0.076080
     29 H                     0.079798
     30 H                     0.075411
     31 H                     0.095390
     32 O                    -0.228623
     33 C                    -0.128736
     34 C                     0.026031
     35 C                    -0.143885
     36 C                    -0.146044
     37 C                     0.009630
     38 O                    -0.187207
     39 H                     0.083648
     40 H                     0.078201
     41 H                     0.091660
     42 H                     0.080066
     43 H                     0.075703
     44 H                     0.071485
     45 H                     0.073937
     46 H                     0.066893
     47 H                     0.115301
     48 H                     0.088855
     49 H                     0.090027
     50 H                     0.082875
     51 H                     0.084848
     52 H                     0.101089
     53 H                     0.105514
     54 H                     0.082084
     55 H                     0.092961
     56 H                     0.089841
  ----------------------------------------
  Sum of atomic charges =     0.000000

 -----------------------------------------------------------------
                    Cartesian Multipole Moments
 -----------------------------------------------------------------
    Charge (ESU x 10^10)
                 0.0000
    Dipole Moment (Debye)
         X      -2.3256      Y       1.1385      Z       0.1525
       Tot       2.5938
    Quadrupole Moments (Debye-Ang)
        XX    -157.7419     XY      -0.6472     YY    -142.4291
        XZ       4.7513     YZ      -8.9664     ZZ    -171.2818
    Octopole Moments (Debye-Ang^2)
       XXX     -55.2695    XXY       5.4264    XYY       5.8690
       YYY     -55.4965    XXZ      36.3530    XYZ      -7.6947
       YYZ      21.9688    XZZ      24.8275    YZZ      12.4332
       ZZZ      31.2003
    Hexadecapole Moments (Debye-Ang^3)
      XXXX   -9156.0825   XXXY    -173.1962   XXYY   -1935.4724
      XYYY    -216.7000   YYYY   -3696.3412   XXXZ       1.8275
      XXYZ     -90.4509   XYYZ     -50.7879   YYYZ     -69.3497
      XXZZ   -1743.2063   XYZZ    -124.7667   YYZZ    -832.3216
      XZZZ    -197.9771   YZZZ     -96.9729   ZZZZ   -1174.7732
 -----------------------------------------------------------------
Archival summary:
1\1\vega02.cac.cornell.edu\OPT\ProcedureUnspecified\STO-3G\102026\jj585\TueJan1611:32:402018TueJan1611:32:402018\0\\#,OPT,ProcedureUnspecified,STO-3G,\\0,1\O\C,1,1.43152\O,2,1.2494,1,124.656\C,1,1.48027,2,111.655,3,5.00648,0\H,4,1.11074,1,109.414,2,15.3934,0\H,4,1.1116,1,109.904,2,-104.412,0\C,2,1.56553,1,107.339,3,-175.878,0\H,7,1.10384,2,108.87,1,-164.163,0\C,4,1.57244,1,106.603,2,136.078,0\H,9,1.10807,4,110.095,1,75.2862,0\H,9,1.1116,4,109.297,1,-164.179,0\O,9,1.48063,4,111.314,1,-40.6615,0\C,12,1.43114,9,110.607,4,-75.2177,0\O,13,1.25155,12,123.94,9,1.31291,0\C,13,1.57388,12,109.787,9,179.251,0\H,15,1.1053,13,107.192,12,-132.603,0\C,7,1.58471,2,114,1,-37.6088,0\H,17,1.10578,7,110.201,2,-131.945,0\C,17,1.56965,7,114.34,2,-10.2727,0\O,19,1.24925,17,127.423,7,129.386,0\O,19,1.43699,17,107.698,7,-54.5504,0\C,21,1.48024,19,110.421,17,179.066,0\H,22,1.10777,21,109.06,19,121.303,0\H,22,1.10789,21,108.95,19,-119.671,0\H,22,1.1091,21,109.536,19,0.893436,0\C,15,1.58537,13,113.595,12,-8.38425,0\H,26,1.11493,15,114.517,13,-37.5519,0\O,26,1.48175,15,102.944,13,84.2865,0\C,28,1.47793,26,95.2844,15,57.4179,0\H,29,1.10737,28,110.715,26,-179.354,0\C,29,1.57919,28,103.604,26,56.4489,0\H,31,1.10171,29,110.379,28,82.1809,0\H,31,1.10174,29,112.21,28,-156.353,0\C,31,1.57342,29,100.824,28,-35.9071,0\H,34,1.10166,31,111.547,29,118.83,0\H,34,1.10189,31,112.613,29,-118.829,0\C,17,1.58569,7,101.521,2,110.358,0\H,37,1.10746,17,114.003,7,-150.551,0\O,37,1.4831,17,103.549,7,-30.5343,0\C,39,1.47894,37,95.2804,17,55.4648,0\H,40,1.10707,39,110.555,37,178.813,0\C,37,1.5766,17,108.21,7,78.1486,0\H,42,1.10161,37,112.311,17,49.0581,0\H,42,1.10168,37,110.385,17,170.689,0\C,42,1.57434,37,100.94,17,-71.3529,0\H,45,1.1017,42,112.598,37,115.916,0\H,45,1.10171,42,111.714,37,-121.352,0\C,15,1.59033,13,113.011,12,106.069,0\H,48,1.10402,15,111.103,13,123.342,0\C,48,1.56255,15,114.761,13,1.70358,0\O,50,1.25004,48,127.353,15,133.842,0\O,50,1.43349,48,108.673,15,-46.9338,0\C,52,1.4798,50,110.375,48,175.881,0\H,53,1.10549,52,106.028,50,173.031,0\H,53,1.10863,52,111.75,50,53.4831,0\H,53,1.10973,52,111.141,50,-68.033,0\\\@

 Total job time:  119.62s(wall), 5697.33s(cpu) 
 Tue Jan 16 11:32:40 2018

        *************************************************************
        *                                                           *
        *  Thank you very much for using Q-Chem.  Have a nice day.  *
        *                                                           *
        *************************************************************


0 sent ACK to 0 
now end server 0 ... 
