mFile = /opt/software/qchem/qchem-5.0.1//bin/mpi/machines
Process 0 of 1 is on vega02.cac.cornell.edu - thread support 0
initial socket setup ...start
initial socket setup ...done 
now start server 0 ... 
vega02.cac.cornell.edu 10.84.3
Q-Chem Developer Version! Running on 10.84.3.*
                  Welcome to Q-Chem
     A Quantum Leap Into The Future Of Chemistry


 Q-Chem 5.0, Q-Chem, Inc., Pleasanton, CA (2017)

 Yihan Shao,  Zhengting Gan,  E. Epifanovsky,  A. T. B. Gilbert,  M. Wormit,  
 J. Kussmann,  A. W. Lange,  A. Behn,  Jia Deng,  Xintian Feng,  D. Ghosh,  
 M. Goldey,  P. R. Horn,  L. D. Jacobson,  I. Kaliman,  T. Kus,  A. Landau,  
 Jie Liu,  E. I. Proynov,  R. M. Richard,  R. P. Steele,  E. J. Sundstrom,  
 H. L. Woodcock III,  P. M. Zimmerman,  D. Zuev,  B. Albrecht,  E. Alguire,  
 S. A. Baeppler,  Z. Benda,  Y. A. Bernard,  E. J. Berquist,  K. B. Bravaya,  
 D. Casanova,  Chun-Min Chang,  Yunqing Chen,  A. Chien,  K. D. Closser,  
 M. P. Coons,  S. Dasgupta,  M. Diedenhofen,  Hainam Do,  R. G. Edgar,  
 Po-Tung Fang,  S. Fatehi,  Qingguo Feng,  Qinghui Ge,  A. Ghysels,  
 J. Gomes,  J. Gonthier,  A. Gunina,  M. W. D. Hanson-Heine,  
 P. H. P. Harbach,  A. W. Hauser,  J. E. Herr,  E. G. Hohenstein,  
 Z. C. Holden,  Kerwin Hui,  T.-C. Jagau,  Hyunjun Ji,  B. Kaduk,  
 K. Khistyaev,  Jaehoon Kim,  P. Klunzinger,  K. Koh,  D. Kosenkov,  
 T. Kowalczyk,  C. M. Krauter,  A. Kunitsa,  Ka Un Lao,  A. Laurent,  
 K. V. Lawler,  Joonho Lee,  D. Lefrancois,  S. Lehtola,  D. S. Levine,  
 Yi-Pei Li,  You-Sheng Lin,  Fenglai Liu,  E. Livshits,  A. Luenser,  
 P. Manohar,  E. Mansoor,  S. F. Manzer,  Shan-Ping Mao,  Yuezhi Mao,  
 N. Mardirossian,  A. V. Marenich,  L. A. Martinez-Martinez,  S. A. Maurer,  
 N. J. Mayhall,  S. C. McKenzie,  J.-M. Mewes,  A. F. Morrison,  K. Nanda,  
 T. S. Nguyen-Beck,  R. Olivares-Amaya,  J. A. Parkhill,  T. M. Perrine,  
 F. Plasser,  S. Prager,  A. Prociuk,  D. R. Rehn,  F. Rob,  M. Schneider,  
 N. Sergueev,  S. M. Sharada,  S. Sharma,  D. W. Small,  T. Stauch,  
 T. Stein,  Yu-Chuan Su,  A. J. W. Thom,  T. Tsuchimochi,  L. Vogt,  
 O. Vydrov,  M. A. Watson,  J. Wenzel,  M. de Wergifosse,  T. A. Wesolowski,  
 A. White,  J. Witte,  A. Yamada,  Jun Yang,  K. Yao,  S. Yeganeh,  
 S. R. Yost,  Zhi-Qiang You,  A. Zech,  Igor Ying Zhang,  Xing Zhang,  
 Yan Zhao,  Ying Zhu,  B. R. Brooks,  G. K. L. Chan,  C. J. Cramer,  
 M. S. Gordon,  W. J. Hehre,  A. Klamt,  M. W. Schmidt,  C. D. Sherrill,  
 D. G. Truhlar,  A. Aspuru-Guzik,  R. Baer,  A. T. Bell,  N. A. Besley,  
 Jeng-Da Chai,  A. Dreuw,  B. D. Dunietz,  T. R. Furlani,  Chao-Ping Hsu,  
 Yousung Jung,  Jing Kong,  D. S. Lambrecht,  WanZhen Liang,  C. Ochsenfeld,  
 V. A. Rassolov,  L. V. Slipchenko,  J. E. Subotnik,  T. Van Voorhis,  
 J. M. Herbert,  A. I. Krylov,  P. M. W. Gill,  M. Head-Gordon

 Contributors to earlier versions of Q-Chem not listed above: 
 R. D. Adamson,  B. Austin,  J. Baker,  G. J. O. Beran,  K. Brandhorst,  
 S. T. Brown,  E. F. C. Byrd,  A. K. Chakraborty,  C.-L. Cheng,  
 Siu Hung Chien,  D. M. Chipman,  D. L. Crittenden,  H. Dachsel,  
 R. A. DiStasio Jr.,  R. J. Doerksen,  A. D. Dutoi,  L. Fusti-Molnar,  
 W. A. Goddard III,  A. Golubeva-Zadorozhnaya,  S. R. Gwaltney,  G. Hawkins,  
 A. Heyden,  S. Hirata,  G. Kedziora,  F. J. Keil,  C. Kelley,  Jihan Kim,  
 R. A. King,  R. Z. Khaliullin,  P. P. Korambath,  W. Kurlancheek,  
 A. M. Lee,  M. S. Lee,  S. V. Levchenko,  Ching Yeh Lin,  D. Liotard,  
 R. C. Lochan,  I. Lotan,  P. E. Maslen,  N. Nair,  D. P. O'Neill,  
 D. Neuhauser,  E. Neuscamman,  C. M. Oana,  R. Olson,  B. Peters,  
 R. Peverati,  P. A. Pieniazek,  Y. M. Rhee,  J. Ritchie,  M. A. Rohrdanz,  
 E. Rosta,  N. J. Russ,  H. F. Schaefer III,  N. E. Schultz,  N. Shenvi,  
 A. C. Simmonett,  A. Sodt,  D. Stuck,  K. S. Thanthiriwatte,  V. Vanovschi,  
 Tao Wang,  A. Warshel,  C. F. Williams,  Q. Wu,  X. Xu,  W. Zhang

 Please cite Q-Chem as follows:
 Y. Shao et al., Mol. Phys. 113, 184-215 (2015)
 DOI: 10.1080/00268976.2014.952696

 Q-Chem 5.0.1 for Intel X86 EM64T Linux

 Parts of Q-Chem use Armadillo 5.200.1 (Boston Tea Smuggler).
 http://arma.sourceforge.net/

 Q-Chem begins on Tue Jan 16 16:29:04 2018  

Host: vega02.cac.cornell.edu
0

     Scratch files written to /scratch/jj585/SOT1001/1204c.save//
 Parallel job on  1  processors

Checking the input file for inconsistencies... 	...done.

--------------------------------------------------------------
User input:
--------------------------------------------------------------
$molecule
0  1
O -3.94934 -3.66094 2.70899
C -3.26408 -4.56952 2.26188
C -3.36658 -6.02376 2.66595
C -2.70679 -7.05853 1.73979
C -1.86617 -6.51122 0.60758
O -2.33304 -6.98194 -0.58652
C -1.68997 -6.38473 -1.71747
C -0.17722 -6.38601 -1.5233
O 0.46268 -5.78591 -2.66053
C 1.75538 -5.41966 -2.47633
C 2.07841 -4.07547 -3.08416
C 0.91635 -3.07156 -3.08991
C -0.25535 -3.41191 -2.19103
O -0.93813 -2.60283 -1.57966
O -2.17884 -4.0534 1.63544
O -1.3242 -4.1932 -2.63101
O 2.48791 -5.95636 -1.6535
C -2.57362 -4.07562 -1.83284
C 3.17316 -3.24659 -2.38513
C 3.77407 -2.26052 -3.39271
C 2.63408 -1.27466 -3.54158
C 1.64645 -1.84232 -2.51713
O 2.46515 -2.39793 -1.51682
H 2.40239 -4.30553 -4.12386
H 0.50124 -2.86673 -4.10145
H 3.97522 -3.86244 -1.92577
H 4.62516 -1.74158 -2.89808
H 4.12585 -2.71737 -4.34325
H 2.98932 -0.27034 -3.22095
H 2.18843 -1.20952 -4.55905
H 0.94604 -1.04297 -2.18851
O -0.84832 -5.92663 0.91988
C -2.11347 -2.70462 1.27243
C -2.62893 -6.32753 3.98381
C -3.20645 -7.59713 4.61821
C -2.63345 -8.65855 3.70131
C -1.80454 -7.78959 2.75371
O -1.34794 -6.74344 3.57826
H -4.45364 -6.22403 2.7995
H -3.47366 -7.74689 1.31455
H -2.14382 -2.0391 2.15831
H -2.6677 -5.48291 4.70603
H -2.7506 -7.72035 5.62635
H -4.31401 -7.60243 4.71194
H -1.95147 -9.30734 4.29581
H -3.37941 -9.28549 3.16662
H -1.01847 -8.40093 2.2576
H -2.99089 -2.45364 0.62234
H -1.1838 -2.49826 0.72804
H -2.2896 -4.26299 -0.75057
H -3.51626 -4.65423 -1.97475
H -2.29228 -4.2646 -0.75022
H 0.23771 -5.74468 -0.7574
H 0.21931 -7.41962 -1.37322
H -2.33615 -6.25095 -2.61439
H -1.64154 -7.25931 -2.40374
$end

$opt
CONSTRAINT
tors           1           2           3           4    +163.756
tors           3           4           5           6    -123.158
tors           4           5           6           7    +173.022
tors           5           6           7           8     +47.269
tors           6           7           8           9    -180.000
tors           7           8           9          10    +164.020
tors           8           9          10          11    -138.045
tors           9          10          11          12     +31.840
tors          11          12          13          14    +144.996
ENDCONSTRAINT
$end

$rem
JOBTYPE                   OPT
METHOD                    B3LYP
DFT_D                     d3_op
BASIS                     STO-3G
GEOM_OPT_MAX_CYCLES       100
GEOM_OPT_TOL_GRADIENT     300
GEOM_OPT_TOL_DISPLACEMENT 1200
GEOM_OPT_TOL_ENERGY       100
SYMMETRY                  False
THRESH                    12
SCF_CONVERGENCE           8
MAX_SUB_FILE_NUM          128
MEM_STATIC                400
MEM_TOTAL                 4000
$end
--------------------------------------------------------------
 Adding empirical dispersion correction 
 ----------------------------------------------------------------
 Doing -D3(op) with
 s6 =   1.00000
 s8 =   0.78311
 a1 =   0.30000
 a2 =   4.25000
 n  =  10.00000
 -D3 energy without 3body term =     -0.0767933745 hartrees
 ----------------------------------------------------------------
             Standard Nuclear Orientation (Angstroms)
    I     Atom           X                Y                Z
 ----------------------------------------------------------------
    1      O       3.3724286575    -3.0430492225    -0.0761735592
    2      C       3.0583150283    -1.8614225597    -0.0663097936
    3      C       4.0240123388    -0.6983667518    -0.1239525262
    4      C       3.4440899138     0.6792144132    -0.4842361051
    5      C       1.9370262439     0.7743984822    -0.5724902409
    6      O       1.5724213069     1.2308063185    -1.8070650067
    7      C       0.1578595948     1.1982461400    -2.0243245499
    8      C      -0.5717397667     1.7991049837    -0.8273410030
    9      O      -1.9901152996     1.7638969486    -1.0506240856
   10      C      -2.7586468886     1.9487562995     0.0513415262
   11      C      -3.9455952536     1.0165379898     0.1040202491
   12      C      -3.7158685001    -0.3607238292    -0.5352193735
   13      C      -2.2712154157    -0.7323796630    -0.8027145580
   14      O      -1.8010408856    -1.8575347985    -0.7159154567
   15      O       1.7779173922    -1.7358059561     0.3595483378
   16      O      -1.6311326209    -0.4048687257    -1.9983179156
   17      O      -2.3725737896     2.5693257015     1.0349763564
   18      C      -0.4090884672    -1.1944370491    -2.3067667622
   19      C      -4.4400089422     0.6064461173     1.5045709688
   20      C      -5.9113424281     0.1876110256     1.4129234444
   21      C      -5.7864567471    -1.1359690726     0.6875278924
   22      C      -4.2617808280    -1.2537921201     0.5946313574
   23      O      -3.7929351117    -0.6153579643     1.7574631514
   24      H      -4.7583704642     1.5630813416    -0.4247079945
   25      H      -4.2728289995    -0.5163300306    -1.4855174976
   26      H      -4.3135958516     1.3985018253     2.2728486280
   27      H      -6.2759094142    -0.0105351395     2.4454643678
   28      H      -6.5803136789     0.9288192557     0.9239702688
   29      H      -6.1973146961    -1.9381843429     1.3396813426
   30      H      -6.2700638230    -1.1797074751    -0.3136231908
   31      H      -3.9748284920    -2.3216665551     0.4728600839
   32      O       1.3214616118     0.6247178211     0.4638356075
   33      C       0.9074595245    -2.8293810371     0.4002131670
   34      C       4.6528423447    -0.3799364318     1.2458407684
   35      C       5.9719507590     0.3736488081     1.0459929562
   36      C       5.4596174780     1.7363497613     0.6262218905
   37      C       3.9500056432     1.5054105151     0.7149247800
   38      O       3.8151390519     0.6089536890     1.7924090010
   39      H       4.8254797191    -1.0063535544    -0.8327806343
   40      H       3.8817134030     1.0490012858    -1.4405318202
   41      H       1.2576544865    -3.6067392366     1.1085203641
   42      H       4.8165954713    -1.2868093852     1.8681382419
   43      H       6.4681571390     0.4749226609     2.0373816215
   44      H       6.6735700464    -0.1075648553     0.3306843919
   45      H       5.7632980485     2.4800631840     1.3970162149
   46      H       5.7824375642     2.0823441926    -0.3795009972
   47      H       3.4162647030     2.4763422741     0.8158202736
   48      H       0.8477206970    -3.2926010181    -0.6182819712
   49      H      -0.0935071837    -2.5116568250     0.7169910145
   50      H       0.2647982216    -1.1236225962    -1.3968517804
   51      H       0.2798753994    -1.0521277513    -3.1719690530
   52      H       0.2672682188    -1.1233985162    -1.3987872137
   53      H      -0.5497952008     1.2548288628     0.1071940814
   54      H      -0.2497706457     2.8510062859    -0.6325354207
   55      H      -0.1562709744     0.9852548597    -3.0711616276
   56      H       0.0265600122     2.1285646327    -2.6205376627
 ----------------------------------------------------------------
 Molecular Point Group                 C1    NOp =  1
 Largest Abelian Subgroup              C1    NOp =  1
 Nuclear Repulsion Energy =  3531.4607890837 hartrees
 There are      113 alpha and      113 beta electrons
 Requested basis set is STO-3G
 There are 86 shells and 176 basis functions

 Total QAlloc Memory Limit   4000 MB
 Mega-Array Size       392 MB
 MEM_STATIC part       400 MB
 A cutoff of  1.0D-12 yielded   2383 shell pairs
 There are     11302 function pairs
 
 -------------------------------------------------------
 OpenMP Integral Computing Module                       
 Release: version 1.0, May 2013, Q-Chem Inc. Pittsburgh 
 -------------------------------------------------------
 Integral Job Info:
 Integral job number is                      11
 Integral operator is                         1
 short-range coefficients                     0
 long-range coefficients              100000000
 Omega coefficients                           0
 if combine SR and LR in K                    0
 Integral screening is                        0
 Integral computing path is                   2
 max size of driver memory is            800000
 size of driver memory is                 45569
 size of scratch memory is              1046100
 max col of scratch BK array                289
 max len of scratch array in speh3           22
 max len of scratch index in speh4            8
 max int batch size is                      520
 min int batch size is                       52
 fixed nKL is                                52
 max L of basis functions is                  1
 order of int derivative is                   0
 number of shells is                         86
 number of basis is                         176
 number of cartesian basis is               176
 number of contracted shell pairs          2383
 number of primitive shell pairs          12286
 maxK2 (contraction) of shell pair            9
 max number of K2 of shell pair               1
 max number of CS2 of shell pair            346
 max number of PS2 of shell pair           1434
 mem total for path MDJ                   56394
 -------------------------------------------------------
 Smallest overlap matrix eigenvalue = 8.06E-06

 Scale SEOQF with 1.000000e-02/1.000000e-01/1.000000e-01

 Standard Electronic Orientation quadrupole field applied
 Nucleus-field energy     =     0.0000000123 hartrees
 Guess from superposition of atomic densities
 Warning:  Energy on first SCF cycle will be non-variational
 A restricted hybrid HF-DFT SCF calculation will be
 performed using Pulay DIIS extrapolation
 Exchange:     0.2000 Hartree-Fock + 0.0800 Slater + 0.7200 B88
 Correlation:  0.1900 VWN1RPA + 0.8100 LYP
 Using SG-1 standard quadrature grid
 Dispersion:   Grimme D3
 SCF converges when DIIS error is below 1.0E-08
 using 48 threads for integral computing
 -------------------------------------------------------
 OpenMP Integral computing Module                
 Release: version 1.0, May 2013, Q-Chem Inc. Pittsburgh 
 -------------------------------------------------------
 -------------------------------------------------------
 OpenMP BLAS3 based DFT computing Module                
 Release: version 1.0, May 2013, Q-Chem Inc. Pittsburgh 
 -------------------------------------------------------
 ---------------------------------------
  Cycle       Energy         DIIS Error
 ---------------------------------------
    1   -1343.0507492648      8.28E-02
    2   -1342.1572305148      1.09E-02
    3   -1339.7860480858      2.71E-02
    4   -1342.6925774680      3.85E-03
    5   -1342.7470234447      1.71E-03
    6   -1342.7581445272      7.22E-04
    7   -1342.7603687347      1.75E-04
    8   -1342.7604928924      4.93E-05
    9   -1342.7605025783      1.78E-05
   10   -1342.7605039241      4.80E-06
   11   -1342.7605039924      3.02E-06
   12   -1342.7605040358      4.34E-07
   13   -1342.7605040365      3.01E-07
   14   -1342.7605040371      1.12E-07
   15   -1342.7605040371      2.73E-08
   16   -1342.7605040369      7.22E-09 Convergence criterion met
 ---------------------------------------
 SCF time:  CPU 129.59 s  wall 2.76 s
 SCF   energy in the final basis set = -1342.76050404
 Total energy in the final basis set = -1342.76050404
 
 --------------------------------------------------------------
 
                    Orbital Energies (a.u.)
 --------------------------------------------------------------
 
 Alpha MOs
 -- Occupied --
-18.965 -18.933 -18.917 -18.917 -18.903 -18.901 -18.878 -18.871
-18.852 -18.839 -10.115 -10.113 -10.101 -10.098 -10.091 -10.072
-10.071 -10.070 -10.068 -10.068 -10.057 -10.055 -10.046 -10.041
-10.031 -10.020 -10.018 -10.018 -10.017  -9.971  -1.062  -1.053
 -1.045  -1.040  -1.029  -1.024  -0.973  -0.963  -0.955  -0.924
 -0.889  -0.790  -0.784  -0.757  -0.744  -0.738  -0.725  -0.720
 -0.665  -0.655  -0.618  -0.609  -0.576  -0.559  -0.546  -0.540
 -0.533  -0.528  -0.519  -0.498  -0.487  -0.481  -0.474  -0.459
 -0.455  -0.454  -0.447  -0.443  -0.436  -0.418  -0.411  -0.408
 -0.399  -0.397  -0.392  -0.383  -0.374  -0.369  -0.361  -0.355
 -0.353  -0.346  -0.343  -0.335  -0.331  -0.324  -0.319  -0.313
 -0.311  -0.308  -0.308  -0.302  -0.299  -0.289  -0.281  -0.274
 -0.270  -0.256  -0.242  -0.236  -0.234  -0.219  -0.190  -0.182
 -0.169  -0.160  -0.159  -0.154  -0.152  -0.142  -0.122  -0.101
 -0.048
 -- Virtual --
  0.070   0.095   0.104   0.116   0.144   0.208   0.217   0.225
  0.256   0.264   0.274   0.303   0.324   0.328   0.331   0.340
  0.347   0.360   0.365   0.376   0.379   0.384   0.388   0.391
  0.396   0.399   0.403   0.408   0.412   0.419   0.429   0.431
  0.436   0.441   0.445   0.447   0.449   0.453   0.456   0.459
  0.463   0.466   0.472   0.482   0.485   0.486   0.488   0.495
  0.496   0.502   0.515   0.517   0.531   0.550   0.562   0.569
  0.578   0.590   0.678   0.689   0.702   0.721   1.582
 --------------------------------------------------------------
 
          Ground-State Mulliken Net Atomic Charges

     Atom                 Charge (a.u.)
  ----------------------------------------
      1 O                    -0.243100
      2 C                     0.221874
      3 C                    -0.079649
      4 C                    -0.084047
      5 C                     0.227779
      6 O                    -0.182738
      7 C                    -0.096973
      8 C                    -0.036959
      9 O                    -0.202675
     10 C                     0.229327
     11 C                    -0.084404
     12 C                    -0.073261
     13 C                     0.200248
     14 O                    -0.204651
     15 O                    -0.208818
     16 O                    -0.175085
     17 O                    -0.221895
     18 C                    -0.110306
     19 C                     0.038880
     20 C                    -0.141678
     21 C                    -0.143615
     22 C                     0.040386
     23 O                    -0.209440
     24 H                     0.084740
     25 H                     0.096786
     26 H                     0.094726
     27 H                     0.076974
     28 H                     0.072455
     29 H                     0.078232
     30 H                     0.072369
     31 H                     0.094589
     32 O                    -0.208517
     33 C                    -0.105900
     34 C                     0.041809
     35 C                    -0.141871
     36 C                    -0.143812
     37 C                     0.041737
     38 O                    -0.202827
     39 H                     0.092229
     40 H                     0.076437
     41 H                     0.085988
     42 H                     0.089083
     43 H                     0.077066
     44 H                     0.072982
     45 H                     0.076211
     46 H                     0.071931
     47 H                     0.081795
     48 H                     0.088658
     49 H                     0.107049
     50 H                     1.767227
     51 H                     0.093109
     52 H                    -1.637087
     53 H                     0.117787
     54 H                     0.089138
     55 H                     0.144257
     56 H                     0.095453
  ----------------------------------------
  Sum of atomic charges =    -0.000000

 -----------------------------------------------------------------
                    Cartesian Multipole Moments
 -----------------------------------------------------------------
    Charge (ESU x 10^10)
                -0.0000
    Dipole Moment (Debye)
         X      -0.5485      Y       2.9144      Z      -3.0054
       Tot       4.2222
    Quadrupole Moments (Debye-Ang)
        XX    -135.6262     XY       6.1872     YY    -169.2444
        XZ      -1.8081     YZ      -7.8190     ZZ    -162.3505
    Octopole Moments (Debye-Ang^2)
       XXX     -37.3858    XXY      24.1732    XYY     -12.7617
       YYY      26.3680    XXZ       0.1153    XYZ       3.3742
       YYZ       5.8934    XZZ       8.0259    YZZ       2.9323
       ZZZ     -23.1996
    Hexadecapole Moments (Debye-Ang^3)
      XXXX  -11407.7235   XXXY      38.7561   XXYY   -2483.5288
      XYYY      78.0391   YYYY   -2316.5008   XXXZ      33.2452
      XXYZ      -8.2457   XYYZ      27.6303   YYYZ     -66.8525
      XXZZ   -2261.3927   XYZZ     -40.6105   YYZZ    -617.0048
      XZZZ      -5.3905   YZZZ     -30.6445   ZZZZ   -1367.0617
 -----------------------------------------------------------------
 Calculating analytic gradient of the SCF energy
 Gradient of SCF Energy
            1           2           3           4           5           6
    1  -0.0674713   0.0035332  -0.0062295  -0.0356086  -0.0539111  -0.0212546
    2   0.0807958   0.0376822   0.0040234  -0.0177065   0.0032916   0.0105561
    3   0.0290688  -0.0191350   0.0344771   0.0589908  -0.0102060   0.0420972
            7           8           9          10          11          12
    1   0.0072804   0.0402031   0.0280499  -0.0080103   0.0463862   0.0156996
    2  -0.1120917  -0.0078025   0.0033684   0.0137072  -0.0277960  -0.0147534
    3   0.0639209  -0.0394164   0.0873663  -0.0362702   0.0462182   0.0292438
           13          14          15          16          17          18
    1  -0.0102375  -0.0094460   0.0591638  -0.0601254  -0.0170812   0.2300611
    2   0.0448599   0.1451911  -0.1296056  -0.1355865  -0.0405331   0.0914463
    3   0.0565434  -0.1588414  -0.0211708   0.1241258  -0.0465683   0.2262967
           19          20          21          22          23          24
    1   0.0146972   0.0428478   0.0346583   0.0018026  -0.0519243   0.0010405
    2  -0.0666383  -0.0237957   0.0281886   0.0668281   0.0270900   0.0074506
    3  -0.0222560  -0.0178769   0.0170297   0.0341204  -0.0629421  -0.0010428
           25          26          27          28          29          30
    1  -0.0023612  -0.0124131   0.0005243  -0.0060504  -0.0036485  -0.0011654
    2  -0.0050473   0.0062492  -0.0078666   0.0046499  -0.0010905  -0.0004439
    3  -0.0032220  -0.0009399   0.0077557  -0.0041907   0.0119627  -0.0092935
           31          32          33          34          35          36
    1  -0.0115764   0.0605498  -0.0024207  -0.0321841  -0.0490783  -0.0249612
    2  -0.0057186   0.0097126   0.0563197   0.0598985   0.0154323  -0.0401494
    3  -0.0076926  -0.0539275   0.0153438  -0.0145824  -0.0062147   0.0120221
           37          38          39          40          41          42
    1   0.0180654   0.0451828   0.0072711   0.0019197  -0.0009014   0.0111375
    2  -0.0632211  -0.0034961  -0.0017620   0.0027297   0.0046622  -0.0052797
    3   0.0231514  -0.0733551  -0.0025002  -0.0064207  -0.0009058  -0.0045699
           43          44          45          46          47          48
    1  -0.0003369   0.0054861   0.0031704   0.0003706   0.0054081   0.0059520
    2   0.0066667  -0.0029140   0.0001513   0.0025259   0.0086032   0.0016930
    3   0.0095930  -0.0054707   0.0120740  -0.0080607  -0.0093917  -0.0071141
           49          50          51          52          53          54
    1   0.006516522214.7718446   0.0077634-22214.9397750  -0.0321483  -0.0076766
    2  -0.01083122016.2986551  -0.0237479-2016.3292210   0.0124661   0.0055809
    3   0.0018316-17407.0281822  -0.023161417406.8114831  -0.0185342   0.0014638
           55          56
    1   0.0139284  -0.0225175
    2   0.0815114  -0.0648887
    3  -0.0186853  -0.0140390
 Max gradient component =       2.221E+04
 RMS gradient           =       3.087E+03
 Gradient time:  CPU 33.32 s  wall 0.71 s
 Geometry Optimization Parameters
   NAtoms,    NIC,     NZ,  NCons,   NDum,   NFix, NCnnct, MaxDiis
       56     465       0       9       0       0       0       0


** CONSTRAINED OPTIMIZATION IN DELOCALIZED INTERNAL COORDINATES **
   Searching for a Minimum

   Optimization Cycle:   1

                       Coordinates (Angstroms)
     ATOM                X               Y               Z
      1  O         3.3724286575   -3.0430492225   -0.0761735592
      2  C         3.0583150283   -1.8614225597   -0.0663097936
      3  C         4.0240123388   -0.6983667518   -0.1239525262
      4  C         3.4440899138    0.6792144132   -0.4842361051
      5  C         1.9370262439    0.7743984822   -0.5724902409
      6  O         1.5724213069    1.2308063185   -1.8070650067
      7  C         0.1578595948    1.1982461400   -2.0243245499
      8  C        -0.5717397667    1.7991049837   -0.8273410030
      9  O        -1.9901152996    1.7638969486   -1.0506240856
     10  C        -2.7586468886    1.9487562995    0.0513415262
     11  C        -3.9455952536    1.0165379898    0.1040202491
     12  C        -3.7158685001   -0.3607238292   -0.5352193735
     13  C        -2.2712154157   -0.7323796630   -0.8027145580
     14  O        -1.8010408856   -1.8575347985   -0.7159154567
     15  O         1.7779173922   -1.7358059561    0.3595483378
     16  O        -1.6311326209   -0.4048687257   -1.9983179156
     17  O        -2.3725737896    2.5693257015    1.0349763564
     18  C        -0.4090884672   -1.1944370491   -2.3067667622
     19  C        -4.4400089422    0.6064461173    1.5045709688
     20  C        -5.9113424281    0.1876110256    1.4129234444
     21  C        -5.7864567471   -1.1359690726    0.6875278924
     22  C        -4.2617808280   -1.2537921201    0.5946313574
     23  O        -3.7929351117   -0.6153579643    1.7574631514
     24  H        -4.7583704642    1.5630813416   -0.4247079945
     25  H        -4.2728289995   -0.5163300306   -1.4855174976
     26  H        -4.3135958516    1.3985018253    2.2728486280
     27  H        -6.2759094142   -0.0105351395    2.4454643678
     28  H        -6.5803136789    0.9288192557    0.9239702688
     29  H        -6.1973146961   -1.9381843429    1.3396813426
     30  H        -6.2700638230   -1.1797074751   -0.3136231908
     31  H        -3.9748284920   -2.3216665551    0.4728600839
     32  O         1.3214616118    0.6247178211    0.4638356075
     33  C         0.9074595245   -2.8293810371    0.4002131670
     34  C         4.6528423447   -0.3799364318    1.2458407684
     35  C         5.9719507590    0.3736488081    1.0459929562
     36  C         5.4596174780    1.7363497613    0.6262218905
     37  C         3.9500056432    1.5054105151    0.7149247800
     38  O         3.8151390519    0.6089536890    1.7924090010
     39  H         4.8254797191   -1.0063535544   -0.8327806343
     40  H         3.8817134030    1.0490012858   -1.4405318202
     41  H         1.2576544865   -3.6067392366    1.1085203641
     42  H         4.8165954713   -1.2868093852    1.8681382419
     43  H         6.4681571390    0.4749226609    2.0373816215
     44  H         6.6735700464   -0.1075648553    0.3306843919
     45  H         5.7632980485    2.4800631840    1.3970162149
     46  H         5.7824375642    2.0823441926   -0.3795009972
     47  H         3.4162647030    2.4763422741    0.8158202736
     48  H         0.8477206970   -3.2926010181   -0.6182819712
     49  H        -0.0935071837   -2.5116568250    0.7169910145
     50  H         0.2647982216   -1.1236225962   -1.3968517804
     51  H         0.2798753994   -1.0521277513   -3.1719690530
     52  H         0.2672682188   -1.1233985162   -1.3987872137
     53  H        -0.5497952008    1.2548288628    0.1071940814
     54  H        -0.2497706457    2.8510062859   -0.6325354207
     55  H        -0.1562709744    0.9852548597   -3.0711616276
     56  H         0.0265600122    2.1285646327   -2.6205376627
   Point Group: c1    Number of degrees of freedom:   162


   Energy is  -1342.760504037

              Constraints and their Current Values
                                        Value     Constraint
   Dihedral:        1   2   3   4      163.756      163.756
   Dihedral:        3   4   5   6     -123.158     -123.158
   Dihedral:        4   5   6   7      173.022      173.022
   Dihedral:        5   6   7   8       47.269       47.269
   Dihedral:        6   7   8   9      180.000     -180.000
   Dihedral:        7   8   9  10      164.020      164.020
   Dihedral:        8   9  10  11     -138.044     -138.045
   Dihedral:        9  10  11  12       31.839       31.840
   Dihedral:       11  12  13  14      144.995      144.996

 Attempting to Generate Delocalized Internal Coordinates

   Using Lagrange Multiplier Algorithm


169 Hessian modes will be used to form the next step
  Hessian Eigenvalues:
    -0.977753   -0.977753   -0.977753   -0.977753   -0.977753   -0.977753
    -0.977753   -0.977753    0.045000    0.045000    0.045000    0.045000
     0.045000    0.045549    0.045565    0.045582    0.046105    0.046143
     0.048872    0.048874    0.050112    0.053306    0.060004    0.060022
     0.062306    0.062616    0.063496    0.067019    0.067198    0.067432
     0.068149    0.070668    0.070871    0.071914    0.073656    0.074665
     0.075813    0.075971    0.077079    0.077273    0.078264    0.082338
     0.082449    0.083717    0.084125    0.084392    0.084403    0.085378
     0.085671    0.085779    0.086693    0.086721    0.088334    0.088400
     0.089062    0.089365    0.089711    0.089765    0.093262    0.093714
     0.096483    0.096602    0.111566    0.111605    0.113587    0.114979
     0.117634    0.117695    0.118583    0.118716    0.119092    0.124800
     0.128783    0.131498    0.131617    0.139111    0.140180    0.141954
     0.155197    0.160000    0.160000    0.160000    0.160000    0.160001
     0.171788    0.172014    0.172657    0.173831    0.218793    0.219012
     0.223004    0.239571    0.240515    0.243138    0.245048    0.246094
     0.250000    0.250000    0.250000    0.250000    0.250000    0.250000
     0.250000    0.250000    0.258359    0.259279    0.266231    0.266994
     0.278593    0.278735    0.284377    0.284851    0.293964    0.294889
     0.298749    0.301413    0.308053    0.310698    0.310863    0.313321
     0.315152    0.318507    0.320636    0.320980    0.322309    0.322434
     0.322522    0.322582    0.322799    0.323059    0.323111    0.323162
     0.323315    0.323367    0.323429    0.323448    0.323918    0.324155
     0.324384    0.324431    0.325294    0.327666    0.337512    0.340251
     0.357898    0.368263    0.369664    0.383231    0.384787    0.401009
     0.407718    0.459026    0.464342    0.517915    0.537335    0.539308
     0.930142    0.941950    0.942723    0.978084    1.022753    1.022753
     1.022753    1.022753    1.022753    1.022753    1.022753    1.022753
    71.636631
**WARNING** Magnitude of eigenvalue 169 too large.  Replaced by    25.000000

 Minimum Search - Taking P-RFO Step
 Searching for Lamda that Maximizes Along the Constraint modes Only
 Value Taken    Lamda =   0.05811498


 ********************************************
 ** ERROR IN DETERMINING Lamda IN CONFormD **
 ********************************************


 ** Scaling Hessian by  2.582888 **


169 Hessian modes will be used to form the next step
  Hessian Eigenvalues:
    -0.977753   -0.977753   -0.943572   -0.943572   -0.943572   -0.943572
    -0.943572   -0.943572    0.116230    0.116230    0.116230    0.116230
     0.116230    0.117649    0.117690    0.117732    0.119084    0.119183
     0.126232    0.126236    0.129434    0.137684    0.154983    0.155030
     0.160929    0.161730    0.164003    0.173102    0.173564    0.174168
     0.176022    0.182528    0.183051    0.185746    0.190245    0.192851
     0.195817    0.196225    0.199087    0.199587    0.202148    0.212671
     0.212955    0.216232    0.217285    0.217974    0.218004    0.220521
     0.221279    0.221557    0.223918    0.223990    0.228156    0.228326
     0.230038    0.230820    0.231712    0.231852    0.240886    0.242052
     0.249205    0.249511    0.288162    0.288264    0.293382    0.296978
     0.303835    0.303994    0.306286    0.306629    0.307600    0.322343
     0.332633    0.339645    0.339951    0.359307    0.362069    0.366650
     0.400857    0.413262    0.413262    0.413262    0.413262    0.413265
     0.443709    0.444292    0.445955    0.448985    0.565119    0.565683
     0.575995    0.618785    0.621222    0.627998    0.632932    0.635634
     0.645722    0.645722    0.645722    0.645722    0.645722    0.645722
     0.645722    0.645722    0.667312    0.669689    0.687646    0.689616
     0.719575    0.719942    0.734513    0.735739    0.759277    0.761665
     0.771634    0.778515    0.795667    0.802498    0.802924    0.809273
     0.814003    0.822667    0.828168    0.829056    0.832488    0.832812
     0.833039    0.833193    0.833753    0.834426    0.834559    0.834692
     0.835087    0.835221    0.835381    0.835431    0.836645    0.837255
     0.837847    0.837969    0.840198    0.846325    0.871756    0.878832
     0.924409    0.951181    0.954800    0.989843    0.993862    1.022753
     1.022753    1.035760    1.053091    1.059802    1.059802    1.059802
     1.059802    1.059802    1.059802    1.185613    1.199345    1.337717
     1.387875    1.392972    2.402454    2.432951    2.434949    2.526282
   185.029404
**WARNING** Magnitude of eigenvalue 169 too large.  Replaced by    25.000000

 Minimum Search - Taking P-RFO Step
 Searching for Lamda that Maximizes Along the Constraint modes Only
 Value Taken    Lamda =   0.05803680
 Searching for Lamda that Minimizes Along All other modes


 *******************************************
 ** UNABLE TO DETERMINE Lamda IN CONFormD **
 *******************************************



 New Cartesian Coordinates Obtained by Inverse Iteration

 Displacement from previous Coordinates is:  0.000000
 Adding empirical dispersion correction 
 ----------------------------------------------------------------
 Doing -D3(op) with
 s6 =   1.00000
 s8 =   0.78311
 a1 =   0.30000
 a2 =   4.25000
 n  =  10.00000
 -D3 energy without 3body term =     -0.0767933745 hartrees
 ----------------------------------------------------------------
             Standard Nuclear Orientation (Angstroms)
    I     Atom           X                Y                Z
 ----------------------------------------------------------------
    1      O       3.3724286575    -3.0430492225    -0.0761735592
    2      C       3.0583150283    -1.8614225597    -0.0663097936
    3      C       4.0240123388    -0.6983667518    -0.1239525262
    4      C       3.4440899138     0.6792144132    -0.4842361051
    5      C       1.9370262439     0.7743984822    -0.5724902409
    6      O       1.5724213069     1.2308063185    -1.8070650067
    7      C       0.1578595948     1.1982461400    -2.0243245499
    8      C      -0.5717397667     1.7991049837    -0.8273410030
    9      O      -1.9901152996     1.7638969486    -1.0506240856
   10      C      -2.7586468886     1.9487562995     0.0513415262
   11      C      -3.9455952536     1.0165379898     0.1040202491
   12      C      -3.7158685001    -0.3607238292    -0.5352193735
   13      C      -2.2712154157    -0.7323796630    -0.8027145580
   14      O      -1.8010408856    -1.8575347985    -0.7159154567
   15      O       1.7779173922    -1.7358059561     0.3595483378
   16      O      -1.6311326209    -0.4048687257    -1.9983179156
   17      O      -2.3725737896     2.5693257015     1.0349763564
   18      C      -0.4090884672    -1.1944370491    -2.3067667622
   19      C      -4.4400089422     0.6064461173     1.5045709688
   20      C      -5.9113424281     0.1876110256     1.4129234444
   21      C      -5.7864567471    -1.1359690726     0.6875278924
   22      C      -4.2617808280    -1.2537921201     0.5946313574
   23      O      -3.7929351117    -0.6153579643     1.7574631514
   24      H      -4.7583704642     1.5630813416    -0.4247079945
   25      H      -4.2728289995    -0.5163300306    -1.4855174976
   26      H      -4.3135958516     1.3985018253     2.2728486280
   27      H      -6.2759094142    -0.0105351395     2.4454643678
   28      H      -6.5803136789     0.9288192557     0.9239702688
   29      H      -6.1973146961    -1.9381843429     1.3396813426
   30      H      -6.2700638230    -1.1797074751    -0.3136231908
   31      H      -3.9748284920    -2.3216665551     0.4728600839
   32      O       1.3214616118     0.6247178211     0.4638356075
   33      C       0.9074595245    -2.8293810371     0.4002131670
   34      C       4.6528423447    -0.3799364318     1.2458407684
   35      C       5.9719507590     0.3736488081     1.0459929562
   36      C       5.4596174780     1.7363497613     0.6262218905
   37      C       3.9500056432     1.5054105151     0.7149247800
   38      O       3.8151390519     0.6089536890     1.7924090010
   39      H       4.8254797191    -1.0063535544    -0.8327806343
   40      H       3.8817134030     1.0490012858    -1.4405318202
   41      H       1.2576544865    -3.6067392366     1.1085203641
   42      H       4.8165954713    -1.2868093852     1.8681382419
   43      H       6.4681571390     0.4749226609     2.0373816215
   44      H       6.6735700464    -0.1075648553     0.3306843919
   45      H       5.7632980485     2.4800631840     1.3970162149
   46      H       5.7824375642     2.0823441926    -0.3795009972
   47      H       3.4162647030     2.4763422741     0.8158202736
   48      H       0.8477206970    -3.2926010181    -0.6182819712
   49      H      -0.0935071837    -2.5116568250     0.7169910145
   50      H       0.2647982216    -1.1236225962    -1.3968517804
   51      H       0.2798753994    -1.0521277513    -3.1719690530
   52      H       0.2672682188    -1.1233985162    -1.3987872137
   53      H      -0.5497952008     1.2548288628     0.1071940814
   54      H      -0.2497706457     2.8510062859    -0.6325354207
   55      H      -0.1562709744     0.9852548597    -3.0711616276
   56      H       0.0265600122     2.1285646327    -2.6205376627
 ----------------------------------------------------------------
 Molecular Point Group                 C1    NOp =  1
 Largest Abelian Subgroup              C1    NOp =  1
 Nuclear Repulsion Energy =  3531.4607890838 hartrees
 There are      113 alpha and      113 beta electrons
 Applying Cartesian multipole field
    Component          Value
    ---------          -----
     (2,0,0)        1.00000E-12
     (0,2,0)        2.00000E-11
     (0,0,2)       -3.00000E-11
 Nucleus-field energy     =     0.0000000123 hartrees
 Requested basis set is STO-3G
 There are 86 shells and 176 basis functions
 A cutoff of  1.0D-12 yielded   2383 shell pairs
 There are     11302 function pairs
 Smallest overlap matrix eigenvalue = 8.06E-06
 Guess MOs from SCF MO coefficient file
 Reading MOs from coefficient file
 Reading MOs from coefficient file
 A restricted hybrid HF-DFT SCF calculation will be
 performed using Pulay DIIS extrapolation
 Exchange:     0.2000 Hartree-Fock + 0.0800 Slater + 0.7200 B88
 Correlation:  0.1900 VWN1RPA + 0.8100 LYP
 Using SG-1 standard quadrature grid
 Dispersion:   Grimme D3
 SCF converges when DIIS error is below 1.0E-08
 Geometry optimization detected.  Setting ReadMinima to 0
 Setting SaveMinima to 0
 using 48 threads for integral computing
 -------------------------------------------------------
 OpenMP Integral computing Module                
 Release: version 1.0, May 2013, Q-Chem Inc. Pittsburgh 
 -------------------------------------------------------
 -------------------------------------------------------
 OpenMP BLAS3 based DFT computing Module                
 Release: version 1.0, May 2013, Q-Chem Inc. Pittsburgh 
 -------------------------------------------------------
 ---------------------------------------
  Cycle       Energy         DIIS Error
 ---------------------------------------
    1   -1342.7605040369      2.22E-09
    2   -1342.7605040369      2.81E-09 Convergence criterion met
 ---------------------------------------
 SCF time:  CPU 15.84 s  wall 0.33 s
 SCF   energy in the final basis set = -1342.76050404
 Total energy in the final basis set = -1342.76050404
 
 --------------------------------------------------------------
 
                    Orbital Energies (a.u.)
 --------------------------------------------------------------
 
 Alpha MOs
 -- Occupied --
-18.965 -18.933 -18.917 -18.917 -18.903 -18.901 -18.878 -18.871
-18.852 -18.839 -10.115 -10.113 -10.101 -10.098 -10.091 -10.072
-10.071 -10.070 -10.068 -10.068 -10.057 -10.055 -10.046 -10.041
-10.031 -10.020 -10.018 -10.018 -10.017  -9.971  -1.062  -1.053
 -1.045  -1.040  -1.029  -1.024  -0.973  -0.963  -0.955  -0.924
 -0.889  -0.790  -0.784  -0.757  -0.744  -0.738  -0.725  -0.720
 -0.665  -0.655  -0.618  -0.609  -0.576  -0.559  -0.546  -0.540
 -0.533  -0.528  -0.519  -0.498  -0.487  -0.481  -0.474  -0.459
 -0.455  -0.454  -0.447  -0.443  -0.436  -0.418  -0.411  -0.408
 -0.399  -0.397  -0.392  -0.383  -0.374  -0.369  -0.361  -0.355
 -0.353  -0.346  -0.343  -0.335  -0.331  -0.324  -0.319  -0.313
 -0.311  -0.308  -0.308  -0.302  -0.299  -0.289  -0.281  -0.274
 -0.270  -0.256  -0.242  -0.236  -0.234  -0.219  -0.190  -0.182
 -0.169  -0.160  -0.159  -0.154  -0.152  -0.142  -0.122  -0.101
 -0.048
 -- Virtual --
  0.070   0.095   0.104   0.116   0.144   0.208   0.217   0.225
  0.256   0.264   0.274   0.303   0.324   0.328   0.331   0.340
  0.347   0.360   0.365   0.376   0.379   0.384   0.388   0.391
  0.396   0.399   0.403   0.408   0.412   0.419   0.429   0.431
  0.436   0.441   0.445   0.447   0.449   0.453   0.456   0.459
  0.463   0.466   0.472   0.482   0.485   0.486   0.488   0.495
  0.496   0.502   0.515   0.517   0.531   0.550   0.562   0.569
  0.578   0.590   0.678   0.689   0.702   0.721   1.582
 --------------------------------------------------------------
 
          Ground-State Mulliken Net Atomic Charges

     Atom                 Charge (a.u.)
  ----------------------------------------
      1 O                    -0.243100
      2 C                     0.221874
      3 C                    -0.079649
      4 C                    -0.084047
      5 C                     0.227779
      6 O                    -0.182738
      7 C                    -0.096973
      8 C                    -0.036959
      9 O                    -0.202675
     10 C                     0.229327
     11 C                    -0.084404
     12 C                    -0.073261
     13 C                     0.200248
     14 O                    -0.204651
     15 O                    -0.208818
     16 O                    -0.175085
     17 O                    -0.221895
     18 C                    -0.110306
     19 C                     0.038880
     20 C                    -0.141678
     21 C                    -0.143615
     22 C                     0.040386
     23 O                    -0.209440
     24 H                     0.084740
     25 H                     0.096786
     26 H                     0.094726
     27 H                     0.076974
     28 H                     0.072455
     29 H                     0.078232
     30 H                     0.072369
     31 H                     0.094589
     32 O                    -0.208517
     33 C                    -0.105900
     34 C                     0.041809
     35 C                    -0.141871
     36 C                    -0.143812
     37 C                     0.041737
     38 O                    -0.202827
     39 H                     0.092229
     40 H                     0.076437
     41 H                     0.085988
     42 H                     0.089083
     43 H                     0.077066
     44 H                     0.072982
     45 H                     0.076211
     46 H                     0.071931
     47 H                     0.081795
     48 H                     0.088658
     49 H                     0.107049
     50 H                     1.767228
     51 H                     0.093109
     52 H                    -1.637088
     53 H                     0.117787
     54 H                     0.089138
     55 H                     0.144257
     56 H                     0.095453
  ----------------------------------------
  Sum of atomic charges =    -0.000000

 -----------------------------------------------------------------
                    Cartesian Multipole Moments
 -----------------------------------------------------------------
    Charge (ESU x 10^10)
                -0.0000
    Dipole Moment (Debye)
         X      -0.5485      Y       2.9144      Z      -3.0054
       Tot       4.2222
    Quadrupole Moments (Debye-Ang)
        XX    -135.6262     XY       6.1872     YY    -169.2444
        XZ      -1.8081     YZ      -7.8190     ZZ    -162.3505
    Octopole Moments (Debye-Ang^2)
       XXX     -37.3858    XXY      24.1732    XYY     -12.7617
       YYY      26.3680    XXZ       0.1153    XYZ       3.3742
       YYZ       5.8934    XZZ       8.0259    YZZ       2.9323
       ZZZ     -23.1996
    Hexadecapole Moments (Debye-Ang^3)
      XXXX  -11407.7235   XXXY      38.7561   XXYY   -2483.5289
      XYYY      78.0391   YYYY   -2316.5008   XXXZ      33.2452
      XXYZ      -8.2457   XYYZ      27.6303   YYYZ     -66.8525
      XXZZ   -2261.3928   XYZZ     -40.6105   YYZZ    -617.0048
      XZZZ      -5.3905   YZZZ     -30.6445   ZZZZ   -1367.0617
 -----------------------------------------------------------------
 Calculating analytic gradient of the SCF energy
 Gradient of SCF Energy
            1           2           3           4           5           6
    1  -0.0674713   0.0035332  -0.0062295  -0.0356086  -0.0539111  -0.0212546
    2   0.0807959   0.0376822   0.0040234  -0.0177065   0.0032916   0.0105561
    3   0.0290688  -0.0191350   0.0344771   0.0589908  -0.0102060   0.0420972
            7           8           9          10          11          12
    1   0.0072804   0.0402031   0.0280499  -0.0080103   0.0463862   0.0156996
    2  -0.1120917  -0.0078025   0.0033684   0.0137072  -0.0277960  -0.0147534
    3   0.0639209  -0.0394164   0.0873663  -0.0362702   0.0462182   0.0292438
           13          14          15          16          17          18
    1  -0.0102375  -0.0094460   0.0591638  -0.0601254  -0.0170812   0.2300611
    2   0.0448598   0.1451911  -0.1296056  -0.1355865  -0.0405331   0.0914463
    3   0.0565434  -0.1588414  -0.0211708   0.1241258  -0.0465682   0.2262966
           19          20          21          22          23          24
    1   0.0146973   0.0428478   0.0346583   0.0018026  -0.0519243   0.0010405
    2  -0.0666383  -0.0237957   0.0281886   0.0668281   0.0270900   0.0074506
    3  -0.0222560  -0.0178769   0.0170297   0.0341204  -0.0629421  -0.0010429
           25          26          27          28          29          30
    1  -0.0023612  -0.0124131   0.0005243  -0.0060504  -0.0036485  -0.0011654
    2  -0.0050473   0.0062492  -0.0078666   0.0046500  -0.0010905  -0.0004439
    3  -0.0032220  -0.0009399   0.0077557  -0.0041907   0.0119627  -0.0092935
           31          32          33          34          35          36
    1  -0.0115764   0.0605498  -0.0024207  -0.0321841  -0.0490783  -0.0249612
    2  -0.0057186   0.0097126   0.0563197   0.0598985   0.0154323  -0.0401494
    3  -0.0076926  -0.0539275   0.0153438  -0.0145824  -0.0062147   0.0120221
           37          38          39          40          41          42
    1   0.0180654   0.0451828   0.0072711   0.0019197  -0.0009014   0.0111375
    2  -0.0632211  -0.0034961  -0.0017620   0.0027297   0.0046622  -0.0052797
    3   0.0231514  -0.0733551  -0.0025002  -0.0064207  -0.0009058  -0.0045699
           43          44          45          46          47          48
    1  -0.0003369   0.0054861   0.0031704   0.0003706   0.0054081   0.0059520
    2   0.0066667  -0.0029140   0.0001513   0.0025259   0.0086032   0.0016930
    3   0.0095930  -0.0054707   0.0120740  -0.0080607  -0.0093917  -0.0071141
           49          50          51          52          53          54
    1   0.006516522214.7718445   0.0077634-22214.9397749  -0.0321483  -0.0076766
    2  -0.01083122016.2986550  -0.0237479-2016.3292209   0.0124661   0.0055809
    3   0.0018316-17407.0281823  -0.023161417406.8114831  -0.0185342   0.0014638
           55          56
    1   0.0139284  -0.0225175
    2   0.0815114  -0.0648887
    3  -0.0186853  -0.0140390
 Max gradient component =       2.221E+04
 RMS gradient           =       3.087E+03
 Gradient time:  CPU 33.59 s  wall 0.71 s
 Geometry Optimization Parameters
   NAtoms,    NIC,     NZ,  NCons,   NDum,   NFix, NCnnct, MaxDiis
       56     465       0       9       0       0       0       0

 Cartesian Hessian Update
 Hessian Updated using BFGS Update
**WARNING** Hereditary positive definiteness endangered
**WARNING** Small Scalar Product
 Hessian Update Skipped this cycle


** CONSTRAINED OPTIMIZATION IN DELOCALIZED INTERNAL COORDINATES **
   Searching for a Minimum

   Optimization Cycle:   2

                       Coordinates (Angstroms)
     ATOM                X               Y               Z
      1  O         3.3724286575   -3.0430492225   -0.0761735592
      2  C         3.0583150283   -1.8614225597   -0.0663097936
      3  C         4.0240123388   -0.6983667518   -0.1239525262
      4  C         3.4440899138    0.6792144132   -0.4842361051
      5  C         1.9370262439    0.7743984822   -0.5724902409
      6  O         1.5724213069    1.2308063185   -1.8070650067
      7  C         0.1578595948    1.1982461400   -2.0243245499
      8  C        -0.5717397667    1.7991049837   -0.8273410030
      9  O        -1.9901152996    1.7638969486   -1.0506240856
     10  C        -2.7586468886    1.9487562995    0.0513415262
     11  C        -3.9455952536    1.0165379898    0.1040202491
     12  C        -3.7158685001   -0.3607238292   -0.5352193735
     13  C        -2.2712154157   -0.7323796630   -0.8027145580
     14  O        -1.8010408856   -1.8575347985   -0.7159154567
     15  O         1.7779173922   -1.7358059561    0.3595483378
     16  O        -1.6311326209   -0.4048687257   -1.9983179156
     17  O        -2.3725737896    2.5693257015    1.0349763564
     18  C        -0.4090884672   -1.1944370491   -2.3067667622
     19  C        -4.4400089422    0.6064461173    1.5045709688
     20  C        -5.9113424281    0.1876110256    1.4129234444
     21  C        -5.7864567471   -1.1359690726    0.6875278924
     22  C        -4.2617808280   -1.2537921201    0.5946313574
     23  O        -3.7929351117   -0.6153579643    1.7574631514
     24  H        -4.7583704642    1.5630813416   -0.4247079945
     25  H        -4.2728289995   -0.5163300306   -1.4855174976
     26  H        -4.3135958516    1.3985018253    2.2728486280
     27  H        -6.2759094142   -0.0105351395    2.4454643678
     28  H        -6.5803136789    0.9288192557    0.9239702688
     29  H        -6.1973146961   -1.9381843429    1.3396813426
     30  H        -6.2700638230   -1.1797074751   -0.3136231908
     31  H        -3.9748284920   -2.3216665551    0.4728600839
     32  O         1.3214616118    0.6247178211    0.4638356075
     33  C         0.9074595245   -2.8293810371    0.4002131670
     34  C         4.6528423447   -0.3799364318    1.2458407684
     35  C         5.9719507590    0.3736488081    1.0459929562
     36  C         5.4596174780    1.7363497613    0.6262218905
     37  C         3.9500056432    1.5054105151    0.7149247800
     38  O         3.8151390519    0.6089536890    1.7924090010
     39  H         4.8254797191   -1.0063535544   -0.8327806343
     40  H         3.8817134030    1.0490012858   -1.4405318202
     41  H         1.2576544865   -3.6067392366    1.1085203641
     42  H         4.8165954713   -1.2868093852    1.8681382419
     43  H         6.4681571390    0.4749226609    2.0373816215
     44  H         6.6735700464   -0.1075648553    0.3306843919
     45  H         5.7632980485    2.4800631840    1.3970162149
     46  H         5.7824375642    2.0823441926   -0.3795009972
     47  H         3.4162647030    2.4763422741    0.8158202736
     48  H         0.8477206970   -3.2926010181   -0.6182819712
     49  H        -0.0935071837   -2.5116568250    0.7169910145
     50  H         0.2647982216   -1.1236225962   -1.3968517804
     51  H         0.2798753994   -1.0521277513   -3.1719690530
     52  H         0.2672682188   -1.1233985162   -1.3987872137
     53  H        -0.5497952008    1.2548288628    0.1071940814
     54  H        -0.2497706457    2.8510062859   -0.6325354207
     55  H        -0.1562709744    0.9852548597   -3.0711616276
     56  H         0.0265600122    2.1285646327   -2.6205376627
   Point Group: c1    Number of degrees of freedom:   162


   Energy is  -1342.760504037

              Constraints and their Current Values
                                        Value     Constraint
   Dihedral:        1   2   3   4      163.756      163.756
   Dihedral:        3   4   5   6     -123.158     -123.158
   Dihedral:        4   5   6   7      173.022      173.022
   Dihedral:        5   6   7   8       47.269       47.269
   Dihedral:        6   7   8   9      180.000     -180.000
   Dihedral:        7   8   9  10      164.020      164.020
   Dihedral:        8   9  10  11     -138.044     -138.045
   Dihedral:        9  10  11  12       31.839       31.840
   Dihedral:       11  12  13  14      144.995      144.996
 Hessian Updated using BFGS Update
**WARNING** Hereditary positive definiteness endangered
**WARNING** Small Scalar Product
 Hessian Update Skipped this cycle

   Using Lagrange Multiplier Algorithm


169 Hessian modes will be used to form the next step
  Hessian Eigenvalues:
    -0.977753   -0.977753   -0.977753   -0.977753   -0.977753   -0.977753
    -0.977753   -0.977753    0.045000    0.045000    0.045000    0.045000
     0.045000    0.045549    0.045565    0.045582    0.046105    0.046143
     0.048872    0.048874    0.050112    0.053306    0.060004    0.060022
     0.062306    0.062616    0.063496    0.067019    0.067198    0.067432
     0.068149    0.070668    0.070871    0.071914    0.073656    0.074665
     0.075813    0.075971    0.077079    0.077273    0.078264    0.082338
     0.082449    0.083717    0.084125    0.084392    0.084403    0.085378
     0.085671    0.085779    0.086693    0.086721    0.088334    0.088400
     0.089062    0.089365    0.089711    0.089765    0.093262    0.093714
     0.096483    0.096602    0.111566    0.111605    0.113587    0.114979
     0.117634    0.117695    0.118583    0.118716    0.119092    0.124800
     0.128783    0.131498    0.131617    0.139111    0.140180    0.141954
     0.155197    0.160000    0.160000    0.160000    0.160000    0.160001
     0.171788    0.172014    0.172657    0.173831    0.218793    0.219012
     0.223004    0.239571    0.240515    0.243138    0.245048    0.246094
     0.250000    0.250000    0.250000    0.250000    0.250000    0.250000
     0.250000    0.250000    0.258359    0.259279    0.266231    0.266994
     0.278593    0.278735    0.284377    0.284851    0.293964    0.294889
     0.298749    0.301413    0.308053    0.310698    0.310863    0.313321
     0.315152    0.318507    0.320636    0.320980    0.322309    0.322434
     0.322522    0.322582    0.322799    0.323059    0.323111    0.323162
     0.323315    0.323367    0.323429    0.323448    0.323918    0.324155
     0.324384    0.324431    0.325294    0.327666    0.337512    0.340251
     0.357898    0.368263    0.369664    0.383231    0.384787    0.401009
     0.407718    0.459026    0.464342    0.517915    0.537335    0.539308
     0.930142    0.941950    0.942723    0.978084    1.022753    1.022753
     1.022753    1.022753    1.022753    1.022753    1.022753    1.022753
    71.636631
**WARNING** Magnitude of eigenvalue 169 too large.  Replaced by    25.000000

 Minimum Search - Taking P-RFO Step
 Searching for Lamda that Maximizes Along the Constraint modes Only
 Value Taken    Lamda =   0.05811497


 ********************************************
 ** ERROR IN DETERMINING Lamda IN CONFormD **
 ********************************************


 ** Scaling Hessian by  2.582888 **


169 Hessian modes will be used to form the next step
  Hessian Eigenvalues:
    -0.977753   -0.977753   -0.943572   -0.943572   -0.943572   -0.943572
    -0.943572   -0.943572    0.116230    0.116230    0.116230    0.116230
     0.116230    0.117649    0.117690    0.117732    0.119084    0.119183
     0.126232    0.126236    0.129434    0.137684    0.154983    0.155030
     0.160929    0.161730    0.164003    0.173102    0.173564    0.174168
     0.176022    0.182528    0.183051    0.185746    0.190245    0.192851
     0.195817    0.196225    0.199087    0.199587    0.202148    0.212670
     0.212955    0.216232    0.217285    0.217974    0.218004    0.220521
     0.221279    0.221557    0.223918    0.223990    0.228156    0.228326
     0.230038    0.230820    0.231712    0.231852    0.240886    0.242052
     0.249204    0.249511    0.288162    0.288264    0.293382    0.296978
     0.303835    0.303994    0.306286    0.306629    0.307600    0.322343
     0.332633    0.339645    0.339951    0.359307    0.362069    0.366650
     0.400857    0.413262    0.413262    0.413262    0.413262    0.413265
     0.443709    0.444292    0.445954    0.448985    0.565119    0.565683
     0.575995    0.618785    0.621222    0.627998    0.632932    0.635634
     0.645722    0.645722    0.645722    0.645722    0.645722    0.645722
     0.645722    0.645722    0.667312    0.669689    0.687646    0.689616
     0.719575    0.719942    0.734513    0.735739    0.759277    0.761665
     0.771634    0.778515    0.795667    0.802498    0.802924    0.809272
     0.814003    0.822667    0.828168    0.829056    0.832488    0.832812
     0.833039    0.833193    0.833753    0.834426    0.834559    0.834692
     0.835087    0.835220    0.835381    0.835431    0.836645    0.837255
     0.837847    0.837968    0.840198    0.846325    0.871756    0.878831
     0.924409    0.951181    0.954800    0.989843    0.993862    1.022753
     1.022753    1.035760    1.053091    1.059802    1.059802    1.059802
     1.059802    1.059802    1.059802    1.185612    1.199344    1.337717
     1.387875    1.392972    2.402453    2.432950    2.434949    2.526282
   185.029371
**WARNING** Magnitude of eigenvalue 169 too large.  Replaced by    25.000000

 Minimum Search - Taking P-RFO Step
 Searching for Lamda that Maximizes Along the Constraint modes Only
 Value Taken    Lamda =   0.05803679
 Searching for Lamda that Minimizes Along All other modes


 *******************************************
 ** UNABLE TO DETERMINE Lamda IN CONFormD **
 *******************************************



 New Cartesian Coordinates Obtained by Inverse Iteration

 Displacement from previous Coordinates is:  0.000000
 Adding empirical dispersion correction 
 ----------------------------------------------------------------
 Doing -D3(op) with
 s6 =   1.00000
 s8 =   0.78311
 a1 =   0.30000
 a2 =   4.25000
 n  =  10.00000
 -D3 energy without 3body term =     -0.0767933745 hartrees
 ----------------------------------------------------------------
             Standard Nuclear Orientation (Angstroms)
    I     Atom           X                Y                Z
 ----------------------------------------------------------------
    1      O       3.3724286575    -3.0430492225    -0.0761735592
    2      C       3.0583150283    -1.8614225597    -0.0663097936
    3      C       4.0240123388    -0.6983667518    -0.1239525262
    4      C       3.4440899138     0.6792144132    -0.4842361051
    5      C       1.9370262439     0.7743984822    -0.5724902409
    6      O       1.5724213069     1.2308063185    -1.8070650067
    7      C       0.1578595948     1.1982461400    -2.0243245499
    8      C      -0.5717397667     1.7991049837    -0.8273410030
    9      O      -1.9901152996     1.7638969486    -1.0506240856
   10      C      -2.7586468886     1.9487562995     0.0513415262
   11      C      -3.9455952536     1.0165379898     0.1040202491
   12      C      -3.7158685001    -0.3607238292    -0.5352193735
   13      C      -2.2712154157    -0.7323796630    -0.8027145580
   14      O      -1.8010408856    -1.8575347985    -0.7159154567
   15      O       1.7779173922    -1.7358059561     0.3595483378
   16      O      -1.6311326209    -0.4048687257    -1.9983179156
   17      O      -2.3725737896     2.5693257015     1.0349763564
   18      C      -0.4090884672    -1.1944370491    -2.3067667622
   19      C      -4.4400089422     0.6064461173     1.5045709688
   20      C      -5.9113424281     0.1876110256     1.4129234444
   21      C      -5.7864567471    -1.1359690726     0.6875278924
   22      C      -4.2617808280    -1.2537921201     0.5946313574
   23      O      -3.7929351117    -0.6153579643     1.7574631514
   24      H      -4.7583704642     1.5630813416    -0.4247079945
   25      H      -4.2728289995    -0.5163300306    -1.4855174976
   26      H      -4.3135958516     1.3985018253     2.2728486280
   27      H      -6.2759094142    -0.0105351395     2.4454643678
   28      H      -6.5803136789     0.9288192557     0.9239702688
   29      H      -6.1973146961    -1.9381843429     1.3396813426
   30      H      -6.2700638230    -1.1797074751    -0.3136231908
   31      H      -3.9748284920    -2.3216665551     0.4728600839
   32      O       1.3214616118     0.6247178211     0.4638356075
   33      C       0.9074595245    -2.8293810371     0.4002131670
   34      C       4.6528423447    -0.3799364318     1.2458407684
   35      C       5.9719507590     0.3736488081     1.0459929562
   36      C       5.4596174780     1.7363497613     0.6262218905
   37      C       3.9500056432     1.5054105151     0.7149247800
   38      O       3.8151390519     0.6089536890     1.7924090010
   39      H       4.8254797191    -1.0063535544    -0.8327806343
   40      H       3.8817134030     1.0490012858    -1.4405318202
   41      H       1.2576544865    -3.6067392366     1.1085203641
   42      H       4.8165954713    -1.2868093852     1.8681382419
   43      H       6.4681571390     0.4749226609     2.0373816215
   44      H       6.6735700464    -0.1075648553     0.3306843919
   45      H       5.7632980485     2.4800631840     1.3970162149
   46      H       5.7824375642     2.0823441926    -0.3795009972
   47      H       3.4162647030     2.4763422741     0.8158202736
   48      H       0.8477206970    -3.2926010181    -0.6182819712
   49      H      -0.0935071837    -2.5116568250     0.7169910145
   50      H       0.2647982216    -1.1236225962    -1.3968517804
   51      H       0.2798753994    -1.0521277513    -3.1719690530
   52      H       0.2672682188    -1.1233985162    -1.3987872137
   53      H      -0.5497952008     1.2548288628     0.1071940814
   54      H      -0.2497706457     2.8510062859    -0.6325354207
   55      H      -0.1562709744     0.9852548597    -3.0711616276
   56      H       0.0265600122     2.1285646327    -2.6205376627
 ----------------------------------------------------------------
 Molecular Point Group                 C1    NOp =  1
 Largest Abelian Subgroup              C1    NOp =  1
 Nuclear Repulsion Energy =  3531.4607890838 hartrees
 There are      113 alpha and      113 beta electrons
 Applying Cartesian multipole field
    Component          Value
    ---------          -----
     (2,0,0)        1.00000E-12
     (0,2,0)        2.00000E-11
     (0,0,2)       -3.00000E-11
 Nucleus-field energy     =     0.0000000123 hartrees
 Requested basis set is STO-3G
 There are 86 shells and 176 basis functions
 A cutoff of  1.0D-12 yielded   2383 shell pairs
 There are     11302 function pairs
 Smallest overlap matrix eigenvalue = 8.06E-06
 Guess MOs from SCF MO coefficient file
 Reading MOs from coefficient file
 Reading MOs from coefficient file
 A restricted hybrid HF-DFT SCF calculation will be
 performed using Pulay DIIS extrapolation
 Exchange:     0.2000 Hartree-Fock + 0.0800 Slater + 0.7200 B88
 Correlation:  0.1900 VWN1RPA + 0.8100 LYP
 Using SG-1 standard quadrature grid
 Dispersion:   Grimme D3
 SCF converges when DIIS error is below 1.0E-08
 Geometry optimization detected.  Setting ReadMinima to 0
 Setting SaveMinima to 0
 using 48 threads for integral computing
 -------------------------------------------------------
 OpenMP Integral computing Module                
 Release: version 1.0, May 2013, Q-Chem Inc. Pittsburgh 
 -------------------------------------------------------
 -------------------------------------------------------
 OpenMP BLAS3 based DFT computing Module                
 Release: version 1.0, May 2013, Q-Chem Inc. Pittsburgh 
 -------------------------------------------------------
 ---------------------------------------
  Cycle       Energy         DIIS Error
 ---------------------------------------
    1   -1342.7605040369      8.54E-10
    2   -1342.7605040369      1.94E-09 Convergence criterion met
 ---------------------------------------
 SCF time:  CPU 15.72 s  wall 0.33 s
 SCF   energy in the final basis set = -1342.76050404
 Total energy in the final basis set = -1342.76050404
 
 --------------------------------------------------------------
 
                    Orbital Energies (a.u.)
 --------------------------------------------------------------
 
 Alpha MOs
 -- Occupied --
-18.965 -18.933 -18.917 -18.917 -18.903 -18.901 -18.878 -18.871
-18.852 -18.839 -10.115 -10.113 -10.101 -10.098 -10.091 -10.072
-10.071 -10.070 -10.068 -10.068 -10.057 -10.055 -10.046 -10.041
-10.031 -10.020 -10.018 -10.018 -10.017  -9.971  -1.062  -1.053
 -1.045  -1.040  -1.029  -1.024  -0.973  -0.963  -0.955  -0.924
 -0.889  -0.790  -0.784  -0.757  -0.744  -0.738  -0.725  -0.720
 -0.665  -0.655  -0.618  -0.609  -0.576  -0.559  -0.546  -0.540
 -0.533  -0.528  -0.519  -0.498  -0.487  -0.481  -0.474  -0.459
 -0.455  -0.454  -0.447  -0.443  -0.436  -0.418  -0.411  -0.408
 -0.399  -0.397  -0.392  -0.383  -0.374  -0.369  -0.361  -0.355
 -0.353  -0.346  -0.343  -0.335  -0.331  -0.324  -0.319  -0.313
 -0.311  -0.308  -0.308  -0.302  -0.299  -0.289  -0.281  -0.274
 -0.270  -0.256  -0.242  -0.236  -0.234  -0.219  -0.190  -0.182
 -0.169  -0.160  -0.159  -0.154  -0.152  -0.142  -0.122  -0.101
 -0.048
 -- Virtual --
  0.070   0.095   0.104   0.116   0.144   0.208   0.217   0.225
  0.256   0.264   0.274   0.303   0.324   0.328   0.331   0.340
  0.347   0.360   0.365   0.376   0.379   0.384   0.388   0.391
  0.396   0.399   0.403   0.408   0.412   0.419   0.429   0.431
  0.436   0.441   0.445   0.447   0.449   0.453   0.456   0.459
  0.463   0.466   0.472   0.482   0.485   0.486   0.488   0.495
  0.496   0.502   0.515   0.517   0.531   0.550   0.562   0.569
  0.578   0.590   0.678   0.689   0.702   0.721   1.582
 --------------------------------------------------------------
 
          Ground-State Mulliken Net Atomic Charges

     Atom                 Charge (a.u.)
  ----------------------------------------
      1 O                    -0.243100
      2 C                     0.221874
      3 C                    -0.079649
      4 C                    -0.084047
      5 C                     0.227779
      6 O                    -0.182738
      7 C                    -0.096973
      8 C                    -0.036959
      9 O                    -0.202675
     10 C                     0.229327
     11 C                    -0.084404
     12 C                    -0.073261
     13 C                     0.200248
     14 O                    -0.204651
     15 O                    -0.208818
     16 O                    -0.175085
     17 O                    -0.221895
     18 C                    -0.110306
     19 C                     0.038880
     20 C                    -0.141678
     21 C                    -0.143615
     22 C                     0.040386
     23 O                    -0.209440
     24 H                     0.084740
     25 H                     0.096786
     26 H                     0.094726
     27 H                     0.076974
     28 H                     0.072455
     29 H                     0.078232
     30 H                     0.072369
     31 H                     0.094589
     32 O                    -0.208517
     33 C                    -0.105900
     34 C                     0.041809
     35 C                    -0.141871
     36 C                    -0.143812
     37 C                     0.041737
     38 O                    -0.202827
     39 H                     0.092229
     40 H                     0.076437
     41 H                     0.085988
     42 H                     0.089083
     43 H                     0.077066
     44 H                     0.072982
     45 H                     0.076211
     46 H                     0.071931
     47 H                     0.081795
     48 H                     0.088658
     49 H                     0.107049
     50 H                     1.767228
     51 H                     0.093109
     52 H                    -1.637088
     53 H                     0.117787
     54 H                     0.089138
     55 H                     0.144257
     56 H                     0.095453
  ----------------------------------------
  Sum of atomic charges =    -0.000000

 -----------------------------------------------------------------
                    Cartesian Multipole Moments
 -----------------------------------------------------------------
    Charge (ESU x 10^10)
                -0.0000
    Dipole Moment (Debye)
         X      -0.5485      Y       2.9144      Z      -3.0054
       Tot       4.2222
    Quadrupole Moments (Debye-Ang)
        XX    -135.6262     XY       6.1872     YY    -169.2444
        XZ      -1.8081     YZ      -7.8190     ZZ    -162.3505
    Octopole Moments (Debye-Ang^2)
       XXX     -37.3858    XXY      24.1732    XYY     -12.7617
       YYY      26.3680    XXZ       0.1153    XYZ       3.3742
       YYZ       5.8934    XZZ       8.0259    YZZ       2.9323
       ZZZ     -23.1996
    Hexadecapole Moments (Debye-Ang^3)
      XXXX  -11407.7235   XXXY      38.7561   XXYY   -2483.5289
      XYYY      78.0391   YYYY   -2316.5008   XXXZ      33.2452
      XXYZ      -8.2457   XYYZ      27.6303   YYYZ     -66.8525
      XXZZ   -2261.3928   XYZZ     -40.6105   YYZZ    -617.0048
      XZZZ      -5.3905   YZZZ     -30.6445   ZZZZ   -1367.0617
 -----------------------------------------------------------------
 Calculating analytic gradient of the SCF energy
 Gradient of SCF Energy
            1           2           3           4           5           6
    1  -0.0674713   0.0035332  -0.0062295  -0.0356086  -0.0539111  -0.0212546
    2   0.0807959   0.0376822   0.0040234  -0.0177065   0.0032916   0.0105561
    3   0.0290688  -0.0191350   0.0344771   0.0589908  -0.0102060   0.0420972
            7           8           9          10          11          12
    1   0.0072804   0.0402031   0.0280499  -0.0080103   0.0463862   0.0156996
    2  -0.1120917  -0.0078025   0.0033684   0.0137072  -0.0277960  -0.0147534
    3   0.0639209  -0.0394164   0.0873663  -0.0362703   0.0462182   0.0292439
           13          14          15          16          17          18
    1  -0.0102375  -0.0094460   0.0591638  -0.0601254  -0.0170812   0.2300611
    2   0.0448598   0.1451911  -0.1296056  -0.1355865  -0.0405331   0.0914463
    3   0.0565434  -0.1588414  -0.0211708   0.1241258  -0.0465682   0.2262966
           19          20          21          22          23          24
    1   0.0146973   0.0428478   0.0346583   0.0018026  -0.0519243   0.0010405
    2  -0.0666383  -0.0237957   0.0281886   0.0668281   0.0270900   0.0074506
    3  -0.0222560  -0.0178769   0.0170297   0.0341204  -0.0629421  -0.0010429
           25          26          27          28          29          30
    1  -0.0023612  -0.0124131   0.0005243  -0.0060504  -0.0036485  -0.0011654
    2  -0.0050473   0.0062492  -0.0078666   0.0046500  -0.0010905  -0.0004439
    3  -0.0032220  -0.0009399   0.0077557  -0.0041907   0.0119627  -0.0092935
           31          32          33          34          35          36
    1  -0.0115764   0.0605498  -0.0024207  -0.0321841  -0.0490783  -0.0249612
    2  -0.0057186   0.0097126   0.0563197   0.0598985   0.0154323  -0.0401494
    3  -0.0076926  -0.0539275   0.0153438  -0.0145824  -0.0062147   0.0120221
           37          38          39          40          41          42
    1   0.0180654   0.0451828   0.0072711   0.0019197  -0.0009014   0.0111375
    2  -0.0632211  -0.0034961  -0.0017620   0.0027297   0.0046622  -0.0052797
    3   0.0231514  -0.0733551  -0.0025002  -0.0064207  -0.0009058  -0.0045699
           43          44          45          46          47          48
    1  -0.0003369   0.0054861   0.0031704   0.0003706   0.0054081   0.0059520
    2   0.0066667  -0.0029140   0.0001513   0.0025259   0.0086032   0.0016930
    3   0.0095930  -0.0054707   0.0120740  -0.0080607  -0.0093917  -0.0071141
           49          50          51          52          53          54
    1   0.006516522214.7718445   0.0077634-22214.9397749  -0.0321483  -0.0076766
    2  -0.01083122016.2986550  -0.0237479-2016.3292209   0.0124661   0.0055809
    3   0.0018316-17407.0281823  -0.023161417406.8114831  -0.0185342   0.0014638
           55          56
    1   0.0139284  -0.0225175
    2   0.0815114  -0.0648887
    3  -0.0186853  -0.0140390
 Max gradient component =       2.221E+04
 RMS gradient           =       3.087E+03
 Gradient time:  CPU 31.70 s  wall 0.66 s
 Geometry Optimization Parameters
   NAtoms,    NIC,     NZ,  NCons,   NDum,   NFix, NCnnct, MaxDiis
       56     465       0       9       0       0       0       0

 Cartesian Hessian Update
 Hessian Updated using BFGS Update
**WARNING** Hereditary positive definiteness endangered
**WARNING** Small Scalar Product
 Hessian Update Skipped this cycle


** CONSTRAINED OPTIMIZATION IN DELOCALIZED INTERNAL COORDINATES **
   Searching for a Minimum

   Optimization Cycle:   3

                       Coordinates (Angstroms)
     ATOM                X               Y               Z
      1  O         3.3724286575   -3.0430492225   -0.0761735592
      2  C         3.0583150283   -1.8614225597   -0.0663097936
      3  C         4.0240123388   -0.6983667518   -0.1239525262
      4  C         3.4440899138    0.6792144132   -0.4842361051
      5  C         1.9370262439    0.7743984822   -0.5724902409
      6  O         1.5724213069    1.2308063185   -1.8070650067
      7  C         0.1578595948    1.1982461400   -2.0243245499
      8  C        -0.5717397667    1.7991049837   -0.8273410030
      9  O        -1.9901152996    1.7638969486   -1.0506240856
     10  C        -2.7586468886    1.9487562995    0.0513415262
     11  C        -3.9455952536    1.0165379898    0.1040202491
     12  C        -3.7158685001   -0.3607238292   -0.5352193735
     13  C        -2.2712154157   -0.7323796630   -0.8027145580
     14  O        -1.8010408856   -1.8575347985   -0.7159154567
     15  O         1.7779173922   -1.7358059561    0.3595483378
     16  O        -1.6311326209   -0.4048687257   -1.9983179156
     17  O        -2.3725737896    2.5693257015    1.0349763564
     18  C        -0.4090884672   -1.1944370491   -2.3067667622
     19  C        -4.4400089422    0.6064461173    1.5045709688
     20  C        -5.9113424281    0.1876110256    1.4129234444
     21  C        -5.7864567471   -1.1359690726    0.6875278924
     22  C        -4.2617808280   -1.2537921201    0.5946313574
     23  O        -3.7929351117   -0.6153579643    1.7574631514
     24  H        -4.7583704642    1.5630813416   -0.4247079945
     25  H        -4.2728289995   -0.5163300306   -1.4855174976
     26  H        -4.3135958516    1.3985018253    2.2728486280
     27  H        -6.2759094142   -0.0105351395    2.4454643678
     28  H        -6.5803136789    0.9288192557    0.9239702688
     29  H        -6.1973146961   -1.9381843429    1.3396813426
     30  H        -6.2700638230   -1.1797074751   -0.3136231908
     31  H        -3.9748284920   -2.3216665551    0.4728600839
     32  O         1.3214616118    0.6247178211    0.4638356075
     33  C         0.9074595245   -2.8293810371    0.4002131670
     34  C         4.6528423447   -0.3799364318    1.2458407684
     35  C         5.9719507590    0.3736488081    1.0459929562
     36  C         5.4596174780    1.7363497613    0.6262218905
     37  C         3.9500056432    1.5054105151    0.7149247800
     38  O         3.8151390519    0.6089536890    1.7924090010
     39  H         4.8254797191   -1.0063535544   -0.8327806343
     40  H         3.8817134030    1.0490012858   -1.4405318202
     41  H         1.2576544865   -3.6067392366    1.1085203641
     42  H         4.8165954713   -1.2868093852    1.8681382419
     43  H         6.4681571390    0.4749226609    2.0373816215
     44  H         6.6735700464   -0.1075648553    0.3306843919
     45  H         5.7632980485    2.4800631840    1.3970162149
     46  H         5.7824375642    2.0823441926   -0.3795009972
     47  H         3.4162647030    2.4763422741    0.8158202736
     48  H         0.8477206970   -3.2926010181   -0.6182819712
     49  H        -0.0935071837   -2.5116568250    0.7169910145
     50  H         0.2647982216   -1.1236225962   -1.3968517804
     51  H         0.2798753994   -1.0521277513   -3.1719690530
     52  H         0.2672682188   -1.1233985162   -1.3987872137
     53  H        -0.5497952008    1.2548288628    0.1071940814
     54  H        -0.2497706457    2.8510062859   -0.6325354207
     55  H        -0.1562709744    0.9852548597   -3.0711616276
     56  H         0.0265600122    2.1285646327   -2.6205376627
   Point Group: c1    Number of degrees of freedom:   162


   Energy is  -1342.760504037

              Constraints and their Current Values
                                        Value     Constraint
   Dihedral:        1   2   3   4      163.756      163.756
   Dihedral:        3   4   5   6     -123.158     -123.158
   Dihedral:        4   5   6   7      173.022      173.022
   Dihedral:        5   6   7   8       47.269       47.269
   Dihedral:        6   7   8   9      180.000     -180.000
   Dihedral:        7   8   9  10      164.020      164.020
   Dihedral:        8   9  10  11     -138.044     -138.045
   Dihedral:        9  10  11  12       31.839       31.840
   Dihedral:       11  12  13  14      144.995      144.996
 Hessian Updated using BFGS Update
**WARNING** Hereditary positive definiteness endangered
**WARNING** Small Scalar Product
 Hessian Update Skipped this cycle

   Using Lagrange Multiplier Algorithm


169 Hessian modes will be used to form the next step
  Hessian Eigenvalues:
    -0.977753   -0.977753   -0.977753   -0.977753   -0.977753   -0.977753
    -0.977753   -0.977753    0.045000    0.045000    0.045000    0.045000
     0.045000    0.045549    0.045565    0.045582    0.046105    0.046143
     0.048872    0.048874    0.050112    0.053306    0.060004    0.060022
     0.062306    0.062616    0.063496    0.067019    0.067198    0.067432
     0.068149    0.070668    0.070871    0.071914    0.073656    0.074665
     0.075813    0.075971    0.077079    0.077273    0.078264    0.082338
     0.082449    0.083717    0.084125    0.084392    0.084403    0.085378
     0.085671    0.085779    0.086693    0.086721    0.088334    0.088400
     0.089062    0.089365    0.089711    0.089765    0.093262    0.093714
[...]
     44 H                     0.072982
     45 H                     0.076211
     46 H                     0.071931
     47 H                     0.081795
     48 H                     0.088658
     49 H                     0.107049
     50 H                     1.767228
     51 H                     0.093109
     52 H                    -1.637088
     53 H                     0.117787
     54 H                     0.089138
     55 H                     0.144257
     56 H                     0.095453
  ----------------------------------------
  Sum of atomic charges =    -0.000000

 -----------------------------------------------------------------
                    Cartesian Multipole Moments
 -----------------------------------------------------------------
    Charge (ESU x 10^10)
                -0.0000
    Dipole Moment (Debye)
         X      -0.5485      Y       2.9144      Z      -3.0054
       Tot       4.2222
    Quadrupole Moments (Debye-Ang)
        XX    -135.6262     XY       6.1872     YY    -169.2444
        XZ      -1.8081     YZ      -7.8190     ZZ    -162.3505
    Octopole Moments (Debye-Ang^2)
       XXX     -37.3858    XXY      24.1732    XYY     -12.7617
       YYY      26.3680    XXZ       0.1153    XYZ       3.3742
       YYZ       5.8934    XZZ       8.0259    YZZ       2.9323
       ZZZ     -23.1996
    Hexadecapole Moments (Debye-Ang^3)
      XXXX  -11407.7235   XXXY      38.7561   XXYY   -2483.5289
      XYYY      78.0391   YYYY   -2316.5008   XXXZ      33.2452
      XXYZ      -8.2457   XYYZ      27.6303   YYYZ     -66.8525
      XXZZ   -2261.3928   XYZZ     -40.6105   YYZZ    -617.0048
      XZZZ      -5.3905   YZZZ     -30.6445   ZZZZ   -1367.0617
 -----------------------------------------------------------------
 Calculating analytic gradient of the SCF energy
 Gradient of SCF Energy
            1           2           3           4           5           6
    1  -0.0674713   0.0035332  -0.0062295  -0.0356086  -0.0539111  -0.0212546
    2   0.0807959   0.0376822   0.0040234  -0.0177065   0.0032916   0.0105561
    3   0.0290688  -0.0191350   0.0344771   0.0589908  -0.0102060   0.0420972
            7           8           9          10          11          12
    1   0.0072804   0.0402031   0.0280499  -0.0080103   0.0463862   0.0156996
    2  -0.1120917  -0.0078025   0.0033684   0.0137072  -0.0277960  -0.0147534
    3   0.0639209  -0.0394164   0.0873663  -0.0362703   0.0462182   0.0292439
           13          14          15          16          17          18
    1  -0.0102375  -0.0094460   0.0591638  -0.0601254  -0.0170812   0.2300611
    2   0.0448598   0.1451911  -0.1296056  -0.1355865  -0.0405331   0.0914463
    3   0.0565434  -0.1588414  -0.0211708   0.1241258  -0.0465682   0.2262966
           19          20          21          22          23          24
    1   0.0146973   0.0428478   0.0346583   0.0018026  -0.0519243   0.0010405
    2  -0.0666383  -0.0237957   0.0281886   0.0668281   0.0270900   0.0074506
    3  -0.0222560  -0.0178769   0.0170297   0.0341204  -0.0629421  -0.0010429
           25          26          27          28          29          30
    1  -0.0023612  -0.0124131   0.0005243  -0.0060504  -0.0036485  -0.0011654
    2  -0.0050473   0.0062492  -0.0078666   0.0046500  -0.0010905  -0.0004439
    3  -0.0032220  -0.0009399   0.0077557  -0.0041907   0.0119627  -0.0092935
           31          32          33          34          35          36
    1  -0.0115764   0.0605498  -0.0024207  -0.0321841  -0.0490783  -0.0249612
    2  -0.0057186   0.0097126   0.0563197   0.0598985   0.0154323  -0.0401494
    3  -0.0076926  -0.0539275   0.0153438  -0.0145824  -0.0062147   0.0120221
           37          38          39          40          41          42
    1   0.0180654   0.0451828   0.0072711   0.0019197  -0.0009014   0.0111375
    2  -0.0632211  -0.0034961  -0.0017620   0.0027297   0.0046622  -0.0052797
    3   0.0231514  -0.0733551  -0.0025002  -0.0064207  -0.0009058  -0.0045699
           43          44          45          46          47          48
    1  -0.0003369   0.0054861   0.0031704   0.0003706   0.0054081   0.0059520
    2   0.0066667  -0.0029140   0.0001513   0.0025259   0.0086032   0.0016930
    3   0.0095930  -0.0054707   0.0120740  -0.0080607  -0.0093917  -0.0071141
           49          50          51          52          53          54
    1   0.006516522214.7718445   0.0077634-22214.9397749  -0.0321483  -0.0076766
    2  -0.01083122016.2986550  -0.0237479-2016.3292209   0.0124661   0.0055809
    3   0.0018316-17407.0281823  -0.023161417406.8114831  -0.0185342   0.0014638
           55          56
    1   0.0139284  -0.0225175
    2   0.0815114  -0.0648887
    3  -0.0186853  -0.0140390
 Max gradient component =       2.221E+04
 RMS gradient           =       3.087E+03
 Gradient time:  CPU 32.87 s  wall 0.69 s
 Geometry Optimization Parameters
   NAtoms,    NIC,     NZ,  NCons,   NDum,   NFix, NCnnct, MaxDiis
       56     465       0       9       0       0       0       0

 Cartesian Hessian Update
 Hessian Updated using BFGS Update
**WARNING** Hereditary positive definiteness endangered
**WARNING** Small Scalar Product
 Hessian Update Skipped this cycle


** CONSTRAINED OPTIMIZATION IN DELOCALIZED INTERNAL COORDINATES **
   Searching for a Minimum

   Optimization Cycle: 100

                       Coordinates (Angstroms)
     ATOM                X               Y               Z
      1  O         3.3724286575   -3.0430492225   -0.0761735592
      2  C         3.0583150283   -1.8614225597   -0.0663097936
      3  C         4.0240123388   -0.6983667518   -0.1239525262
      4  C         3.4440899138    0.6792144132   -0.4842361051
      5  C         1.9370262439    0.7743984822   -0.5724902409
      6  O         1.5724213069    1.2308063185   -1.8070650067
      7  C         0.1578595948    1.1982461400   -2.0243245499
      8  C        -0.5717397667    1.7991049837   -0.8273410030
      9  O        -1.9901152996    1.7638969486   -1.0506240856
     10  C        -2.7586468886    1.9487562995    0.0513415262
     11  C        -3.9455952536    1.0165379898    0.1040202491
     12  C        -3.7158685001   -0.3607238292   -0.5352193735
     13  C        -2.2712154157   -0.7323796630   -0.8027145580
     14  O        -1.8010408856   -1.8575347985   -0.7159154567
     15  O         1.7779173922   -1.7358059561    0.3595483378
     16  O        -1.6311326209   -0.4048687257   -1.9983179156
     17  O        -2.3725737896    2.5693257015    1.0349763564
     18  C        -0.4090884672   -1.1944370491   -2.3067667622
     19  C        -4.4400089422    0.6064461173    1.5045709688
     20  C        -5.9113424281    0.1876110256    1.4129234444
     21  C        -5.7864567471   -1.1359690726    0.6875278924
     22  C        -4.2617808280   -1.2537921201    0.5946313574
     23  O        -3.7929351117   -0.6153579643    1.7574631514
     24  H        -4.7583704642    1.5630813416   -0.4247079945
     25  H        -4.2728289995   -0.5163300306   -1.4855174976
     26  H        -4.3135958516    1.3985018253    2.2728486280
     27  H        -6.2759094142   -0.0105351395    2.4454643678
     28  H        -6.5803136789    0.9288192557    0.9239702688
     29  H        -6.1973146961   -1.9381843429    1.3396813426
     30  H        -6.2700638230   -1.1797074751   -0.3136231908
     31  H        -3.9748284920   -2.3216665551    0.4728600839
     32  O         1.3214616118    0.6247178211    0.4638356075
     33  C         0.9074595245   -2.8293810371    0.4002131670
     34  C         4.6528423447   -0.3799364318    1.2458407684
     35  C         5.9719507590    0.3736488081    1.0459929562
     36  C         5.4596174780    1.7363497613    0.6262218905
     37  C         3.9500056432    1.5054105151    0.7149247800
     38  O         3.8151390519    0.6089536890    1.7924090010
     39  H         4.8254797191   -1.0063535544   -0.8327806343
     40  H         3.8817134030    1.0490012858   -1.4405318202
     41  H         1.2576544865   -3.6067392366    1.1085203641
     42  H         4.8165954713   -1.2868093852    1.8681382419
     43  H         6.4681571390    0.4749226609    2.0373816215
     44  H         6.6735700464   -0.1075648553    0.3306843919
     45  H         5.7632980485    2.4800631840    1.3970162149
     46  H         5.7824375642    2.0823441926   -0.3795009972
     47  H         3.4162647030    2.4763422741    0.8158202736
     48  H         0.8477206970   -3.2926010181   -0.6182819712
     49  H        -0.0935071837   -2.5116568250    0.7169910145
     50  H         0.2647982216   -1.1236225962   -1.3968517804
     51  H         0.2798753994   -1.0521277513   -3.1719690530
     52  H         0.2672682188   -1.1233985162   -1.3987872137
     53  H        -0.5497952008    1.2548288628    0.1071940814
     54  H        -0.2497706457    2.8510062859   -0.6325354207
     55  H        -0.1562709744    0.9852548597   -3.0711616276
     56  H         0.0265600122    2.1285646327   -2.6205376627
   Point Group: c1    Number of degrees of freedom:   162


   Energy is  -1342.760504037

              Constraints and their Current Values
                                        Value     Constraint
   Dihedral:        1   2   3   4      163.756      163.756
   Dihedral:        3   4   5   6     -123.158     -123.158
   Dihedral:        4   5   6   7      173.022      173.022
   Dihedral:        5   6   7   8       47.269       47.269
   Dihedral:        6   7   8   9      180.000     -180.000
   Dihedral:        7   8   9  10      164.020      164.020
   Dihedral:        8   9  10  11     -138.044     -138.045
   Dihedral:        9  10  11  12       31.839       31.840
   Dihedral:       11  12  13  14      144.995      144.996
 Hessian Updated using BFGS Update
**WARNING** Hereditary positive definiteness endangered
**WARNING** Small Scalar Product
 Hessian Update Skipped this cycle

   Using Lagrange Multiplier Algorithm


169 Hessian modes will be used to form the next step
  Hessian Eigenvalues:
    -0.977753   -0.977753   -0.977753   -0.977753   -0.977753   -0.977753
    -0.977753   -0.977753    0.045000    0.045000    0.045000    0.045000
     0.045000    0.045549    0.045565    0.045582    0.046105    0.046143
     0.048872    0.048874    0.050112    0.053306    0.060004    0.060022
     0.062306    0.062616    0.063496    0.067019    0.067198    0.067432
     0.068149    0.070668    0.070871    0.071914    0.073656    0.074665
     0.075813    0.075971    0.077079    0.077273    0.078264    0.082338
     0.082449    0.083717    0.084125    0.084392    0.084403    0.085378
     0.085671    0.085779    0.086693    0.086721    0.088334    0.088400
     0.089062    0.089365    0.089711    0.089765    0.093262    0.093714
     0.096483    0.096602    0.111566    0.111605    0.113587    0.114979
     0.117634    0.117695    0.118583    0.118716    0.119092    0.124800
     0.128783    0.131498    0.131617    0.139111    0.140180    0.141954
     0.155197    0.160000    0.160000    0.160000    0.160000    0.160001
     0.171788    0.172014    0.172657    0.173831    0.218793    0.219012
     0.223004    0.239571    0.240515    0.243138    0.245048    0.246094
     0.250000    0.250000    0.250000    0.250000    0.250000    0.250000
     0.250000    0.250000    0.258359    0.259279    0.266231    0.266994
     0.278593    0.278735    0.284377    0.284851    0.293964    0.294889
     0.298749    0.301413    0.308053    0.310698    0.310863    0.313321
     0.315152    0.318507    0.320636    0.320980    0.322309    0.322434
     0.322522    0.322582    0.322799    0.323059    0.323111    0.323162
     0.323315    0.323367    0.323429    0.323448    0.323918    0.324155
     0.324384    0.324431    0.325294    0.327666    0.337512    0.340251
     0.357898    0.368263    0.369664    0.383231    0.384787    0.401009
     0.407718    0.459026    0.464342    0.517915    0.537335    0.539308
     0.930142    0.941950    0.942723    0.978084    1.022753    1.022753
     1.022753    1.022753    1.022753    1.022753    1.022753    1.022753
    71.636631
**WARNING** Magnitude of eigenvalue 169 too large.  Replaced by    25.000000

 Minimum Search - Taking P-RFO Step
 Searching for Lamda that Maximizes Along the Constraint modes Only
 Value Taken    Lamda =   0.05811497


 ********************************************
 ** ERROR IN DETERMINING Lamda IN CONFormD **
 ********************************************


 ** Scaling Hessian by  2.582888 **


169 Hessian modes will be used to form the next step
  Hessian Eigenvalues:
    -0.977753   -0.977753   -0.943572   -0.943572   -0.943572   -0.943572
    -0.943572   -0.943572    0.116230    0.116230    0.116230    0.116230
     0.116230    0.117649    0.117690    0.117732    0.119084    0.119183
     0.126232    0.126236    0.129434    0.137684    0.154983    0.155030
     0.160929    0.161730    0.164003    0.173102    0.173564    0.174168
     0.176022    0.182528    0.183051    0.185746    0.190245    0.192851
     0.195817    0.196225    0.199087    0.199587    0.202148    0.212670
     0.212955    0.216232    0.217285    0.217974    0.218004    0.220521
     0.221279    0.221557    0.223918    0.223990    0.228156    0.228326
     0.230038    0.230820    0.231712    0.231852    0.240886    0.242052
     0.249204    0.249511    0.288162    0.288264    0.293381    0.296978
     0.303835    0.303994    0.306286    0.306629    0.307600    0.322343
     0.332633    0.339645    0.339951    0.359307    0.362069    0.366650
     0.400857    0.413262    0.413262    0.413262    0.413262    0.413265
     0.443709    0.444292    0.445954    0.448985    0.565119    0.565683
     0.575995    0.618785    0.621222    0.627998    0.632932    0.635634
     0.645722    0.645722    0.645722    0.645722    0.645722    0.645722
     0.645722    0.645722    0.667312    0.669689    0.687646    0.689616
     0.719575    0.719942    0.734513    0.735739    0.759277    0.761665
     0.771634    0.778515    0.795667    0.802498    0.802924    0.809272
     0.814003    0.822667    0.828168    0.829056    0.832488    0.832812
     0.833039    0.833193    0.833752    0.834426    0.834559    0.834692
     0.835087    0.835220    0.835381    0.835431    0.836645    0.837255
     0.837847    0.837968    0.840198    0.846325    0.871756    0.878831
     0.924409    0.951181    0.954800    0.989842    0.993862    1.022753
     1.022753    1.035760    1.053090    1.059802    1.059802    1.059802
     1.059802    1.059802    1.059802    1.185612    1.199344    1.337717
     1.387875    1.392972    2.402453    2.432950    2.434949    2.526282
   185.029365
**WARNING** Magnitude of eigenvalue 169 too large.  Replaced by    25.000000

 Minimum Search - Taking P-RFO Step
 Searching for Lamda that Maximizes Along the Constraint modes Only
 Value Taken    Lamda =   0.05803679
 Searching for Lamda that Minimizes Along All other modes


 *******************************************
 ** UNABLE TO DETERMINE Lamda IN CONFormD **
 *******************************************



 New Cartesian Coordinates Obtained by Inverse Iteration

 Displacement from previous Coordinates is:  0.000000
 Adding empirical dispersion correction 
 ----------------------------------------------------------------
 Doing -D3(op) with
 s6 =   1.00000
 s8 =   0.78311
 a1 =   0.30000
 a2 =   4.25000
 n  =  10.00000
 -D3 energy without 3body term =     -0.0767933745 hartrees
 ----------------------------------------------------------------
             Standard Nuclear Orientation (Angstroms)
    I     Atom           X                Y                Z
 ----------------------------------------------------------------
    1      O       3.3724286575    -3.0430492225    -0.0761735592
    2      C       3.0583150283    -1.8614225597    -0.0663097936
    3      C       4.0240123388    -0.6983667518    -0.1239525262
    4      C       3.4440899138     0.6792144132    -0.4842361051
    5      C       1.9370262439     0.7743984822    -0.5724902409
    6      O       1.5724213069     1.2308063185    -1.8070650067
    7      C       0.1578595948     1.1982461400    -2.0243245499
    8      C      -0.5717397667     1.7991049837    -0.8273410030
    9      O      -1.9901152996     1.7638969486    -1.0506240856
   10      C      -2.7586468886     1.9487562995     0.0513415262
   11      C      -3.9455952536     1.0165379898     0.1040202491
   12      C      -3.7158685001    -0.3607238292    -0.5352193735
   13      C      -2.2712154157    -0.7323796630    -0.8027145580
   14      O      -1.8010408856    -1.8575347985    -0.7159154567
   15      O       1.7779173922    -1.7358059561     0.3595483378
   16      O      -1.6311326209    -0.4048687257    -1.9983179156
   17      O      -2.3725737896     2.5693257015     1.0349763564
   18      C      -0.4090884672    -1.1944370491    -2.3067667622
   19      C      -4.4400089422     0.6064461173     1.5045709688
   20      C      -5.9113424281     0.1876110256     1.4129234444
   21      C      -5.7864567471    -1.1359690726     0.6875278924
   22      C      -4.2617808280    -1.2537921201     0.5946313574
   23      O      -3.7929351117    -0.6153579643     1.7574631514
   24      H      -4.7583704642     1.5630813416    -0.4247079945
   25      H      -4.2728289995    -0.5163300306    -1.4855174976
   26      H      -4.3135958516     1.3985018253     2.2728486280
   27      H      -6.2759094142    -0.0105351395     2.4454643678
   28      H      -6.5803136789     0.9288192557     0.9239702688
   29      H      -6.1973146961    -1.9381843429     1.3396813426
   30      H      -6.2700638230    -1.1797074751    -0.3136231908
   31      H      -3.9748284920    -2.3216665551     0.4728600839
   32      O       1.3214616118     0.6247178211     0.4638356075
   33      C       0.9074595245    -2.8293810371     0.4002131670
   34      C       4.6528423447    -0.3799364318     1.2458407684
   35      C       5.9719507590     0.3736488081     1.0459929562
   36      C       5.4596174780     1.7363497613     0.6262218905
   37      C       3.9500056432     1.5054105151     0.7149247800
   38      O       3.8151390519     0.6089536890     1.7924090010
   39      H       4.8254797191    -1.0063535544    -0.8327806343
   40      H       3.8817134030     1.0490012858    -1.4405318202
   41      H       1.2576544865    -3.6067392366     1.1085203641
   42      H       4.8165954713    -1.2868093852     1.8681382419
   43      H       6.4681571390     0.4749226609     2.0373816215
   44      H       6.6735700464    -0.1075648553     0.3306843919
   45      H       5.7632980485     2.4800631840     1.3970162149
   46      H       5.7824375642     2.0823441926    -0.3795009972
   47      H       3.4162647030     2.4763422741     0.8158202736
   48      H       0.8477206970    -3.2926010181    -0.6182819712
   49      H      -0.0935071837    -2.5116568250     0.7169910145
   50      H       0.2647982216    -1.1236225962    -1.3968517804
   51      H       0.2798753994    -1.0521277513    -3.1719690530
   52      H       0.2672682188    -1.1233985162    -1.3987872137
   53      H      -0.5497952008     1.2548288628     0.1071940814
   54      H      -0.2497706457     2.8510062859    -0.6325354207
   55      H      -0.1562709744     0.9852548597    -3.0711616276
   56      H       0.0265600122     2.1285646327    -2.6205376627
 ----------------------------------------------------------------
 Molecular Point Group                 C1    NOp =  1
 Largest Abelian Subgroup              C1    NOp =  1
 Nuclear Repulsion Energy =  3531.4607890838 hartrees
 There are      113 alpha and      113 beta electrons


 *******************************************
 **  MAXIMUM OPTIMIZATION CYCLES REACHED  **
 *******************************************

 Q-Chem fatal error occurred in module 0, line  456, PE  0:

 Maximum optimization cycles reached

