mFile = /opt/software/qchem/qchem-5.0.1//bin/mpi/machines
Process 0 of 1 is on vega02.cac.cornell.edu - thread support 0
initial socket setup ...start
initial socket setup ...done 
now start server 0 ... 
vega02.cac.cornell.edu 10.84.3
Q-Chem Developer Version! Running on 10.84.3.*
                  Welcome to Q-Chem
     A Quantum Leap Into The Future Of Chemistry


 Q-Chem 5.0, Q-Chem, Inc., Pleasanton, CA (2017)

 Yihan Shao,  Zhengting Gan,  E. Epifanovsky,  A. T. B. Gilbert,  M. Wormit,  
 J. Kussmann,  A. W. Lange,  A. Behn,  Jia Deng,  Xintian Feng,  D. Ghosh,  
 M. Goldey,  P. R. Horn,  L. D. Jacobson,  I. Kaliman,  T. Kus,  A. Landau,  
 Jie Liu,  E. I. Proynov,  R. M. Richard,  R. P. Steele,  E. J. Sundstrom,  
 H. L. Woodcock III,  P. M. Zimmerman,  D. Zuev,  B. Albrecht,  E. Alguire,  
 S. A. Baeppler,  Z. Benda,  Y. A. Bernard,  E. J. Berquist,  K. B. Bravaya,  
 D. Casanova,  Chun-Min Chang,  Yunqing Chen,  A. Chien,  K. D. Closser,  
 M. P. Coons,  S. Dasgupta,  M. Diedenhofen,  Hainam Do,  R. G. Edgar,  
 Po-Tung Fang,  S. Fatehi,  Qingguo Feng,  Qinghui Ge,  A. Ghysels,  
 J. Gomes,  J. Gonthier,  A. Gunina,  M. W. D. Hanson-Heine,  
 P. H. P. Harbach,  A. W. Hauser,  J. E. Herr,  E. G. Hohenstein,  
 Z. C. Holden,  Kerwin Hui,  T.-C. Jagau,  Hyunjun Ji,  B. Kaduk,  
 K. Khistyaev,  Jaehoon Kim,  P. Klunzinger,  K. Koh,  D. Kosenkov,  
 T. Kowalczyk,  C. M. Krauter,  A. Kunitsa,  Ka Un Lao,  A. Laurent,  
 K. V. Lawler,  Joonho Lee,  D. Lefrancois,  S. Lehtola,  D. S. Levine,  
 Yi-Pei Li,  You-Sheng Lin,  Fenglai Liu,  E. Livshits,  A. Luenser,  
 P. Manohar,  E. Mansoor,  S. F. Manzer,  Shan-Ping Mao,  Yuezhi Mao,  
 N. Mardirossian,  A. V. Marenich,  L. A. Martinez-Martinez,  S. A. Maurer,  
 N. J. Mayhall,  S. C. McKenzie,  J.-M. Mewes,  A. F. Morrison,  K. Nanda,  
 T. S. Nguyen-Beck,  R. Olivares-Amaya,  J. A. Parkhill,  T. M. Perrine,  
 F. Plasser,  S. Prager,  A. Prociuk,  D. R. Rehn,  F. Rob,  M. Schneider,  
 N. Sergueev,  S. M. Sharada,  S. Sharma,  D. W. Small,  T. Stauch,  
 T. Stein,  Yu-Chuan Su,  A. J. W. Thom,  T. Tsuchimochi,  L. Vogt,  
 O. Vydrov,  M. A. Watson,  J. Wenzel,  M. de Wergifosse,  T. A. Wesolowski,  
 A. White,  J. Witte,  A. Yamada,  Jun Yang,  K. Yao,  S. Yeganeh,  
 S. R. Yost,  Zhi-Qiang You,  A. Zech,  Igor Ying Zhang,  Xing Zhang,  
 Yan Zhao,  Ying Zhu,  B. R. Brooks,  G. K. L. Chan,  C. J. Cramer,  
 M. S. Gordon,  W. J. Hehre,  A. Klamt,  M. W. Schmidt,  C. D. Sherrill,  
 D. G. Truhlar,  A. Aspuru-Guzik,  R. Baer,  A. T. Bell,  N. A. Besley,  
 Jeng-Da Chai,  A. Dreuw,  B. D. Dunietz,  T. R. Furlani,  Chao-Ping Hsu,  
 Yousung Jung,  Jing Kong,  D. S. Lambrecht,  WanZhen Liang,  C. Ochsenfeld,  
 V. A. Rassolov,  L. V. Slipchenko,  J. E. Subotnik,  T. Van Voorhis,  
 J. M. Herbert,  A. I. Krylov,  P. M. W. Gill,  M. Head-Gordon

 Contributors to earlier versions of Q-Chem not listed above: 
 R. D. Adamson,  B. Austin,  J. Baker,  G. J. O. Beran,  K. Brandhorst,  
 S. T. Brown,  E. F. C. Byrd,  A. K. Chakraborty,  C.-L. Cheng,  
 Siu Hung Chien,  D. M. Chipman,  D. L. Crittenden,  H. Dachsel,  
 R. A. DiStasio Jr.,  R. J. Doerksen,  A. D. Dutoi,  L. Fusti-Molnar,  
 W. A. Goddard III,  A. Golubeva-Zadorozhnaya,  S. R. Gwaltney,  G. Hawkins,  
 A. Heyden,  S. Hirata,  G. Kedziora,  F. J. Keil,  C. Kelley,  Jihan Kim,  
 R. A. King,  R. Z. Khaliullin,  P. P. Korambath,  W. Kurlancheek,  
 A. M. Lee,  M. S. Lee,  S. V. Levchenko,  Ching Yeh Lin,  D. Liotard,  
 R. C. Lochan,  I. Lotan,  P. E. Maslen,  N. Nair,  D. P. O'Neill,  
 D. Neuhauser,  E. Neuscamman,  C. M. Oana,  R. Olson,  B. Peters,  
 R. Peverati,  P. A. Pieniazek,  Y. M. Rhee,  J. Ritchie,  M. A. Rohrdanz,  
 E. Rosta,  N. J. Russ,  H. F. Schaefer III,  N. E. Schultz,  N. Shenvi,  
 A. C. Simmonett,  A. Sodt,  D. Stuck,  K. S. Thanthiriwatte,  V. Vanovschi,  
 Tao Wang,  A. Warshel,  C. F. Williams,  Q. Wu,  X. Xu,  W. Zhang

 Please cite Q-Chem as follows:
 Y. Shao et al., Mol. Phys. 113, 184-215 (2015)
 DOI: 10.1080/00268976.2014.952696

 Q-Chem 5.0.1 for Intel X86 EM64T Linux

 Parts of Q-Chem use Armadillo 5.200.1 (Boston Tea Smuggler).
 http://arma.sourceforge.net/

 Q-Chem begins on Tue Jan 16 17:53:53 2018  

Host: vega02.cac.cornell.edu
0

     Scratch files written to /scratch/jj585/SOT1001/1222c.save//
 Parallel job on  1  processors

Checking the input file for inconsistencies... 	...done.

--------------------------------------------------------------
User input:
--------------------------------------------------------------
$molecule
0  1
O -3.94934 -3.66094 2.70899
C -3.26408 -4.56952 2.26188
C -3.36658 -6.02376 2.66595
C -2.06641 -6.84434 2.67309
C -0.78291 -6.07628 2.4477
O -0.64415 -5.78371 1.12084
C 0.28854 -4.72667 0.8718
C 1.26126 -5.13281 -0.23047
O 1.91606 -3.96873 -0.75871
C 2.45676 -3.13475 0.16393
C 3.11904 -1.92554 -0.4524
C 2.17779 -1.00379 -1.24152
C 0.69563 -1.21569 -1.00705
O 0.16594 -1.37337 0.08343
O -2.82009 -4.41068 0.99537
O -0.053 -1.14006 -2.13769
O 2.68095 -3.43194 1.32993
C -1.37638 -1.47199 -2.26313
C 3.72252 -0.92991 0.56068
C 4.79775 -0.08504 -0.12262
C 3.94328 0.7997 -1.00542
C 2.54422 0.34143 -0.58175
O 2.69549 0.00327 0.77622
H 3.92973 -2.32108 -1.10529
H 2.37627 -0.98211 -2.33687
H 4.14627 -1.41308 1.46736
H 5.27069 0.54878 0.66155
H 5.58559 -0.66426 -0.65059
H 4.10788 1.85844 -0.70478
H 4.10801 0.68476 -2.09862
H 1.79631 1.13536 -0.8034
O 0.06752 -5.87216 3.30807
C -3.03872 -3.28904 0.23162
C -3.80704 -6.18029 4.13671
C -4.42832 -7.55944 4.35377
C -3.19617 -8.43367 4.29383
C -2.10868 -7.36789 4.1264
O -2.59989 -6.26726 4.84941
H -4.13882 -6.4745 2.00265
H -2.0744 -7.69946 1.96043
H -2.50952 -2.41374 0.6645
H -4.51788 -5.39521 4.4749
H -4.83105 -7.58745 5.39169
H -5.23604 -7.82444 3.63801
H -3.07953 -8.94319 5.27647
H -3.18337 -9.18466 3.47458
H -1.13094 -7.77766 4.46345
H -4.12725 -3.07964 0.15393
H -2.67638 -3.5091 -0.78018
H -1.72647 -1.17518 -3.27287
H -1.99113 -0.94867 -1.50011
H -1.46375 -2.56872 -2.19915
H 1.99897 -5.85961 0.17368
H 0.71151 -5.61497 -1.06669
H 0.72776 -4.30638 1.79096
H -0.31224 -3.90164 0.44193
$end

$opt
CONSTRAINT
tors           1           2           3           4    -146.425
tors           3           4           5           6     -77.348
tors           4           5           6           7    +161.508
tors           5           6           7           8    +131.715
tors           6           7           8           9    +162.573
tors           7           8           9          10     +49.817
tors           8           9          10          11    -179.497
tors           9          10          11          12     +62.234
tors          11          12          13          14     +44.498
ENDCONSTRAINT
$end

$rem
JOBTYPE                   OPT
METHOD                    B3LYP
DFT_D                     d3_op
BASIS                     STO-3G
GEOM_OPT_MAX_CYCLES       100
GEOM_OPT_TOL_GRADIENT     300
GEOM_OPT_TOL_DISPLACEMENT 1200
GEOM_OPT_TOL_ENERGY       100
SYMMETRY                  False
THRESH                    12
SCF_CONVERGENCE           8
MAX_SUB_FILE_NUM          128
MEM_STATIC                400
MEM_TOTAL                 4000
$end
--------------------------------------------------------------
 Adding empirical dispersion correction 
 ----------------------------------------------------------------
 Doing -D3(op) with
 s6 =   1.00000
 s8 =   0.78311
 a1 =   0.30000
 a2 =   4.25000
 n  =  10.00000
 -D3 energy without 3body term =     -0.0701964038 hartrees
 ----------------------------------------------------------------
             Standard Nuclear Orientation (Angstroms)
    I     Atom           X                Y                Z
 ----------------------------------------------------------------
    1      O      -3.0695448660     2.1536978307     1.6275223461
    2      C      -3.0158136051     1.4442596776     0.6331297201
    3      C      -4.1860529577     0.7086934836     0.0182516635
    4      C      -3.8947925905    -0.6504046112    -0.6389121762
    5      C      -2.4998191279    -1.2047063478    -0.4521297118
    6      O      -1.6300496822    -0.5635266153    -1.2874731526
    7      C      -0.2609507536    -0.7118825238    -0.8965463469
    8      C       0.5871474001    -1.1197648699    -2.0967523977
    9      O       1.9754440726    -0.8767472814    -1.8202427511
   10      C       2.4298186506    -1.3682471112    -0.6407872156
   11      C       3.8911086327    -1.0702759301    -0.4030666759
   12      C       4.2410886884     0.4222655174    -0.3129612525
   13      C       3.0708014167     1.3646224692    -0.1153071770
   14      O       2.1477289682     1.1939053324     0.6678748087
   15      O      -2.0666177440     1.7641713199    -0.2741125872
   16      O       3.1575477451     2.5050923731    -0.8476438866
   17      O       1.8572392220    -2.2159516343     0.0312908242
   18      C       2.1724968462     3.4422084575    -1.0171594135
   19      C       4.4469370270    -1.5831542760     0.9422247022
   20      C       5.9659636723    -1.7289472425     0.8520791440
   21      C       6.3890173519    -0.2753134194     0.8381514326
   22      C       5.0292186997     0.4082771921     1.0128742042
   23      O       4.2985009255    -0.4908415156     1.8122204391
   24      H       4.4421479005    -1.5594199209    -1.2379495428
   25      H       4.8720623786     0.7923273234    -1.1523553300
   26      H       3.9980343721    -2.5430974558     1.2770103526
   27      H       6.3128871861    -2.1892470955     1.8050170989
   28      H       6.3297497432    -2.3380187885    -0.0032754850
   29      H       7.0299418784    -0.0882558370     1.7284509155
   30      H       6.9110201660     0.0610530346    -0.0836967584
   31      H       5.1640838766     1.4305040223     1.4320240904
   32      O      -2.2233404746    -2.1766736177     0.2435511610
   33      C      -1.1475161408     2.7732534492    -0.1122641138
   34      C      -5.2234270063     0.2912312987     1.0818408876
   35      C      -6.5874127193     0.0758945926     0.4273703518
   36      C      -6.3427659242    -1.2223195364    -0.3080564223
   37      C      -4.9076678297    -1.5246274682     0.1342756779
   38      O      -4.8416544872    -1.0117764394     1.4411969387
   39      H      -4.6588228104     1.4218827846    -0.6940247875
   40      H      -4.1227237412    -0.6774672938    -1.7281749231
   41      H      -0.4538296345     2.5381481634     0.7226684344
   42      H      -5.3227101653     1.0184170989     1.9169218743
   43      H      -7.3247626673    -0.1123739182     1.2404656484
   44      H      -6.9408157405     0.9209032098    -0.2019274453
   45      H      -7.0353125529    -1.9922991886     0.0997516109
   46      H      -6.4435353209    -1.1706577910    -1.4137222739
   47      H      -4.7060611682    -2.6131737227     0.0251360018
   48      H      -1.6626362564     3.7394708642     0.0770948851
   49      H      -0.6049121319     2.8737992399    -1.0603819086
   50      H       2.5955447694     4.3135706463    -1.5575226640
   51      H       1.7760993255     3.7834499188    -0.0371572829
   52      H       1.3919090816     3.0081863852    -1.6627995863
   53      H       0.4064631389    -2.1908846694    -2.3330722647
   54      H       0.3118104184    -0.5106020477    -2.9839262359
   55      H      -0.1316011208    -1.3012787507     0.0255673978
   56      H       0.0796612589     0.3078889612    -0.6311242272
 ----------------------------------------------------------------
 Molecular Point Group                 C1    NOp =  1
 Largest Abelian Subgroup              C1    NOp =  1
 Nuclear Repulsion Energy =  3222.9666388752 hartrees
 There are      113 alpha and      113 beta electrons
 Requested basis set is STO-3G
 There are 86 shells and 176 basis functions

 Total QAlloc Memory Limit   4000 MB
 Mega-Array Size       392 MB
 MEM_STATIC part       400 MB
 A cutoff of  1.0D-12 yielded   2206 shell pairs
 There are     10486 function pairs
 
 -------------------------------------------------------
 OpenMP Integral Computing Module                       
 Release: version 1.0, May 2013, Q-Chem Inc. Pittsburgh 
 -------------------------------------------------------
 Integral Job Info:
 Integral job number is                      11
 Integral operator is                         1
 short-range coefficients                     0
 long-range coefficients              100000000
 Omega coefficients                           0
 if combine SR and LR in K                    0
 Integral screening is                        0
 Integral computing path is                   2
 max size of driver memory is            800000
 size of driver memory is                 45569
 size of scratch memory is              1046100
 max col of scratch BK array                289
 max len of scratch array in speh3           22
 max len of scratch index in speh4            8
 max int batch size is                      520
 min int batch size is                       52
 fixed nKL is                                52
 max L of basis functions is                  1
 order of int derivative is                   0
 number of shells is                         86
 number of basis is                         176
 number of cartesian basis is               176
 number of contracted shell pairs          2206
 number of primitive shell pairs          11351
 maxK2 (contraction) of shell pair            9
 max number of K2 of shell pair               1
 max number of CS2 of shell pair            322
 max number of PS2 of shell pair           1254
 mem total for path MDJ                   52746
 -------------------------------------------------------
 Smallest overlap matrix eigenvalue = 1.93E-01

 Scale SEOQF with 1.000000e-02/1.000000e-01/1.000000e-01

 Standard Electronic Orientation quadrupole field applied
 Nucleus-field energy     =     0.0000000282 hartrees
 Guess from superposition of atomic densities
 Warning:  Energy on first SCF cycle will be non-variational
 A restricted hybrid HF-DFT SCF calculation will be
 performed using Pulay DIIS extrapolation
 Exchange:     0.2000 Hartree-Fock + 0.0800 Slater + 0.7200 B88
 Correlation:  0.1900 VWN1RPA + 0.8100 LYP
 Using SG-1 standard quadrature grid
 Dispersion:   Grimme D3
 SCF converges when DIIS error is below 1.0E-08
 using 48 threads for integral computing
 -------------------------------------------------------
 OpenMP Integral computing Module                
 Release: version 1.0, May 2013, Q-Chem Inc. Pittsburgh 
 -------------------------------------------------------
 -------------------------------------------------------
 OpenMP BLAS3 based DFT computing Module                
 Release: version 1.0, May 2013, Q-Chem Inc. Pittsburgh 
 -------------------------------------------------------
 ---------------------------------------
  Cycle       Energy         DIIS Error
 ---------------------------------------
    1   -1509.5277985817      8.32E-02
    2   -1509.5781857352      1.06E-02
    3   -1507.3301626385      2.67E-02
    4   -1510.0667852327      3.92E-03
    5   -1510.1259676400      1.37E-03
    6   -1510.1333630177      4.53E-04
    7   -1510.1341820657      1.46E-04
    8   -1510.1342693271      3.17E-05
    9   -1510.1342726988      1.53E-05
   10   -1510.1342736910      3.95E-06
   11   -1510.1342737604      8.07E-07
   12   -1510.1342737632      2.17E-07
   13   -1510.1342737634      1.09E-07
   14   -1510.1342737633      4.23E-08
   15   -1510.1342737633      7.25E-09 Convergence criterion met
 ---------------------------------------
 SCF time:  CPU 145.77 s  wall 6.48 s
 SCF   energy in the final basis set = -1510.13427376
 Total energy in the final basis set = -1510.13427376
 
 --------------------------------------------------------------
 
                    Orbital Energies (a.u.)
 --------------------------------------------------------------
 
 Alpha MOs
 -- Occupied --
-18.950 -18.938 -18.936 -18.927 -18.899 -18.893 -18.866 -18.864
-18.863 -18.856 -10.117 -10.113 -10.108 -10.105 -10.091 -10.088
-10.079 -10.068 -10.068 -10.066 -10.061 -10.059 -10.040 -10.040
-10.038 -10.031 -10.017 -10.015 -10.012 -10.011  -1.052  -1.048
 -1.047  -1.036  -1.024  -1.019  -0.956  -0.955  -0.948  -0.943
 -0.785  -0.780  -0.747  -0.741  -0.732  -0.721  -0.712  -0.692
 -0.681  -0.636  -0.607  -0.594  -0.556  -0.552  -0.538  -0.534
 -0.526  -0.517  -0.498  -0.493  -0.488  -0.482  -0.466  -0.464
 -0.453  -0.445  -0.442  -0.437  -0.431  -0.428  -0.418  -0.415
 -0.402  -0.395  -0.391  -0.385  -0.377  -0.375  -0.363  -0.361
 -0.357  -0.349  -0.344  -0.340  -0.333  -0.330  -0.327  -0.317
 -0.309  -0.308  -0.307  -0.304  -0.295  -0.293  -0.286  -0.277
 -0.271  -0.252  -0.244  -0.235  -0.230  -0.228  -0.221  -0.187
 -0.179  -0.172  -0.165  -0.155  -0.152  -0.151  -0.147  -0.143
 -0.138
 -- Virtual --
  0.102   0.104   0.115   0.116   0.224   0.244   0.260   0.285
  0.305   0.317   0.329   0.334   0.341   0.343   0.352   0.355
  0.363   0.374   0.377   0.386   0.389   0.392   0.396   0.398
  0.399   0.401   0.405   0.406   0.414   0.417   0.421   0.424
  0.426   0.435   0.438   0.443   0.448   0.451   0.454   0.462
  0.468   0.474   0.474   0.480   0.482   0.488   0.492   0.493
  0.502   0.504   0.508   0.510   0.533   0.548   0.550   0.561
  0.569   0.579   0.587   0.679   0.689   0.698   0.699
 --------------------------------------------------------------
 
          Ground-State Mulliken Net Atomic Charges

     Atom                 Charge (a.u.)
  ----------------------------------------
      1 O                    -0.232461
      2 C                     0.234396
      3 C                    -0.078538
      4 C                    -0.082781
      5 C                     0.232769
      6 O                    -0.185736
      7 C                    -0.053547
      8 C                    -0.034703
      9 O                    -0.193413
     10 C                     0.235478
     11 C                    -0.080923
     12 C                    -0.081683
     13 C                     0.240318
     14 O                    -0.235856
     15 O                    -0.211930
     16 O                    -0.214865
     17 O                    -0.226648
     18 C                    -0.098429
     19 C                     0.040602
     20 C                    -0.142467
     21 C                    -0.143818
     22 C                     0.041343
     23 O                    -0.206289
     24 H                     0.086631
     25 H                     0.087336
     26 H                     0.095098
     27 H                     0.076313
     28 H                     0.071732
     29 H                     0.076189
     30 H                     0.071489
     31 H                     0.081085
     32 O                    -0.220002
     33 C                    -0.102028
     34 C                     0.038958
     35 C                    -0.142996
     36 C                    -0.144641
     37 C                     0.041147
     38 O                    -0.209733
     39 H                     0.089316
     40 H                     0.083639
     41 H                     0.094899
     42 H                     0.091699
     43 H                     0.075305
     44 H                     0.070247
     45 H                     0.074953
     46 H                     0.069589
     47 H                     0.087252
     48 H                     0.083879
     49 H                     0.089509
     50 H                     0.095144
     51 H                     0.089157
     52 H                     0.083873
     53 H                     0.089806
     54 H                     0.097162
     55 H                     0.120236
     56 H                     0.086939
  ----------------------------------------
  Sum of atomic charges =     0.000000

 -----------------------------------------------------------------
                    Cartesian Multipole Moments
 -----------------------------------------------------------------
    Charge (ESU x 10^10)
                 0.0000
    Dipole Moment (Debye)
         X       1.5485      Y       2.2997      Z      -4.8174
       Tot       5.5583
    Quadrupole Moments (Debye-Ang)
        XX    -138.3539     XY      -1.4393     YY    -156.7615
        XZ       5.4814     YZ       0.9342     ZZ    -165.9290
    Octopole Moments (Debye-Ang^2)
       XXX      14.5764    XXY      -8.1918    XYY      21.0245
       YYY      42.0705    XXZ     -30.4230    XYZ       0.8454
       YYZ     -20.0410    XZZ       6.4579    YZZ      -3.9462
       ZZZ     -11.9544
    Hexadecapole Moments (Debye-Ang^3)
      XXXX  -14252.1265   XXXY     -63.9867   XXYY   -2901.8212
      XYYY      49.0310   YYYY   -2414.5009   XXXZ      72.0815
      XXYZ      25.7542   XYYZ      27.9499   YYYZ     -27.6505
      XXZZ   -2758.0717   XYZZ      10.9697   YYZZ    -593.7857
      XZZZ      -8.3416   YZZZ      -1.1650   ZZZZ   -1075.2900
 -----------------------------------------------------------------
 Calculating analytic gradient of the SCF energy
 Gradient of SCF Energy
            1           2           3           4           5           6
    1   0.0129914   0.0062820   0.0085224   0.0218478   0.0170941   0.0008509
    2  -0.0214114  -0.0382985  -0.0098619   0.0028560   0.0097726  -0.0283403
    3  -0.0811735  -0.0046708   0.0278639   0.0426668  -0.0052094   0.0380848
            7           8           9          10          11          12
    1  -0.0085520   0.0137859  -0.0201142  -0.0200042  -0.0229140  -0.0349856
    2  -0.0337244   0.0289386  -0.0464230   0.0284868  -0.0003062  -0.0208299
    3  -0.0224243   0.0101633   0.0542404  -0.0235777   0.0428959   0.0350118
           13          14          15          16          17          18
    1   0.0215453   0.0521495   0.0038904  -0.1119103   0.0411509   0.0474427
    2   0.0016536   0.0196488   0.0792503   0.0090800   0.0363682  -0.0309243
    3  -0.0014071  -0.0414900   0.1014746   0.0490790  -0.0364795  -0.0069458
           19          20          21          22          23          24
    1   0.0148647  -0.0297694  -0.0454123  -0.0315502   0.0405673   0.0011595
    2   0.0689897   0.0426773  -0.0191107  -0.0665931  -0.0128122  -0.0059996
    3   0.0138734   0.0011069   0.0050146  -0.0020478  -0.0752446  -0.0023149
           25          26          27          28          29          30
    1   0.0057124   0.0102786   0.0012835   0.0035516   0.0025227   0.0015596
    2   0.0044484  -0.0101329   0.0023282  -0.0042116  -0.0061984   0.0039053
    3  -0.0038584  -0.0046753   0.0114233  -0.0060587   0.0109596  -0.0076481
           31          32          33          34          35          36
    1   0.0095344  -0.0170029  -0.0221233   0.0170574   0.0446210   0.0299906
    2   0.0059212   0.0348410  -0.0443136  -0.0656686  -0.0282839   0.0257342
    3  -0.0067090  -0.0335467  -0.0318398  -0.0236805  -0.0034793   0.0301583
           37          38          39          40          41          42
    1  -0.0050599  -0.0213000  -0.0056470  -0.0016149  -0.0068508  -0.0120591
    2   0.0614952   0.0364208   0.0041983  -0.0067400  -0.0077050   0.0075553
    3   0.0418713  -0.0751784  -0.0005482  -0.0055922  -0.0002083  -0.0038770
           43          44          45          46          47          48
    1  -0.0031047  -0.0030114  -0.0072684   0.0016963  -0.0075390  -0.0041995
    2  -0.0084872   0.0057732  -0.0013515   0.0001609  -0.0043235  -0.0051975
    3   0.0078907  -0.0049551   0.0106381  -0.0083848  -0.0120624  -0.0065188
           49          50          51          52          53          54
    1  -0.0066935  -0.0032544   0.0108966   0.0159986  -0.0013414  -0.0018035
    2   0.0021872  -0.0001199  -0.0031333  -0.0041689   0.0020903  -0.0000130
    3   0.0051933  -0.0018436   0.0023268  -0.0002336   0.0028524  -0.0016539
           55          56
    1  -0.0002951  -0.0034669
    2   0.0156584  -0.0057558
    3   0.0046983  -0.0039498
 Max gradient component =       1.119E-01
 RMS gradient           =       2.785E-02
 Gradient time:  CPU 37.62 s  wall 0.88 s
 Geometry Optimization Parameters
   NAtoms,    NIC,     NZ,  NCons,   NDum,   NFix, NCnnct, MaxDiis
       56     458       0       9       0       0       0       0


** CONSTRAINED OPTIMIZATION IN DELOCALIZED INTERNAL COORDINATES **
   Searching for a Minimum

   Optimization Cycle:   1

                       Coordinates (Angstroms)
     ATOM                X               Y               Z
      1  O        -3.0695448660    2.1536978307    1.6275223461
      2  C        -3.0158136051    1.4442596776    0.6331297201
      3  C        -4.1860529577    0.7086934836    0.0182516635
      4  C        -3.8947925905   -0.6504046112   -0.6389121762
      5  C        -2.4998191279   -1.2047063478   -0.4521297118
      6  O        -1.6300496822   -0.5635266153   -1.2874731526
      7  C        -0.2609507536   -0.7118825238   -0.8965463469
      8  C         0.5871474001   -1.1197648699   -2.0967523977
      9  O         1.9754440726   -0.8767472814   -1.8202427511
     10  C         2.4298186506   -1.3682471112   -0.6407872156
     11  C         3.8911086327   -1.0702759301   -0.4030666759
     12  C         4.2410886884    0.4222655174   -0.3129612525
     13  C         3.0708014167    1.3646224692   -0.1153071770
     14  O         2.1477289682    1.1939053324    0.6678748087
     15  O        -2.0666177440    1.7641713199   -0.2741125872
     16  O         3.1575477451    2.5050923731   -0.8476438866
     17  O         1.8572392220   -2.2159516343    0.0312908242
     18  C         2.1724968462    3.4422084575   -1.0171594135
     19  C         4.4469370270   -1.5831542760    0.9422247022
     20  C         5.9659636723   -1.7289472425    0.8520791440
     21  C         6.3890173519   -0.2753134194    0.8381514326
     22  C         5.0292186997    0.4082771921    1.0128742042
     23  O         4.2985009255   -0.4908415156    1.8122204391
     24  H         4.4421479005   -1.5594199209   -1.2379495428
     25  H         4.8720623786    0.7923273234   -1.1523553300
     26  H         3.9980343721   -2.5430974558    1.2770103526
     27  H         6.3128871861   -2.1892470955    1.8050170989
     28  H         6.3297497432   -2.3380187885   -0.0032754850
     29  H         7.0299418784   -0.0882558370    1.7284509155
     30  H         6.9110201660    0.0610530346   -0.0836967584
     31  H         5.1640838766    1.4305040223    1.4320240904
     32  O        -2.2233404746   -2.1766736177    0.2435511610
     33  C        -1.1475161408    2.7732534492   -0.1122641138
     34  C        -5.2234270063    0.2912312987    1.0818408876
     35  C        -6.5874127193    0.0758945926    0.4273703518
     36  C        -6.3427659242   -1.2223195364   -0.3080564223
     37  C        -4.9076678297   -1.5246274682    0.1342756779
     38  O        -4.8416544872   -1.0117764394    1.4411969387
     39  H        -4.6588228104    1.4218827846   -0.6940247875
     40  H        -4.1227237412   -0.6774672938   -1.7281749231
     41  H        -0.4538296345    2.5381481634    0.7226684344
     42  H        -5.3227101653    1.0184170989    1.9169218743
     43  H        -7.3247626673   -0.1123739182    1.2404656484
     44  H        -6.9408157405    0.9209032098   -0.2019274453
     45  H        -7.0353125529   -1.9922991886    0.0997516109
     46  H        -6.4435353209   -1.1706577910   -1.4137222739
     47  H        -4.7060611682   -2.6131737227    0.0251360018
     48  H        -1.6626362564    3.7394708642    0.0770948851
     49  H        -0.6049121319    2.8737992399   -1.0603819086
     50  H         2.5955447694    4.3135706463   -1.5575226640
     51  H         1.7760993255    3.7834499188   -0.0371572829
     52  H         1.3919090816    3.0081863852   -1.6627995863
     53  H         0.4064631389   -2.1908846694   -2.3330722647
     54  H         0.3118104184   -0.5106020477   -2.9839262359
     55  H        -0.1316011208   -1.3012787507    0.0255673978
     56  H         0.0796612589    0.3078889612   -0.6311242272
   Point Group: c1    Number of degrees of freedom:   162


   Energy is  -1510.134273763

              Constraints and their Current Values
                                        Value     Constraint
   Dihedral:        1   2   3   4     -146.426     -146.425
   Dihedral:        3   4   5   6      -77.348      -77.348
   Dihedral:        4   5   6   7      161.508      161.508
   Dihedral:        5   6   7   8      131.715      131.715
   Dihedral:        6   7   8   9      162.573      162.573
   Dihedral:        7   8   9  10       49.817       49.817
   Dihedral:        8   9  10  11     -179.497     -179.497
   Dihedral:        9  10  11  12       62.234       62.234
   Dihedral:       11  12  13  14       44.497       44.498

 Attempting to Generate Delocalized Internal Coordinates

   Using Lagrange Multiplier Algorithm


169 Hessian modes will be used to form the next step
  Hessian Eigenvalues:
    -0.977753   -0.977753   -0.977753   -0.977753   -0.977753   -0.977753
    -0.977753   -0.977753    0.045000    0.045000    0.045000    0.045000
     0.045062    0.045226    0.045561    0.045566    0.046144    0.048518
     0.048884    0.048897    0.053969    0.060026    0.060082    0.062680
     0.062908    0.067074    0.067120    0.067129    0.067211    0.068884
     0.071195    0.071608    0.073601    0.073712    0.075925    0.076184
     0.076760    0.077067    0.082430    0.082509    0.083819    0.084337
     0.084573    0.084605    0.085184    0.085452    0.086139    0.086353
     0.086805    0.087346    0.088598    0.088816    0.089118    0.089196
     0.089699    0.089826    0.093897    0.093986    0.096622    0.096636
     0.111554    0.111561    0.114107    0.114155    0.117105    0.117216
     0.117451    0.117507    0.118006    0.118051    0.118553    0.123660
     0.124992    0.130548    0.130752    0.132325    0.139860    0.140282
     0.160000    0.160000    0.160000    0.160000    0.160000    0.160000
     0.171212    0.172181    0.172334    0.172850    0.219461    0.220770
     0.235717    0.238368    0.240024    0.242010    0.247987    0.249729
     0.250000    0.250000    0.250000    0.250000    0.250000    0.250000
     0.250000    0.250000    0.258333    0.259050    0.267321    0.267414
     0.279321    0.280611    0.281747    0.282960    0.295590    0.296232
     0.298743    0.308062    0.310698    0.310863    0.313316    0.322116
     0.322149    0.322298    0.322428    0.322507    0.322652    0.322819
     0.322831    0.323014    0.323446    0.324141    0.324247    0.324417
     0.324470    0.324581    0.324646    0.324650    0.324725    0.325105
     0.325112    0.325292    0.326892    0.328737    0.334550    0.334615
     0.340137    0.369436    0.370573    0.385332    0.386319    0.401009
     0.407709    0.501257    0.509522    0.517923    0.533276    0.537333
     0.547150    0.924164    0.936393    0.941950    0.942708    1.022753
     1.022753    1.022753    1.022753    1.022753    1.022753    1.022753
     1.022753

 Minimum Search - Taking P-RFO Step
 Searching for Lamda that Maximizes Along the Constraint modes Only
 Value Taken    Lamda =   0.00107284
 Searching for Lamda that Minimizes Along All other modes
 Value Taken    Lamda =  -0.17452678
 Calculated Step too Large.  Step scaled by  0.515528
 Step Taken.  Stepsize is  0.300000

                             Maximum     Tolerance    Cnvgd?
         Gradient            0.115043       0.000300      NO
         Displacement        0.097132       0.001200      NO
         Energy change     *********       0.000001      NO


 New Cartesian Coordinates Obtained by Inverse Iteration

 Displacement from previous Coordinates is:  1.550761
 Adding empirical dispersion correction 
 ----------------------------------------------------------------
 Doing -D3(op) with
 s6 =   1.00000
 s8 =   0.78311
 a1 =   0.30000
 a2 =   4.25000
 n  =  10.00000
 -D3 energy without 3body term =     -0.0689148186 hartrees
 ----------------------------------------------------------------
             Standard Nuclear Orientation (Angstroms)
    I     Atom           X                Y                Z
 ----------------------------------------------------------------
    1      O      -3.2177876116     2.1995688152     1.6678748772
    2      C      -3.1296045714     1.4815713014     0.6582748657
    3      C      -4.2948959192     0.7157392943     0.0193652443
    4      C      -3.9788005670    -0.6576591717    -0.6470236231
    5      C      -2.5584030612    -1.2094341357    -0.4438405360
    6      O      -1.6630553644    -0.5526007486    -1.2786524043
    7      C      -0.2819045776    -0.6990367956    -0.8597906224
    8      C       0.6009267873    -1.1077832525    -2.0609757349
    9      O       2.0132587199    -0.8744819103    -1.8028327355
   10      C       2.4813747947    -1.3794443958    -0.6064995564
   11      C       3.9725560697    -1.0822694267    -0.4027855390
   12      C       4.3488922127     0.4242404244    -0.3245975277
   13      C       3.1694236517     1.3847318571    -0.1366807650
   14      O       2.2255958629     1.2324684853     0.6519129006
   15      O      -2.1600307479     1.7785136876    -0.2720378734
   16      O       3.3119511038     2.5144255002    -0.9117767722
   17      O       1.8868081031    -2.2172314542     0.0875836910
   18      C       2.2924869931     3.4604305532    -1.0777375846
   19      C       4.5376330700    -1.6012648012     0.9560666002
   20      C       6.0745788814    -1.7681780588     0.8376873849
   21      C       6.5246886226    -0.2972421463     0.8116518086
   22      C       5.1602820345     0.4158863037     1.0132646304
   23      O       4.4121532354    -0.4831121769     1.8420602847
   24      H       4.5075806631    -1.5810856909    -1.2387429426
   25      H       4.9729362723     0.7795279333    -1.1699938473
   26      H       4.0698455113    -2.5461729042     1.3018022952
   27      H       6.4320911127    -2.2332407791     1.7784232426
   28      H       6.4112178834    -2.3820241324    -0.0195987672
   29      H       7.1834709881    -0.1099120202     1.6823665489
   30      H       7.0325094730     0.0260536143    -0.1173353926
   31      H       5.3054003427     1.4358398313     1.4285951304
   32      O      -2.2730926566    -2.1854255409     0.2647300866
   33      C      -1.2497693710     2.8223321125    -0.0469744003
   34      C      -5.3513459586     0.2865795881     1.0856508520
   35      C      -6.7199679923     0.0576694476     0.3957686810
   36      C      -6.4478711369    -1.2586365505    -0.3486072104
   37      C      -4.9993526786    -1.5584494753     0.1238695888
   38      O      -4.9535236105    -1.0381991521     1.4585502974
   39      H      -4.7606248250     1.4202192085    -0.7015077295
   40      H      -4.1933393090    -0.6810376180    -1.7357478079
   41      H      -0.5731430705     2.5973340540     0.8065668546
   42      H      -5.4579426218     1.0100262235     1.9208217093
   43      H      -7.4696513670    -0.1298730073     1.1906057653
   44      H      -7.0649158809     0.8978187418    -0.2368667408
   45      H      -7.1371419589    -2.0353623187     0.0374062795
   46      H      -6.5294551089    -1.2040406373    -1.4512103292
   47      H      -4.7783539038    -2.6416611361     0.0220469260
   48      H      -1.7788932764     3.7825925219     0.1458571756
   49      H      -0.6694090387     2.9470041593    -0.9743152380
   50      H       2.7112808651     4.3275442445    -1.6286394311
   51      H       1.8948459110     3.8175674681    -0.1021906071
   52      H       1.4878622982     3.0333717103    -1.7070760232
   53      H       0.4187931191    -2.1783366497    -2.3048357893
   54      H       0.3356973289    -0.4932599855    -2.9463204731
   55      H      -0.1613550484    -1.3093383273     0.0527405120
   56      H       0.0538149157     0.3219750446    -0.5769136132
 ----------------------------------------------------------------
 Molecular Point Group                 C1    NOp =  1
 Largest Abelian Subgroup              C1    NOp =  1
 Nuclear Repulsion Energy =  3172.2930735080 hartrees
 There are      113 alpha and      113 beta electrons
 Applying Cartesian multipole field
    Component          Value
    ---------          -----
     (2,0,0)        1.00000E-12
     (0,2,0)        2.00000E-11
     (0,0,2)       -3.00000E-11
 Nucleus-field energy     =     0.0000000295 hartrees
 Requested basis set is STO-3G
 There are 86 shells and 176 basis functions
 A cutoff of  1.0D-12 yielded   2168 shell pairs
 There are     10319 function pairs
 Smallest overlap matrix eigenvalue = 2.02E-01
 Guess MOs from SCF MO coefficient file
 Reading MOs from coefficient file
 Reading MOs from coefficient file
 A restricted hybrid HF-DFT SCF calculation will be
 performed using Pulay DIIS extrapolation
 Exchange:     0.2000 Hartree-Fock + 0.0800 Slater + 0.7200 B88
 Correlation:  0.1900 VWN1RPA + 0.8100 LYP
 Using SG-1 standard quadrature grid
 Dispersion:   Grimme D3
 SCF converges when DIIS error is below 1.0E-08
 Geometry optimization detected.  Setting ReadMinima to 0
 Setting SaveMinima to 0
 using 48 threads for integral computing
 -------------------------------------------------------
 OpenMP Integral computing Module                
 Release: version 1.0, May 2013, Q-Chem Inc. Pittsburgh 
 -------------------------------------------------------
 -------------------------------------------------------
 OpenMP BLAS3 based DFT computing Module                
 Release: version 1.0, May 2013, Q-Chem Inc. Pittsburgh 
 -------------------------------------------------------
 ---------------------------------------
  Cycle       Energy         DIIS Error
 ---------------------------------------
    1   -1510.0247624466      3.18E-03
    2   -1510.2019674237      9.11E-04
    3   -1510.1956065225      1.54E-03
    4   -1510.2052566063      3.32E-04
    5   -1510.2057490092      5.91E-05
    6   -1510.2057634684      2.23E-05
    7   -1510.2057650460      1.27E-05
    8   -1510.2057657517      2.33E-06
    9   -1510.2057657747      1.07E-06
   10   -1510.2057657791      4.46E-07
   11   -1510.2057657799      1.12E-07
   12   -1510.2057657799      2.13E-08
   13   -1510.2057657800      1.09E-08
   14   -1510.2057657800      6.33E-09 Convergence criterion met
 ---------------------------------------
 SCF time:  CPU 100.28 s  wall 2.09 s
 SCF   energy in the final basis set = -1510.20576578
 Total energy in the final basis set = -1510.20576578
 
 --------------------------------------------------------------
 
                    Orbital Energies (a.u.)
 --------------------------------------------------------------
 
 Alpha MOs
 -- Occupied --
-18.946 -18.938 -18.935 -18.931 -18.897 -18.891 -18.867 -18.866
-18.865 -18.859 -10.111 -10.108 -10.103 -10.101 -10.086 -10.084
-10.075 -10.067 -10.066 -10.063 -10.059 -10.057 -10.040 -10.040
-10.038 -10.033 -10.017 -10.016 -10.013 -10.012  -1.038  -1.034
 -1.033  -1.022  -1.004  -0.999  -0.948  -0.946  -0.941  -0.937
 -0.776  -0.771  -0.738  -0.733  -0.724  -0.714  -0.706  -0.684
 -0.675  -0.629  -0.603  -0.591  -0.552  -0.548  -0.537  -0.533
 -0.521  -0.513  -0.491  -0.487  -0.479  -0.473  -0.460  -0.459
 -0.445  -0.438  -0.434  -0.431  -0.424  -0.422  -0.414  -0.409
 -0.395  -0.390  -0.385  -0.379  -0.372  -0.368  -0.360  -0.357
 -0.352  -0.346  -0.342  -0.338  -0.333  -0.329  -0.327  -0.313
 -0.308  -0.306  -0.304  -0.302  -0.293  -0.290  -0.283  -0.274
 -0.270  -0.252  -0.244  -0.235  -0.234  -0.231  -0.228  -0.184
 -0.179  -0.173  -0.164  -0.154  -0.152  -0.152  -0.146  -0.143
 -0.140
 -- Virtual --
  0.097   0.098   0.109   0.110   0.215   0.241   0.254   0.276
  0.293   0.302   0.313   0.319   0.328   0.336   0.349   0.353
  0.360   0.365   0.370   0.372   0.376   0.378   0.383   0.388
  0.391   0.394   0.400   0.402   0.405   0.410   0.415   0.417
  0.418   0.425   0.431   0.432   0.434   0.436   0.437   0.450
  0.453   0.460   0.468   0.469   0.471   0.474   0.479   0.481
  0.483   0.492   0.496   0.499   0.501   0.531   0.531   0.548
  0.557   0.563   0.568   0.652   0.663   0.672   0.676
 --------------------------------------------------------------
 
          Ground-State Mulliken Net Atomic Charges

     Atom                 Charge (a.u.)
  ----------------------------------------
      1 O                    -0.223672
      2 C                     0.221375
      3 C                    -0.077095
      4 C                    -0.080448
      5 C                     0.222809
      6 O                    -0.180371
      7 C                    -0.054033
      8 C                    -0.038735
      9 O                    -0.186665
     10 C                     0.224772
     11 C                    -0.079543
     12 C                    -0.080378
     13 C                     0.228115
     14 O                    -0.227593
     15 O                    -0.197522
     16 O                    -0.201702
     17 O                    -0.219483
     18 C                    -0.106241
     19 C                     0.035456
     20 C                    -0.143438
     21 C                    -0.144677
     22 C                     0.036166
     23 O                    -0.197442
     24 H                     0.086267
     25 H                     0.087592
     26 H                     0.094337
     27 H                     0.076559
     28 H                     0.072331
     29 H                     0.076487
     30 H                     0.072328
     31 H                     0.081294
     32 O                    -0.214388
     33 C                    -0.108829
     34 C                     0.033656
     35 C                    -0.143969
     36 C                    -0.145398
     37 C                     0.035777
     38 O                    -0.200321
     39 H                     0.088558
     40 H                     0.083836
     41 H                     0.093901
     42 H                     0.091501
     43 H                     0.075703
     44 H                     0.071065
     45 H                     0.075551
     46 H                     0.070454
     47 H                     0.087472
     48 H                     0.084716
     49 H                     0.088819
     50 H                     0.094677
     51 H                     0.089256
     52 H                     0.083288
     53 H                     0.088441
     54 H                     0.095562
     55 H                     0.117569
     56 H                     0.086253
  ----------------------------------------
  Sum of atomic charges =    -0.000000

 -----------------------------------------------------------------
                    Cartesian Multipole Moments
 -----------------------------------------------------------------
    Charge (ESU x 10^10)
                 0.0000
    Dipole Moment (Debye)
         X       1.4831      Y       2.3149      Z      -4.7349
       Tot       5.4752
    Quadrupole Moments (Debye-Ang)
        XX    -137.6583     XY      -1.5380     YY    -156.0476
        XZ       5.6731     YZ       1.0640     ZZ    -166.2951
    Octopole Moments (Debye-Ang^2)
       XXX      15.7388    XXY      -9.5982    XYY      22.0035
       YYY      42.2232    XXZ     -35.2502    XYZ       0.3855
       YYZ     -20.7990    XZZ       6.2637    YZZ      -3.6235
       ZZZ     -13.0931
    Hexadecapole Moments (Debye-Ang^3)
      XXXX  -14856.9379   XXXY     -70.4409   XXYY   -3022.5800
      XYYY      49.6375   YYYY   -2455.2838   XXXZ      98.1216
      XXYZ      32.8105   XYYZ      32.3687   YYYZ     -23.4301
      XXZZ   -2889.3850   XYZZ      11.7666   YYZZ    -603.8427
      XZZZ      -1.8583   YZZZ       3.8774   ZZZZ   -1082.4992
 -----------------------------------------------------------------
 Calculating analytic gradient of the SCF energy
 Gradient of SCF Energy
            1           2           3           4           5           6
    1   0.0054809   0.0091484   0.0031694   0.0135514   0.0087302   0.0013868
    2  -0.0013783  -0.0446112  -0.0006410   0.0038437   0.0128447  -0.0184526
    3  -0.0402620  -0.0117500   0.0161698   0.0245762  -0.0067309   0.0242953
            7           8           9          10          11          12
    1  -0.0084468   0.0103712  -0.0123808  -0.0092029  -0.0130346  -0.0235730
    2  -0.0290798   0.0242756  -0.0348976   0.0320013  -0.0026767  -0.0119328
    3  -0.0149985   0.0027883   0.0332831  -0.0203407   0.0272249   0.0176177
           13          14          15          16          17          18
    1   0.0268634   0.0254114   0.0016246  -0.0779489   0.0228185   0.0361876
    2   0.0043316   0.0093740   0.0567217   0.0052075   0.0125083  -0.0210838
    3  -0.0108847  -0.0161464   0.0685563   0.0371956  -0.0183784  -0.0065740
           19          20          21          22          23          24
    1   0.0051947  -0.0166267  -0.0240454  -0.0228630   0.0239979   0.0007731
    2   0.0437792   0.0226375  -0.0079008  -0.0407405  -0.0081270  -0.0045934
    3   0.0119605  -0.0014147   0.0021221   0.0031277  -0.0457864  -0.0008945
           25          26          27          28          29          30
    1   0.0037780   0.0088659   0.0002218   0.0026033   0.0009702   0.0010731
    2   0.0036317  -0.0084851   0.0024591  -0.0032679  -0.0048920   0.0030280
    3  -0.0015724  -0.0050966   0.0073555  -0.0025929   0.0069832  -0.0040370
           31          32          33          34          35          36
    1   0.0084123  -0.0096118  -0.0154253   0.0143023   0.0251934   0.0163244
    2   0.0041673   0.0149561  -0.0337562  -0.0414769  -0.0131256   0.0131983
    3  -0.0065460  -0.0186843  -0.0252618  -0.0096917  -0.0026659   0.0150357
           37          38          39          40          41          42
    1  -0.0018642  -0.0122322  -0.0037459  -0.0006839  -0.0032569  -0.0104487
    2   0.0362848   0.0220090   0.0028757  -0.0064519  -0.0045556   0.0066177
    3   0.0300784  -0.0453384   0.0005314  -0.0032221   0.0007030  -0.0044693
           43          44          45          46          47          48
    1  -0.0010039  -0.0028373  -0.0045229   0.0012231  -0.0064315  -0.0023519
    2  -0.0059700   0.0032830   0.0001275  -0.0008237  -0.0027414  -0.0011755
    3   0.0050824  -0.0021892   0.0073831  -0.0047927  -0.0112313  -0.0046628
           49          50          51          52          53          54
    1  -0.0044961  -0.0031227   0.0065236   0.0094289  -0.0011143  -0.0012094
    2   0.0026530   0.0012246  -0.0002721  -0.0019194   0.0007638  -0.0001497
    3   0.0028038  -0.0019501   0.0021880  -0.0022742   0.0020066  -0.0009189
           55          56
    1   0.0004515  -0.0016003
    2   0.0132457  -0.0028716
    3   0.0051084  -0.0028180
 Max gradient component =       7.795E-02
 RMS gradient           =       1.813E-02
 Gradient time:  CPU 29.62 s  wall 0.63 s
 Geometry Optimization Parameters
   NAtoms,    NIC,     NZ,  NCons,   NDum,   NFix, NCnnct, MaxDiis
       56     458       0       9       0       0       0       0

 Cartesian Hessian Update
 Hessian Updated using BFGS Update


** CONSTRAINED OPTIMIZATION IN DELOCALIZED INTERNAL COORDINATES **
   Searching for a Minimum

   Optimization Cycle:   2

                       Coordinates (Angstroms)
     ATOM                X               Y               Z
      1  O        -3.2177876116    2.1995688152    1.6678748772
      2  C        -3.1296045714    1.4815713014    0.6582748657
      3  C        -4.2948959192    0.7157392943    0.0193652443
      4  C        -3.9788005670   -0.6576591717   -0.6470236231
      5  C        -2.5584030612   -1.2094341357   -0.4438405360
      6  O        -1.6630553644   -0.5526007486   -1.2786524043
      7  C        -0.2819045776   -0.6990367956   -0.8597906224
      8  C         0.6009267873   -1.1077832525   -2.0609757349
      9  O         2.0132587199   -0.8744819103   -1.8028327355
     10  C         2.4813747947   -1.3794443958   -0.6064995564
     11  C         3.9725560697   -1.0822694267   -0.4027855390
     12  C         4.3488922127    0.4242404244   -0.3245975277
     13  C         3.1694236517    1.3847318571   -0.1366807650
     14  O         2.2255958629    1.2324684853    0.6519129006
     15  O        -2.1600307479    1.7785136876   -0.2720378734
     16  O         3.3119511038    2.5144255002   -0.9117767722
     17  O         1.8868081031   -2.2172314542    0.0875836910
     18  C         2.2924869931    3.4604305532   -1.0777375846
     19  C         4.5376330700   -1.6012648012    0.9560666002
     20  C         6.0745788814   -1.7681780588    0.8376873849
     21  C         6.5246886226   -0.2972421463    0.8116518086
     22  C         5.1602820345    0.4158863037    1.0132646304
     23  O         4.4121532354   -0.4831121769    1.8420602847
     24  H         4.5075806631   -1.5810856909   -1.2387429426
     25  H         4.9729362723    0.7795279333   -1.1699938473
     26  H         4.0698455113   -2.5461729042    1.3018022952
     27  H         6.4320911127   -2.2332407791    1.7784232426
     28  H         6.4112178834   -2.3820241324   -0.0195987672
     29  H         7.1834709881   -0.1099120202    1.6823665489
     30  H         7.0325094730    0.0260536143   -0.1173353926
     31  H         5.3054003427    1.4358398313    1.4285951304
     32  O        -2.2730926566   -2.1854255409    0.2647300866
     33  C        -1.2497693710    2.8223321125   -0.0469744003
     34  C        -5.3513459586    0.2865795881    1.0856508520
     35  C        -6.7199679923    0.0576694476    0.3957686810
     36  C        -6.4478711369   -1.2586365505   -0.3486072104
     37  C        -4.9993526786   -1.5584494753    0.1238695888
     38  O        -4.9535236105   -1.0381991521    1.4585502974
     39  H        -4.7606248250    1.4202192085   -0.7015077295
     40  H        -4.1933393090   -0.6810376180   -1.7357478079
     41  H        -0.5731430705    2.5973340540    0.8065668546
     42  H        -5.4579426218    1.0100262235    1.9208217093
     43  H        -7.4696513670   -0.1298730073    1.1906057653
     44  H        -7.0649158809    0.8978187418   -0.2368667408
     45  H        -7.1371419589   -2.0353623187    0.0374062795
     46  H        -6.5294551089   -1.2040406373   -1.4512103292
     47  H        -4.7783539038   -2.6416611361    0.0220469260
     48  H        -1.7788932764    3.7825925219    0.1458571756
     49  H        -0.6694090387    2.9470041593   -0.9743152380
     50  H         2.7112808651    4.3275442445   -1.6286394311
     51  H         1.8948459110    3.8175674681   -0.1021906071
     52  H         1.4878622982    3.0333717103   -1.7070760232
     53  H         0.4187931191   -2.1783366497   -2.3048357893
     54  H         0.3356973289   -0.4932599855   -2.9463204731
     55  H        -0.1613550484   -1.3093383273    0.0527405120
     56  H         0.0538149157    0.3219750446   -0.5769136132
   Point Group: c1    Number of degrees of freedom:   162


   Energy is  -1510.205765780

              Constraints and their Current Values
                                        Value     Constraint
   Dihedral:        1   2   3   4     -146.493     -146.425
   Dihedral:        3   4   5   6      -77.346      -77.348
   Dihedral:        4   5   6   7      161.476      161.508
   Dihedral:        5   6   7   8      131.715      131.715
   Dihedral:        6   7   8   9      162.545      162.573
   Dihedral:        7   8   9  10       49.805       49.817
   Dihedral:        8   9  10  11     -179.487     -179.497
   Dihedral:        9  10  11  12       62.290       62.234
   Dihedral:       11  12  13  14       44.490       44.498
 Hessian Updated using BFGS Update

   Using Lagrange Multiplier Algorithm


157 Hessian modes will be used to form the next step
  Hessian Eigenvalues:
    -0.977753   -0.977753   -0.977753   -0.977753   -0.977753   -0.977753
    -0.977753   -0.974318    0.044903    0.045008    0.045074    0.045245
     0.045560    0.045584    0.046140    0.048344    0.048893    0.048897
     0.053948    0.059991    0.060045    0.062626    0.062965    0.067072
     0.067121    0.067153    0.067215    0.068800    0.071197    0.071506
     0.073590    0.073752    0.075907    0.076183    0.076607    0.077018
     0.082416    0.082510    0.083828    0.084353    0.084602    0.084638
     0.085178    0.085473    0.086248    0.086432    0.086785    0.087317
     0.088418    0.088729    0.089099    0.089221    0.089717    0.089828
     0.093913    0.094000    0.096623    0.096641    0.111556    0.111614
     0.114112    0.114130    0.117199    0.117220    0.117318    0.117484
     0.117742    0.118048    0.118486    0.123717    0.124949    0.130479
     0.130755    0.132220    0.139864    0.140915    0.159619    0.161737
     0.170031    0.171978    0.172224    0.172712    0.215777    0.219472
     0.228995    0.236437    0.238375    0.240186    0.242199    0.247999
     0.249743    0.254752    0.258663    0.261605    0.267334    0.267457
     0.279708    0.281148    0.282412    0.286980    0.295882    0.297244
     0.302028    0.308082    0.310322    0.312163    0.320771    0.322132
     0.322264    0.322340    0.322476    0.322587    0.322715    0.322820
     0.322949    0.323417    0.323817    0.324145    0.324260    0.324438
     0.324528    0.324581    0.324641    0.324648    0.325024    0.325110
     0.325243    0.326821    0.328306    0.330868    0.334592    0.335345
     0.340309    0.369538    0.370581    0.385802    0.397367    0.405613
     0.443768    0.488352    0.507370    0.522913    0.530607    0.539556
     0.545452    0.924799    0.937414    0.942377    0.974309    1.022753
     1.022753    1.022753    1.022753    1.022753    1.022753    1.022753
     1.051337

 Minimum Search - Taking P-RFO Step
 Searching for Lamda that Maximizes Along the Constraint modes Only
 Value Taken    Lamda =   0.00035894
 Searching for Lamda that Minimizes Along All other modes
 Value Taken    Lamda =  -0.08877281
 Calculated Step too Large.  Step scaled by  0.555404
 Step Taken.  Stepsize is  0.300000

                             Maximum     Tolerance    Cnvgd?
         Gradient            0.067241       0.000300      NO
         Displacement        0.087586       0.001200      NO
         Energy change     -0.071492       0.000001      NO


 New Cartesian Coordinates Obtained by Inverse Iteration

 Displacement from previous Coordinates is:  1.656484
 Adding empirical dispersion correction 
 ----------------------------------------------------------------
 Doing -D3(op) with
 s6 =   1.00000
 s8 =   0.78311
 a1 =   0.30000
 a2 =   4.25000
 n  =  10.00000
 -D3 energy without 3body term =     -0.0701309002 hartrees
 ----------------------------------------------------------------
             Standard Nuclear Orientation (Angstroms)
    I     Atom           X                Y                Z
 ----------------------------------------------------------------
    1      O      -3.1391593722     2.2247244225     1.6761086363
    2      C      -3.0657979998     1.5024702416     0.6579504628
    3      C      -4.2575786673     0.7443535022     0.0123078053
    4      C      -3.9655326123    -0.6430027693    -0.6636293659
    5      C      -2.5365842580    -1.2100089589    -0.4544208227
    6      O      -1.6419954369    -0.5388611325    -1.3075076825
    7      C      -0.2505367021    -0.6911199889    -0.8847949321
    8      C       0.6348751761    -1.1011253852    -2.0972502866
    9      O       2.0546577525    -0.8672434557    -1.8253611289
   10      C       2.4862420889    -1.3978653179    -0.6034034004
   11      C       3.9893000073    -1.0914375866    -0.4014739450
   12      C       4.3304910407     0.4313808075    -0.3270700698
   13      C       3.0851840661     1.3390869826    -0.1753654649
   14      O       2.1196580719     1.1484103732     0.5911468257
   15      O      -2.0596649643     1.7335044788    -0.2857399580
   16      O       3.2069828137     2.4715979519    -0.9832459352
   17      O       1.8497571082    -2.2206848318     0.0860607820
   18      C       2.0529952222     3.3078354199    -1.0991716977
   19      C       4.5526403193    -1.6007383364     0.9740243077
   20      C       6.1069676195    -1.7326845638     0.8519065926
   21      C       6.5278319352    -0.2346682029     0.8234654038
   22      C       5.1372968582     0.4572615633     1.0309119931
   23      O       4.3965177178    -0.4681097907     1.8725832027
   24      H       4.5380297466    -1.5826902416    -1.2298630985
   25      H       4.9482352616     0.7984593515    -1.1679106765
   26      H       4.0852887316    -2.5423197002     1.3250445262
   27      H       6.4800890258    -2.1928418802     1.7847302816
   28      H       6.4503305363    -2.3354605052    -0.0065754281
   29      H       7.1858022010    -0.0252568508     1.6852175107
   30      H       7.0225967819     0.0947582722    -0.1065341694
   31      H       5.2404452089     1.4783655686     1.4510991682
   32      O      -2.2382260146    -2.1838152662     0.2646319766
   33      C      -1.1206048627     2.7636137415     0.0463638145
   34      C      -5.3279679078     0.3344352272     1.0886768983
   35      C      -6.7077248543     0.1282942953     0.3820519152
   36      C      -6.4530628038    -1.2063906707    -0.3698618085
   37      C      -5.0013133756    -1.5411718985     0.1142457086
   38      O      -4.9476888989    -1.0171223645     1.4706254899
   39      H      -4.7039395343     1.4523733575    -0.7142212380
   40      H      -4.1795889091    -0.6555756341    -1.7502356738
   41      H      -0.4953692604     2.4912827025     0.9241912424
   42      H      -5.4064213937     1.0539401864     1.9284024406
   43      H      -7.4685653152    -0.0383807829     1.1657670179
   44      H      -7.0257867084     0.9733976032    -0.2526514329
   45      H      -7.1568099427    -1.9723038814     0.0011941095
   46      H      -6.5252620425    -1.1442243138    -1.4695928622
   47      H      -4.7854777003    -2.6246907890     0.0242507362
   48      H      -1.6314768956     3.7292355674     0.2566111766
   49      H      -0.4800942931     2.9019061839    -0.8422209805
   50      H       2.3607525543     4.2201294324    -1.6475998208
   51      H       1.6458965377     3.6045487973    -0.1081120389
   52      H       1.2666301988     2.8029920931    -1.6979930687
   53      H       0.4504356520    -2.1683083288    -2.3553316790
   54      H       0.3798635260    -0.4754241240    -2.9770153010
   55      H      -0.1271003040    -1.3349966393     0.0070069997
   56      H       0.0898628626     0.3254037949    -0.5829864426
 ----------------------------------------------------------------
 Molecular Point Group                 C1    NOp =  1
 Largest Abelian Subgroup              C1    NOp =  1
 Nuclear Repulsion Energy =  3176.1261904102 hartrees
 There are      113 alpha and      113 beta electrons
 Applying Cartesian multipole field
    Component          Value
    ---------          -----
     (2,0,0)        1.00000E-12
     (0,2,0)        2.00000E-11
     (0,0,2)       -3.00000E-11
 Nucleus-field energy     =     0.0000000272 hartrees
 Requested basis set is STO-3G
 There are 86 shells and 176 basis functions
 A cutoff of  1.0D-12 yielded   2191 shell pairs
 There are     10399 function pairs
 Smallest overlap matrix eigenvalue = 2.07E-01
 Guess MOs from SCF MO coefficient file
 Reading MOs from coefficient file
 Reading MOs from coefficient file
 A restricted hybrid HF-DFT SCF calculation will be
 performed using Pulay DIIS extrapolation
 Exchange:     0.2000 Hartree-Fock + 0.0800 Slater + 0.7200 B88
 Correlation:  0.1900 VWN1RPA + 0.8100 LYP
 Using SG-1 standard quadrature grid
 Dispersion:   Grimme D3
 SCF converges when DIIS error is below 1.0E-08
 Geometry optimization detected.  Setting ReadMinima to 0
 Setting SaveMinima to 0
 using 48 threads for integral computing
 -------------------------------------------------------
 OpenMP Integral computing Module                
 Release: version 1.0, May 2013, Q-Chem Inc. Pittsburgh 
 -------------------------------------------------------
 -------------------------------------------------------
 OpenMP BLAS3 based DFT computing Module                
 Release: version 1.0, May 2013, Q-Chem Inc. Pittsburgh 
 -------------------------------------------------------
 ---------------------------------------
  Cycle       Energy         DIIS Error
 ---------------------------------------
    1   -1510.0919530558      3.23E-03
    2   -1510.2392283712      8.91E-04
    3   -1510.2313967916      1.64E-03
    4   -1510.2424812177      3.12E-04
    5   -1510.2429063910      6.41E-05
    6   -1510.2429221607      2.88E-05
    7   -1510.2429249721      1.55E-05
    8   -1510.2429260353      2.89E-06
    9   -1510.2429260721      1.41E-06
   10   -1510.2429260800      5.67E-07
   11   -1510.2429260815      1.35E-07
   12   -1510.2429260817      3.93E-08
   13   -1510.2429260818      1.63E-08
   14   -1510.2429260818      6.88E-09 Convergence criterion met
 ---------------------------------------
 SCF time:  CPU 100.37 s  wall 2.10 s
 SCF   energy in the final basis set = -1510.24292608
 Total energy in the final basis set = -1510.24292608
 
 --------------------------------------------------------------
 
                    Orbital Energies (a.u.)
 --------------------------------------------------------------
 
 Alpha MOs
 -- Occupied --
-18.944 -18.942 -18.933 -18.930 -18.896 -18.889 -18.871 -18.871
-18.868 -18.863 -10.108 -10.105 -10.099 -10.097 -10.081 -10.079
-10.068 -10.065 -10.061 -10.061 -10.057 -10.055 -10.040 -10.039
-10.039 -10.033 -10.019 -10.017 -10.013 -10.012  -1.032  -1.025
 -1.023  -1.012  -0.990  -0.983  -0.946  -0.943  -0.936  -0.932
 -0.773  -0.766  -0.733  -0.727  -0.718  -0.708  -0.700  -0.681
 -0.667  -0.623  -0.601  -0.587  -0.551  -0.545  -0.537  -0.532
 -0.519  -0.510  -0.487  -0.480  -0.473  -0.467  -0.459  -0.455
 -0.441  -0.434  -0.431  -0.427  -0.421  -0.416  -0.409  -0.404
 -0.390  -0.388  -0.380  -0.373  -0.367  -0.364  -0.358  -0.355
 -0.346  -0.344  -0.340  -0.336  -0.334  -0.328  -0.327  -0.311
 -0.308  -0.305  -0.303  -0.301  -0.291  -0.289  -0.281  -0.274
 -0.268  -0.254  -0.246  -0.245  -0.236  -0.234  -0.231  -0.183
 -0.183  -0.174  -0.161  -0.157  -0.152  -0.151  -0.145  -0.144
 -0.142
 -- Virtual --
  0.092   0.095   0.105   0.107   0.214   0.238   0.252   0.269
  0.283   0.294   0.301   0.308   0.318   0.326   0.342   0.348
  0.352   0.357   0.359   0.361   0.366   0.369   0.373   0.378
  0.384   0.386   0.394   0.400   0.403   0.406   0.411   0.412
  0.416   0.418   0.420   0.423   0.426   0.433   0.436   0.443
  0.444   0.444   0.451   0.457   0.460   0.469   0.470   0.476
  0.478   0.489   0.495   0.497   0.504   0.521   0.524   0.542
  0.551   0.555   0.560   0.638   0.650   0.659   0.661
 --------------------------------------------------------------
 
          Ground-State Mulliken Net Atomic Charges

     Atom                 Charge (a.u.)
  ----------------------------------------
      1 O                    -0.218632
      2 C                     0.212468
      3 C                    -0.076682
      4 C                    -0.079520
      5 C                     0.216539
      6 O                    -0.176400
      7 C                    -0.057141
      8 C                    -0.043023
      9 O                    -0.182588
     10 C                     0.219452
     11 C                    -0.079587
     12 C                    -0.079494
     13 C                     0.220267
     14 O                    -0.222422
     15 O                    -0.183335
     16 O                    -0.185825
     17 O                    -0.213208
     18 C                    -0.115181
     19 C                     0.031210
     20 C                    -0.143999
     21 C                    -0.145137
     22 C                     0.031864
     23 O                    -0.191057
     24 H                     0.086472
     25 H                     0.087848
     26 H                     0.093334
     27 H                     0.077092
     28 H                     0.073048
     29 H                     0.077187
     30 H                     0.073159
     31 H                     0.081606
     32 O                    -0.210395
     33 C                    -0.118119
     34 C                     0.029180
     35 C                    -0.144556
     36 C                    -0.145855
     37 C                     0.031228
     38 O                    -0.193344
     39 H                     0.087414
     40 H                     0.084022
     41 H                     0.094088
     42 H                     0.090989
     43 H                     0.076189
     44 H                     0.071714
     45 H                     0.075925
     46 H                     0.071066
     47 H                     0.087263
     48 H                     0.084927
     49 H                     0.087401
     50 H                     0.094006
     51 H                     0.091088
     52 H                     0.083442
     53 H                     0.087406
     54 H                     0.093328
     55 H                     0.117190
     56 H                     0.086085
  ----------------------------------------
  Sum of atomic charges =    -0.000000

 -----------------------------------------------------------------
                    Cartesian Multipole Moments
 -----------------------------------------------------------------
    Charge (ESU x 10^10)
                -0.0000
    Dipole Moment (Debye)
         X       1.5693      Y       2.2635      Z      -4.5183
       Tot       5.2917
    Quadrupole Moments (Debye-Ang)
        XX    -137.1526     XY      -2.0920     YY    -156.5022
        XZ       5.9785     YZ       1.6364     ZZ    -166.3665
    Octopole Moments (Debye-Ang^2)
       XXX      17.7581    XXY     -11.0136    XYY      19.2446
       YYY      36.3734    XXZ     -33.6092    XYZ       1.0405
       YYZ     -17.9555    XZZ       4.9165    YZZ      -3.8217
       ZZZ     -10.3266
    Hexadecapole Moments (Debye-Ang^3)
      XXXX  -14655.1845   XXXY     -42.7094   XXYY   -2986.2047
      XYYY      72.9352   YYYY   -2389.5465   XXXZ      95.1965
      XXYZ      38.1649   XYYZ      33.1279   YYYZ     -27.8935
      XXZZ   -2867.6215   XYZZ      21.9138   YYZZ    -595.1666
      XZZZ     -11.7644   YZZZ      -4.1143   ZZZZ   -1108.6782
 -----------------------------------------------------------------
 Calculating analytic gradient of the SCF energy
 Gradient of SCF Energy
            1           2           3           4           5           6
    1   0.0020813   0.0098484  -0.0011371   0.0091300   0.0041205   0.0016200
    2   0.0069965  -0.0388952   0.0017023   0.0059046   0.0122248  -0.0086836
    3  -0.0202026  -0.0070692   0.0079661   0.0107370  -0.0038366   0.0130713
            7           8           9          10          11          12
    1  -0.0046827   0.0089994  -0.0085198  -0.0061468  -0.0077994  -0.0142206
    2  -0.0237881   0.0170567  -0.0227035   0.0309786  -0.0014259  -0.0097971
    3  -0.0083473  -0.0008726   0.0183959  -0.0125210   0.0143500   0.0053301
           13          14          15          16          17          18
    1   0.0163322   0.0121826   0.0010070  -0.0460754   0.0100196   0.0216489
    2   0.0056836   0.0057500   0.0329494  -0.0008797   0.0009016  -0.0134202
    3  -0.0110608  -0.0041697   0.0394422   0.0243657  -0.0080305  -0.0034944
           19          20          21          22          23          24
    1  -0.0009214  -0.0086893  -0.0104312  -0.0135297   0.0135489   0.0012397
    2   0.0253962   0.0096156  -0.0021492  -0.0234836  -0.0041153  -0.0032492
    3   0.0096836  -0.0039130  -0.0004955   0.0051518  -0.0242153   0.0003069
           25          26          27          28          29          30
    1   0.0024455   0.0069138  -0.0007364   0.0019000  -0.0002149   0.0004737
    2   0.0024989  -0.0061877   0.0024993  -0.0024964  -0.0037657   0.0023254
    3   0.0000900  -0.0047227   0.0043708  -0.0002143   0.0041178  -0.0014409
           31          32          33          34          35          36
    1   0.0062170  -0.0051316  -0.0088131   0.0100933   0.0129179   0.0082509
    2   0.0029957   0.0028574  -0.0208883  -0.0247121  -0.0045794   0.0061943
    3  -0.0057131  -0.0093225  -0.0154447  -0.0020427  -0.0031019   0.0052744
           37          38          39          40          41          42
    1   0.0007895  -0.0062006  -0.0021059  -0.0005486  -0.0016954  -0.0079840
    2   0.0191186   0.0115724   0.0015731  -0.0056899  -0.0017480   0.0055928
    3   0.0207088  -0.0235595   0.0007069  -0.0017472   0.0009260  -0.0044497
           43          44          45          46          47          48
    1   0.0004162  -0.0024614  -0.0022501   0.0007660  -0.0050198  -0.0008491
    2  -0.0042284   0.0016530   0.0010776  -0.0013464  -0.0013599   0.0004867
    3   0.0029293  -0.0002487   0.0050639  -0.0022444  -0.0094921  -0.0028629
           49          50          51          52          53          54
    1   0.0015742  -0.0019462   0.0021804   0.0027201  -0.0013248  -0.0008047
    2   0.0028808   0.0007536   0.0011197  -0.0003355   0.0001786  -0.0001746
    3  -0.0009871  -0.0011722   0.0017487  -0.0018902   0.0008441  -0.0004906
           55          56
    1   0.0018287  -0.0010262
    2   0.0096990  -0.0001335
    3   0.0058750  -0.0020805
 Max gradient component =       4.608E-02
 RMS gradient           =       1.097E-02
 Gradient time:  CPU 30.85 s  wall 0.65 s
 Geometry Optimization Parameters
   NAtoms,    NIC,     NZ,  NCons,   NDum,   NFix, NCnnct, MaxDiis
       56     458       0       9       0       0       0       0

 Cartesian Hessian Update
 Hessian Updated using BFGS Update


** CONSTRAINED OPTIMIZATION IN DELOCALIZED INTERNAL COORDINATES **
   Searching for a Minimum

   Optimization Cycle:   3

                       Coordinates (Angstroms)
     ATOM                X               Y               Z
      1  O        -3.1391593722    2.2247244225    1.6761086363
      2  C        -3.0657979998    1.5024702416    0.6579504628
      3  C        -4.2575786673    0.7443535022    0.0123078053
      4  C        -3.9655326123   -0.6430027693   -0.6636293659
      5  C        -2.5365842580   -1.2100089589   -0.4544208227
      6  O        -1.6419954369   -0.5388611325   -1.3075076825
      7  C        -0.2505367021   -0.6911199889   -0.8847949321
      8  C         0.6348751761   -1.1011253852   -2.0972502866
      9  O         2.0546577525   -0.8672434557   -1.8253611289
     10  C         2.4862420889   -1.3978653179   -0.6034034004
     11  C         3.9893000073   -1.0914375866   -0.4014739450
     12  C         4.3304910407    0.4313808075   -0.3270700698
     13  C         3.0851840661    1.3390869826   -0.1753654649
     14  O         2.1196580719    1.1484103732    0.5911468257
     15  O        -2.0596649643    1.7335044788   -0.2857399580
     16  O         3.2069828137    2.4715979519   -0.9832459352
     17  O         1.8497571082   -2.2206848318    0.0860607820
     18  C         2.0529952222    3.3078354199   -1.0991716977
     19  C         4.5526403193   -1.6007383364    0.9740243077
     20  C         6.1069676195   -1.7326845638    0.8519065926
     21  C         6.5278319352   -0.2346682029    0.8234654038
     22  C         5.1372968582    0.4572615633    1.0309119931
     23  O         4.3965177178   -0.4681097907    1.8725832027
     24  H         4.5380297466   -1.5826902416   -1.2298630985
     25  H         4.9482352616    0.7984593515   -1.1679106765
     26  H         4.0852887316   -2.5423197002    1.3250445262
     27  H         6.4800890258   -2.1928418802    1.7847302816
     28  H         6.4503305363   -2.3354605052   -0.0065754281
     29  H         7.1858022010   -0.0252568508    1.6852175107
     30  H         7.0225967819    0.0947582722   -0.1065341694
     31  H         5.2404452089    1.4783655686    1.4510991682
     32  O        -2.2382260146   -2.1838152662    0.2646319766
     33  C        -1.1206048627    2.7636137415    0.0463638145
     34  C        -5.3279679078    0.3344352272    1.0886768983
     35  C        -6.7077248543    0.1282942953    0.3820519152
     36  C        -6.4530628038   -1.2063906707   -0.3698618085
     37  C        -5.0013133756   -1.5411718985    0.1142457086
     38  O        -4.9476888989   -1.0171223645    1.4706254899
     39  H        -4.7039395343    1.4523733575   -0.7142212380
     40  H        -4.1795889091   -0.6555756341   -1.7502356738
     41  H        -0.4953692604    2.4912827025    0.9241912424
     42  H        -5.4064213937    1.0539401864    1.9284024406
     43  H        -7.4685653152   -0.0383807829    1.1657670179
     44  H        -7.0257867084    0.9733976032   -0.2526514329
     45  H        -7.1568099427   -1.9723038814    0.0011941095
     46  H        -6.5252620425   -1.1442243138   -1.4695928622
     47  H        -4.7854777003   -2.6246907890    0.0242507362
     48  H        -1.6314768956    3.7292355674    0.2566111766
     49  H        -0.4800942931    2.9019061839   -0.8422209805
     50  H         2.3607525543    4.2201294324   -1.6475998208
     51  H         1.6458965377    3.6045487973   -0.1081120389
     52  H         1.2666301988    2.8029920931   -1.6979930687
     53  H         0.4504356520   -2.1683083288   -2.3553316790
     54  H         0.3798635260   -0.4754241240   -2.9770153010
     55  H        -0.1271003040   -1.3349966393    0.0070069997
     56  H         0.0898628626    0.3254037949   -0.5829864426
   Point Group: c1    Number of degrees of freedom:   162


   Energy is  -1510.242926082

              Constraints and their Current Values
                                        Value     Constraint
   Dihedral:        1   2   3   4     -146.446     -146.425
   Dihedral:        3   4   5   6      -77.360      -77.348
   Dihedral:        4   5   6   7      161.516      161.508
   Dihedral:        5   6   7   8      131.715      131.715
   Dihedral:        6   7   8   9      162.590      162.573
   Dihedral:        7   8   9  10       49.800       49.817
   Dihedral:        8   9  10  11     -179.544     -179.497
   Dihedral:        9  10  11  12       62.231       62.234
   Dihedral:       11  12  13  14       44.502       44.498
 Hessian Updated using BFGS Update

   Using Lagrange Multiplier Algorithm


160 Hessian modes will be used to form the next step
  Hessian Eigenvalues:
    -0.977754   -0.977753   -0.977753   -0.977753   -0.977753   -0.977753
    -0.977651   -0.937470    0.043875    0.045006    0.045032    0.045135
     0.045282    0.045479    0.045568    0.046025    0.048642    0.048891
     0.049942    0.053489    0.057520    0.060061    0.062423    0.062977
     0.066502    0.067098    0.067135    0.067201    0.067979    0.070403
     0.071215    0.073614    0.073726    0.075969    0.076183    0.076874
     0.078137    0.082374    0.082509    0.083802    0.084369    0.084598
     0.084724    0.084984    0.085561    0.085831    0.086306    0.086882
     0.087461    0.088615    0.089059    0.089206    0.089641    0.089762
     0.091356    0.093596    0.093944    0.096607    0.096626    0.111533
     0.111608    0.113244    0.114123    0.114916    0.117216    0.117471
     0.117535    0.118031    0.118132    0.120154    0.123376    0.124695
     0.128586    0.130801    0.131771    0.137075    0.141886    0.158292
     0.160103    0.162022    0.170111    0.171927    0.172481    0.175115
     0.187602    0.219969    0.232355    0.236390    0.238415    0.240187
     0.242180    0.247999    0.249760    0.253192    0.258626    0.259921
     0.267323    0.267430    0.279608    0.280974    0.282384    0.286692
     0.295880    0.296948    0.301500    0.305984    0.309565    0.311966
     0.318392    0.322131    0.322234    0.322263    0.322439    0.322548
     0.322662    0.322808    0.322903    0.323113    0.323434    0.324109
     0.324256    0.324326    0.324449    0.324561    0.324598    0.324648
     0.324923    0.325109    0.325221    0.326629    0.327802    0.329715
     0.334509    0.335191    0.339730    0.358664    0.369471    0.370550
     0.385828    0.397282    0.407087    0.447081    0.505512    0.507327
     0.523422    0.528143    0.537423    0.565578    0.924954    0.937713
     0.942300    0.976377    1.022753    1.022753    1.022753    1.022753
     1.022753    1.022753    1.023697    1.166105

 Minimum Search - Taking P-RFO Step
 Searching for Lamda that Maximizes Along the Constraint modes Only
 Value Taken    Lamda =   0.00331044
 Searching for Lamda that Minimizes Along All other modes
 Value Taken    Lamda =  -0.07334487
 Calculated Step too Large.  Step scaled by  0.483194
 Step Taken.  Stepsize is  0.300000

                             Maximum     Tolerance    Cnvgd?
         Gradient            0.064524       0.000300      NO
         Displacement        0.136448       0.001200      NO
         Energy change     -0.037160       0.000001      NO


 New Cartesian Coordinates Obtained by Inverse Iteration

 Displacement from previous Coordinates is:  3.674036
 Adding empirical dispersion correction 
 ----------------------------------------------------------------
 Doing -D3(op) with
 s6 =   1.00000
 s8 =   0.78311
 a1 =   0.30000
 a2 =   4.25000
 n  =  10.00000
 -D3 energy without 3body term =     -0.0670770976 hartrees
 ----------------------------------------------------------------
             Standard Nuclear Orientation (Angstroms)
    I     Atom           X                Y                Z
 ----------------------------------------------------------------
    1      O      -3.4529378075     2.3442371794     1.6606485408
    2      C      -3.3027703107     1.6136316507     0.6519762227
    3      C      -4.4220094505     0.7281847757     0.0108212795
    4      C      -4.0330683918    -0.6558474643    -0.6559096482
    5      C      -2.5589155184    -1.1589208670    -0.4701724386
    6      O      -1.6676539281    -0.4643751890    -1.3372833985
    7      C      -0.2763789654    -0.6072550532    -0.8647375478
    8      C       0.6357715331    -1.0223530812    -2.0732956368
    9      O       2.0849856788    -0.8112427342    -1.8569615448
   10      C       2.5200219567    -1.3623713510    -0.6236262043
   11      C       4.0496649798    -1.1056860082    -0.4284572874
   12      C       4.4974535889     0.4015036867    -0.3470660459
   13      C       3.3109871992     1.4055973934    -0.2652941748
   14      O       2.2815595623     1.3234524523     0.4430395685
   15      O      -2.3024493368     1.9040404072    -0.3066548109
   16      O       3.6235096804     2.5037634824    -1.1044094760
   17      O       1.8397095260    -2.1418834631     0.0815743614
   18      C       2.5127195343     3.4317974634    -1.2514254434
   19      C       4.5438259879    -1.6466734376     0.9720201498
   20      C       6.0976828984    -1.8824843855     0.8855370703
   21      C       6.6211779611    -0.4072344608     0.8635481759
   22      C       5.2703309364     0.3859173781     1.0419304649
   23      O       4.4354907720    -0.4899543838     1.8775831580
   24      H       4.5840865296    -1.6306087607    -1.2426497928
   25      H       5.1584980684     0.7175001736    -1.1726765527
   26      H       3.9937089772    -2.5437828765     1.3166541620
   27      H       6.4230527504    -2.3683774073     1.8203721723
   28      H       6.4137429341    -2.5046980965     0.0331131495
   29      H       7.2764257798    -0.2339458603     1.7323851209
   30      H       7.1530783035    -0.1196077260    -0.0572535704
   31      H       5.4217936899     1.3977674023     1.4664351904
   32      O      -2.2083061555    -2.1091062523     0.2640590077
   33      C      -1.5017177398     3.0453159295     0.1197183683
[...]
     15  O        -1.8256279493    1.1252807037    0.6782280918
     16  O         3.1071489714    2.2905644456   -1.6198829860
     17  O         1.8241818537   -2.0552780018    0.3241685822
     18  C         1.8623331197    3.0938061218   -1.6856089444
     19  C         4.6440543165   -1.4110752849    1.0020949806
     20  C         6.2174252858   -1.4386007063    0.8790711302
     21  C         6.5315478331    0.0934305746    0.7000210251
     22  C         5.0846344001    0.7199332022    0.8098508666
     23  O         4.3815252434   -0.1662922621    1.7628710594
     24  H         4.5695598956   -1.6610453767   -1.2273911734
     25  H         4.9286897438    0.7067397599   -1.4398501265
     26  H         4.1788933337   -2.2784827000    1.5099166721
     27  H         6.6685507238   -1.8376708251    1.8014668416
     28  H         6.5592997203   -2.0463020409    0.0261852369
     29  H         7.1784524675    0.4728726481    1.5067780970
     30  H         7.0047406854    0.3199433086   -0.2687729966
     31  H         5.0516876737    1.7703066170    1.1591479731
     32  O        -2.1597006762   -1.9474238648    0.5134199311
     33  C        -0.8577007583    1.7085017883    1.6400220129
     34  C        -5.5587017037    0.7246460995    0.7330903191
     35  C        -6.7220037573    0.4114993887   -0.2891486876
     36  C        -6.4433953779   -1.1017520406   -0.6231158990
     37  C        -5.1004846236   -1.3349800575    0.1719372531
     38  O        -5.3202235216   -0.5679464245    1.4191712064
     39  H        -4.2929631842    1.6470461953   -0.8876148040
     40  H        -4.1307885781   -0.5481311132   -1.6755225427
     41  H        -0.9241400189    1.2001870216    2.6232404579
     42  H        -5.7656150345    1.5237684237    1.4715660328
     43  H        -7.7053141816    0.5491610047    0.1874891743
     44  H        -6.6691834377    1.0571310175   -1.1805523511
     45  H        -7.2396145754   -1.7528087224   -0.2279376011
     46  H        -6.3344144581   -1.2900148269   -1.7030625658
     47  H        -4.8495757635   -2.3881961610    0.4042065160
     48  H        -1.0430157973    2.7910068612    1.7882748474
     49  H         0.1491111397    1.5470198521    1.2035477066
     50  H         2.0282541916    3.8490072104   -2.4754212028
     51  H         1.6526524813    3.6018545917   -0.7223034086
     52  H         0.9876983514    2.4651838167   -1.9506990675
     53  H         0.4529586466   -2.3392476599   -2.2456569073
     54  H         0.4375567770   -0.7152272031   -3.0365053604
     55  H        -0.1812924499   -1.3841265666   -0.0518540795
     56  H         0.1634959790    0.2947532670   -0.6254671444
   Point Group: c1    Number of degrees of freedom:   162


   Energy is  -1510.282695110

              Constraints and their Current Values
                                        Value     Constraint
   Dihedral:        1   2   3   4     -146.425     -146.425
   Dihedral:        3   4   5   6      -77.348      -77.348
   Dihedral:        4   5   6   7      161.508      161.508
   Dihedral:        5   6   7   8      131.715      131.715
   Dihedral:        6   7   8   9      162.573      162.573
   Dihedral:        7   8   9  10       49.817       49.817
   Dihedral:        8   9  10  11     -179.497     -179.497
   Dihedral:        9  10  11  12       62.234       62.234
   Dihedral:       11  12  13  14       44.498       44.498
 Hessian Updated using BFGS Update

153 Hessian modes will be used to form the next step
  Hessian Eigenvalues:
     0.002744    0.003736    0.009054    0.023032    0.028130    0.033007
     0.042588    0.045052    0.045716    0.046219    0.047451    0.048984
     0.050794    0.055333    0.058036    0.059956    0.061778    0.065043
     0.065913    0.067340    0.067587    0.068182    0.070214    0.072674
     0.073737    0.074025    0.076064    0.077440    0.078042    0.078226
     0.082170    0.082751    0.083506    0.084461    0.084720    0.084891
     0.085348    0.085851    0.086343    0.087046    0.087496    0.087947
     0.089066    0.089183    0.089581    0.089945    0.091777    0.092188
     0.094064    0.094262    0.096650    0.096711    0.111525    0.111642
     0.114369    0.114601    0.117347    0.117656    0.118031    0.119197
     0.120106    0.120544    0.123608    0.124630    0.125936    0.131760
     0.133142    0.136853    0.157263    0.158488    0.160008    0.160120
     0.160671    0.160836    0.162700    0.166534    0.173009    0.173369
     0.196610    0.202261    0.221560    0.236751    0.238278    0.241151
     0.241602    0.246148    0.248474    0.250657    0.255123    0.258103
     0.265093    0.267039    0.267658    0.272660    0.276064    0.280265
     0.281650    0.283463    0.290315    0.295708    0.296377    0.297329
     0.308710    0.309287    0.312633    0.317931    0.320525    0.322144
     0.322284    0.322493    0.322555    0.322744    0.322784    0.322947
     0.323114    0.323509    0.323656    0.324196    0.324277    0.324454
     0.324551    0.324622    0.324686    0.325107    0.325267    0.325677
     0.326122    0.326918    0.328695    0.333552    0.335377    0.338472
     0.341392    0.367999    0.369529    0.379088    0.384001    0.400185
     0.410977    0.448372    0.452609    0.502170    0.505427    0.516558
     0.529615    0.551205    0.594051    0.724835    0.927245    0.937997
     0.949679    1.006149    1.053074

 Minimum Search - Taking Simple RFO Step
 Searching for Lamda that Minimizes Along All modes
 Value Taken    Lamda =   0.00000000
 Step Taken.  Stepsize is  0.007904

                             Maximum     Tolerance    Cnvgd?
         Gradient           0.000104      0.000300     YES
         Displacement       0.003587      0.001200      NO
         Energy change     -0.000000      0.000001     YES

 Final energy is   -1510.28269511037     


 ******************************
 **  OPTIMIZATION CONVERGED  **
 ******************************

                       Coordinates (Angstroms)
     ATOM                X               Y               Z
      1  O        -3.4435034548    2.3338216643    1.9039263408
      2  C        -3.1544285876    1.5421477536    0.9792794764
      3  C        -4.1938598240    0.9364246031   -0.0457662963
      4  C        -3.9510186759   -0.5401816033   -0.5848700135
      5  C        -2.5178224035   -1.1280098605   -0.3593137717
      6  O        -1.6477762516   -0.5419671186   -1.3416007959
      7  C        -0.2390482998   -0.6978924095   -0.9207290395
      8  C         0.6479196921   -1.2552321603   -2.0909086239
      9  O         2.0922632899   -1.0223468076   -1.8226159935
     10  C         2.5130446291   -1.4454043866   -0.5193803221
     11  C         4.0431263930   -1.1060516986   -0.4298799566
     12  C         4.3150914205    0.4543279224   -0.5577105958
     13  C         2.9909617642    1.2933432988   -0.6048394609
     14  O         1.9806789147    1.1532164475    0.1244475021
     15  O        -1.8256279493    1.1252807037    0.6782280918
     16  O         3.1071489714    2.2905644456   -1.6198829860
     17  O         1.8241818537   -2.0552780018    0.3241685822
     18  C         1.8623331197    3.0938061218   -1.6856089444
     19  C         4.6440543165   -1.4110752849    1.0020949806
     20  C         6.2174252858   -1.4386007063    0.8790711302
     21  C         6.5315478331    0.0934305746    0.7000210251
     22  C         5.0846344001    0.7199332022    0.8098508666
     23  O         4.3815252434   -0.1662922621    1.7628710594
     24  H         4.5695598956   -1.6610453767   -1.2273911734
     25  H         4.9286897438    0.7067397599   -1.4398501265
     26  H         4.1788933337   -2.2784827000    1.5099166721
     27  H         6.6685507238   -1.8376708251    1.8014668416
     28  H         6.5592997203   -2.0463020409    0.0261852369
     29  H         7.1784524675    0.4728726481    1.5067780970
     30  H         7.0047406854    0.3199433086   -0.2687729966
     31  H         5.0516876737    1.7703066170    1.1591479731
     32  O        -2.1597006762   -1.9474238648    0.5134199311
     33  C        -0.8577007583    1.7085017883    1.6400220129
     34  C        -5.5587017037    0.7246460995    0.7330903191
     35  C        -6.7220037573    0.4114993887   -0.2891486876
     36  C        -6.4433953779   -1.1017520406   -0.6231158990
     37  C        -5.1004846236   -1.3349800575    0.1719372531
     38  O        -5.3202235216   -0.5679464245    1.4191712064
     39  H        -4.2929631842    1.6470461953   -0.8876148040
     40  H        -4.1307885781   -0.5481311132   -1.6755225427
     41  H        -0.9241400189    1.2001870216    2.6232404579
     42  H        -5.7656150345    1.5237684237    1.4715660328
     43  H        -7.7053141816    0.5491610047    0.1874891743
     44  H        -6.6691834377    1.0571310175   -1.1805523511
     45  H        -7.2396145754   -1.7528087224   -0.2279376011
     46  H        -6.3344144581   -1.2900148269   -1.7030625658
     47  H        -4.8495757635   -2.3881961610    0.4042065160
     48  H        -1.0430157973    2.7910068612    1.7882748474
     49  H         0.1491111397    1.5470198521    1.2035477066
     50  H         2.0282541916    3.8490072104   -2.4754212028
     51  H         1.6526524813    3.6018545917   -0.7223034086
     52  H         0.9876983514    2.4651838167   -1.9506990675
     53  H         0.4529586466   -2.3392476599   -2.2456569073
     54  H         0.4375567770   -0.7152272031   -3.0365053604
     55  H        -0.1812924499   -1.3841265666   -0.0518540795
     56  H         0.1634959790    0.2947532670   -0.6254671444

Z-matrix Print:
$molecule
0 1
O 
C  1 1.424823
O  2 1.251113 1 123.832924
C  1 1.483940 2 110.877885 3 2.446816 0
H  4 1.108214 1 111.194665 2 -46.573101 0
H  4 1.108836 1 110.821462 2 74.336353 0
H  4 1.109169 1 106.248576 2 -166.591127 0
C  2 1.580518 1 111.356613 3 177.097809 0
H  8 1.106125 2 107.836914 1 -89.945825 0
C  8 1.585642 2 107.379347 1 148.603052 0
H  10 1.107590 8 113.074995 2 36.789256 0
O  10 1.482692 8 101.845888 2 -81.808056 0
C  12 1.480614 10 94.916928 8 -59.839278 0
H  13 1.107325 12 110.467178 10 177.777780 0
C  13 1.577946 12 102.800592 10 -57.789244 0
H  15 1.101637 13 112.611616 12 159.615808 0
H  15 1.101819 13 110.301146 12 -78.640882 0
C  15 1.574512 13 100.706324 12 39.061554 0
H  18 1.101378 15 111.709484 13 -122.576178 0
H  18 1.101921 15 112.522738 13 114.906042 0
C  13 1.589256 12 104.442115 10 54.419726 0
H  21 1.105397 13 110.403445 12 -142.885225 0
C  21 1.565397 13 113.939924 12 96.997921 0
O  23 1.249542 21 127.537989 13 -14.858314 0
O  23 1.437120 21 107.617709 13 165.800630 0
C  25 1.478499 23 109.832064 21 161.507985 0
H  26 1.108691 25 109.755034 23 10.249016 0
H  26 1.111111 25 109.063773 23 -109.118574 0
C  26 1.570560 25 111.310825 23 131.714952 0
H  29 1.109059 26 110.814983 25 46.090954 0
H  29 1.112226 26 110.520152 25 -74.631984 0
O  29 1.487395 26 111.004632 25 162.572969 0
C  32 1.433338 29 113.757210 26 49.816983 0
O  33 1.248220 32 126.630951 29 5.689176 0
C  33 1.569816 32 105.912579 29 -179.496956 0
H  35 1.105068 33 108.337263 32 -60.150138 0
C  35 1.582626 33 112.334597 32 175.543274 0
H  37 1.107544 35 113.974959 33 33.233943 0
O  37 1.482291 35 103.608548 33 -86.732458 0
C  39 1.479191 37 95.064006 35 -56.189915 0
H  40 1.107420 39 110.542795 37 -179.326415 0
C  37 1.578413 35 108.139330 33 164.021903 0
H  42 1.101628 37 110.441835 35 -169.025636 0
H  42 1.101632 37 112.290661 35 -47.464425 0
C  42 1.574119 37 101.000066 35 72.910412 0
H  45 1.101508 42 111.663338 37 119.691317 0
H  45 1.101717 42 112.695564 37 -117.592490 0
C  35 1.589053 33 111.993635 32 62.234028 0
H  48 1.103805 35 112.580341 33 -117.996621 0
C  48 1.568275 35 112.535219 33 5.458650 0
O  50 1.253861 48 127.087547 35 44.498040 0
O  50 1.427677 48 109.046844 35 -136.369790 0
C  52 1.482931 50 109.970794 48 179.789679 0
H  53 1.105288 52 106.006954 50 179.180101 0
H  53 1.109070 52 111.612751 50 59.859423 0
H  53 1.109245 52 111.439241 50 -61.685698 0
$end

 
 --------------------------------------------------------------
 
                    Orbital Energies (a.u.)
 --------------------------------------------------------------
 
 Alpha MOs
 -- Occupied --
-18.948 -18.932 -18.931 -18.916 -18.891 -18.883 -18.881 -18.880
-18.868 -18.867 -10.110 -10.103 -10.094 -10.093 -10.073 -10.070
-10.065 -10.060 -10.053 -10.052 -10.050 -10.047 -10.043 -10.040
-10.035 -10.031 -10.024 -10.022 -10.016 -10.015  -1.023  -1.010
 -1.008  -0.997  -0.973  -0.964  -0.945  -0.940  -0.930  -0.926
 -0.767  -0.757  -0.728  -0.719  -0.712  -0.701  -0.691  -0.671
 -0.653  -0.615  -0.597  -0.581  -0.548  -0.540  -0.538  -0.532
 -0.515  -0.503  -0.479  -0.473  -0.465  -0.458  -0.455  -0.444
 -0.436  -0.432  -0.422  -0.419  -0.413  -0.410  -0.401  -0.395
 -0.387  -0.383  -0.374  -0.367  -0.362  -0.358  -0.354  -0.353
 -0.342  -0.337  -0.334  -0.328  -0.327  -0.324  -0.322  -0.313
 -0.308  -0.306  -0.301  -0.299  -0.291  -0.289  -0.282  -0.277
 -0.266  -0.263  -0.252  -0.240  -0.237  -0.236  -0.228  -0.188
 -0.180  -0.172  -0.165  -0.158  -0.152  -0.151  -0.147  -0.144
 -0.138
 -- Virtual --
  0.084   0.102   0.104   0.113   0.210   0.234   0.244   0.252
  0.263   0.278   0.280   0.291   0.302   0.313   0.325   0.332
  0.340   0.341   0.348   0.356   0.357   0.364   0.370   0.375
  0.377   0.385   0.386   0.393   0.400   0.406   0.412   0.413
  0.415   0.416   0.416   0.422   0.422   0.425   0.427   0.435
  0.435   0.439   0.441   0.443   0.445   0.451   0.455   0.464
  0.471   0.484   0.494   0.497   0.504   0.508   0.512   0.537
  0.546   0.548   0.558   0.637   0.645   0.649   0.657
 --------------------------------------------------------------
 
          Ground-State Mulliken Net Atomic Charges

     Atom                 Charge (a.u.)
  ----------------------------------------
      1 O                    -0.215984
      2 C                     0.210260
      3 C                    -0.076093
      4 C                    -0.080562
      5 C                     0.217868
      6 O                    -0.179146
      7 C                    -0.066100
      8 C                    -0.050734
      9 O                    -0.179269
     10 C                     0.215387
     11 C                    -0.078621
     12 C                    -0.077721
     13 C                     0.216869
     14 O                    -0.220578
     15 O                    -0.170552
     16 O                    -0.164510
     17 O                    -0.203985
     18 C                    -0.128935
     19 C                     0.024615
     20 C                    -0.143548
     21 C                    -0.143918
     22 C                     0.025455
     23 O                    -0.186397
     24 H                     0.086052
     25 H                     0.088083
     26 H                     0.092049
     27 H                     0.079254
     28 H                     0.073728
     29 H                     0.078889
     30 H                     0.074038
     31 H                     0.082243
     32 O                    -0.210193
     33 C                    -0.136117
     34 C                     0.023254
     35 C                    -0.145414
     36 C                    -0.142878
     37 C                     0.023758
     38 O                    -0.190318
     39 H                     0.083345
     40 H                     0.082289
     41 H                     0.089413
     42 H                     0.090397
     43 H                     0.077716
     44 H                     0.071926
     45 H                     0.077352
     46 H                     0.071871
     47 H                     0.087767
     48 H                     0.087264
     49 H                     0.107034
     50 H                     0.093213
     51 H                     0.090285
     52 H                     0.091155
     53 H                     0.083998
     54 H                     0.088554
     55 H                     0.114788
     56 H                     0.091403
  ----------------------------------------
  Sum of atomic charges =    -0.000000

 -----------------------------------------------------------------
                    Cartesian Multipole Moments
 -----------------------------------------------------------------
    Charge (ESU x 10^10)
                -0.0000
    Dipole Moment (Debye)
         X       2.4375      Y       1.4845      Z      -4.2152
       Tot       5.0905
    Quadrupole Moments (Debye-Ang)
        XX    -139.9147     XY      -0.5012     YY    -156.7141
        XZ       8.7220     YZ       1.0397     ZZ    -165.0678
    Octopole Moments (Debye-Ang^2)
       XXX      62.7958    XXY     -21.5405    XYY      23.8134
       YYY       1.2743    XXZ     -49.0095    XYZ       5.9243
       YYZ     -15.5050    XZZ      10.6758    YZZ      -6.2702
       ZZZ      -2.0247
    Hexadecapole Moments (Debye-Ang^3)
      XXXX  -14876.5029   XXXY      21.1086   XXYY   -2951.9412
      XYYY     145.1336   YYYY   -2015.0029   XXXZ     268.4608
      XXYZ      -4.3009   XYYZ      59.5884   YYYZ     -80.8002
      XXZZ   -2985.2407   XYZZ      38.0694   YYZZ    -558.8910
      XZZZ      81.1837   YZZZ     -68.1827   ZZZZ   -1346.6805
 -----------------------------------------------------------------
Archival summary:
1\1\vega02.cac.cornell.edu\OPT\ProcedureUnspecified\STO-3G\102026\jj585\TueJan1617:55:172018TueJan1617:55:172018\0\\#,OPT,ProcedureUnspecified,STO-3G,\\0,1\O\C,1,1.42482\O,2,1.25111,1,123.833\C,1,1.48394,2,110.878,3,2.44682,0\H,4,1.10821,1,111.195,2,-46.5731,0\H,4,1.10884,1,110.821,2,74.3364,0\H,4,1.10917,1,106.249,2,-166.591,0\C,2,1.58052,1,111.357,3,177.098,0\H,8,1.10613,2,107.837,1,-89.9458,0\C,8,1.58564,2,107.379,1,148.603,0\H,10,1.10759,8,113.075,2,36.7893,0\O,10,1.48269,8,101.846,2,-81.8081,0\C,12,1.48061,10,94.9169,8,-59.8393,0\H,13,1.10732,12,110.467,10,177.778,0\C,13,1.57795,12,102.801,10,-57.7892,0\H,15,1.10164,13,112.612,12,159.616,0\H,15,1.10182,13,110.301,12,-78.6409,0\C,15,1.57451,13,100.706,12,39.0616,0\H,18,1.10138,15,111.709,13,-122.576,0\H,18,1.10192,15,112.523,13,114.906,0\C,13,1.58926,12,104.442,10,54.4197,0\H,21,1.1054,13,110.403,12,-142.885,0\C,21,1.5654,13,113.94,12,96.9979,0\O,23,1.24954,21,127.538,13,-14.8583,0\O,23,1.43712,21,107.618,13,165.801,0\C,25,1.4785,23,109.832,21,161.508,0\H,26,1.10869,25,109.755,23,10.249,0\H,26,1.11111,25,109.064,23,-109.119,0\C,26,1.57056,25,111.311,23,131.715,0\H,29,1.10906,26,110.815,25,46.091,0\H,29,1.11223,26,110.52,25,-74.632,0\O,29,1.4874,26,111.005,25,162.573,0\C,32,1.43334,29,113.757,26,49.817,0\O,33,1.24822,32,126.631,29,5.68918,0\C,33,1.56982,32,105.913,29,-179.497,0\H,35,1.10507,33,108.337,32,-60.1501,0\C,35,1.58263,33,112.335,32,175.543,0\H,37,1.10754,35,113.975,33,33.2339,0\O,37,1.48229,35,103.609,33,-86.7325,0\C,39,1.47919,37,95.064,35,-56.1899,0\H,40,1.10742,39,110.543,37,-179.326,0\C,37,1.57841,35,108.139,33,164.022,0\H,42,1.10163,37,110.442,35,-169.026,0\H,42,1.10163,37,112.291,35,-47.4644,0\C,42,1.57412,37,101,35,72.9104,0\H,45,1.10151,42,111.663,37,119.691,0\H,45,1.10172,42,112.696,37,-117.592,0\C,35,1.58905,33,111.994,32,62.234,0\H,48,1.1038,35,112.58,33,-117.997,0\C,48,1.56828,35,112.535,33,5.45865,0\O,50,1.25386,48,127.088,35,44.498,0\O,50,1.42768,48,109.047,35,-136.37,0\C,52,1.48293,50,109.971,48,179.79,0\H,53,1.10529,52,106.007,50,179.18,0\H,53,1.10907,52,111.613,50,59.8594,0\H,53,1.10925,52,111.439,50,-61.6857,0\\\@

 Total job time:  84.62s(wall), 3699.07s(cpu) 
 Tue Jan 16 17:55:17 2018

        *************************************************************
        *                                                           *
        *  Thank you very much for using Q-Chem.  Have a nice day.  *
        *                                                           *
        *************************************************************


0 sent ACK to 0 
now end server 0 ... 
