mFile = /opt/software/qchem/qchem-5.0.1//bin/mpi/machines
Process 0 of 1 is on vega02.cac.cornell.edu - thread support 0
initial socket setup ...start
initial socket setup ...done 
now start server 0 ... 
vega02.cac.cornell.edu 10.84.3
Q-Chem Developer Version! Running on 10.84.3.*
                  Welcome to Q-Chem
     A Quantum Leap Into The Future Of Chemistry


 Q-Chem 5.0, Q-Chem, Inc., Pleasanton, CA (2017)

 Yihan Shao,  Zhengting Gan,  E. Epifanovsky,  A. T. B. Gilbert,  M. Wormit,  
 J. Kussmann,  A. W. Lange,  A. Behn,  Jia Deng,  Xintian Feng,  D. Ghosh,  
 M. Goldey,  P. R. Horn,  L. D. Jacobson,  I. Kaliman,  T. Kus,  A. Landau,  
 Jie Liu,  E. I. Proynov,  R. M. Richard,  R. P. Steele,  E. J. Sundstrom,  
 H. L. Woodcock III,  P. M. Zimmerman,  D. Zuev,  B. Albrecht,  E. Alguire,  
 S. A. Baeppler,  Z. Benda,  Y. A. Bernard,  E. J. Berquist,  K. B. Bravaya,  
 D. Casanova,  Chun-Min Chang,  Yunqing Chen,  A. Chien,  K. D. Closser,  
 M. P. Coons,  S. Dasgupta,  M. Diedenhofen,  Hainam Do,  R. G. Edgar,  
 Po-Tung Fang,  S. Fatehi,  Qingguo Feng,  Qinghui Ge,  A. Ghysels,  
 J. Gomes,  J. Gonthier,  A. Gunina,  M. W. D. Hanson-Heine,  
 P. H. P. Harbach,  A. W. Hauser,  J. E. Herr,  E. G. Hohenstein,  
 Z. C. Holden,  Kerwin Hui,  T.-C. Jagau,  Hyunjun Ji,  B. Kaduk,  
 K. Khistyaev,  Jaehoon Kim,  P. Klunzinger,  K. Koh,  D. Kosenkov,  
 T. Kowalczyk,  C. M. Krauter,  A. Kunitsa,  Ka Un Lao,  A. Laurent,  
 K. V. Lawler,  Joonho Lee,  D. Lefrancois,  S. Lehtola,  D. S. Levine,  
 Yi-Pei Li,  You-Sheng Lin,  Fenglai Liu,  E. Livshits,  A. Luenser,  
 P. Manohar,  E. Mansoor,  S. F. Manzer,  Shan-Ping Mao,  Yuezhi Mao,  
 N. Mardirossian,  A. V. Marenich,  L. A. Martinez-Martinez,  S. A. Maurer,  
 N. J. Mayhall,  S. C. McKenzie,  J.-M. Mewes,  A. F. Morrison,  K. Nanda,  
 T. S. Nguyen-Beck,  R. Olivares-Amaya,  J. A. Parkhill,  T. M. Perrine,  
 F. Plasser,  S. Prager,  A. Prociuk,  D. R. Rehn,  F. Rob,  M. Schneider,  
 N. Sergueev,  S. M. Sharada,  S. Sharma,  D. W. Small,  T. Stauch,  
 T. Stein,  Yu-Chuan Su,  A. J. W. Thom,  T. Tsuchimochi,  L. Vogt,  
 O. Vydrov,  M. A. Watson,  J. Wenzel,  M. de Wergifosse,  T. A. Wesolowski,  
 A. White,  J. Witte,  A. Yamada,  Jun Yang,  K. Yao,  S. Yeganeh,  
 S. R. Yost,  Zhi-Qiang You,  A. Zech,  Igor Ying Zhang,  Xing Zhang,  
 Yan Zhao,  Ying Zhu,  B. R. Brooks,  G. K. L. Chan,  C. J. Cramer,  
 M. S. Gordon,  W. J. Hehre,  A. Klamt,  M. W. Schmidt,  C. D. Sherrill,  
 D. G. Truhlar,  A. Aspuru-Guzik,  R. Baer,  A. T. Bell,  N. A. Besley,  
 Jeng-Da Chai,  A. Dreuw,  B. D. Dunietz,  T. R. Furlani,  Chao-Ping Hsu,  
 Yousung Jung,  Jing Kong,  D. S. Lambrecht,  WanZhen Liang,  C. Ochsenfeld,  
 V. A. Rassolov,  L. V. Slipchenko,  J. E. Subotnik,  T. Van Voorhis,  
 J. M. Herbert,  A. I. Krylov,  P. M. W. Gill,  M. Head-Gordon

 Contributors to earlier versions of Q-Chem not listed above: 
 R. D. Adamson,  B. Austin,  J. Baker,  G. J. O. Beran,  K. Brandhorst,  
 S. T. Brown,  E. F. C. Byrd,  A. K. Chakraborty,  C.-L. Cheng,  
 Siu Hung Chien,  D. M. Chipman,  D. L. Crittenden,  H. Dachsel,  
 R. A. DiStasio Jr.,  R. J. Doerksen,  A. D. Dutoi,  L. Fusti-Molnar,  
 W. A. Goddard III,  A. Golubeva-Zadorozhnaya,  S. R. Gwaltney,  G. Hawkins,  
 A. Heyden,  S. Hirata,  G. Kedziora,  F. J. Keil,  C. Kelley,  Jihan Kim,  
 R. A. King,  R. Z. Khaliullin,  P. P. Korambath,  W. Kurlancheek,  
 A. M. Lee,  M. S. Lee,  S. V. Levchenko,  Ching Yeh Lin,  D. Liotard,  
 R. C. Lochan,  I. Lotan,  P. E. Maslen,  N. Nair,  D. P. O'Neill,  
 D. Neuhauser,  E. Neuscamman,  C. M. Oana,  R. Olson,  B. Peters,  
 R. Peverati,  P. A. Pieniazek,  Y. M. Rhee,  J. Ritchie,  M. A. Rohrdanz,  
 E. Rosta,  N. J. Russ,  H. F. Schaefer III,  N. E. Schultz,  N. Shenvi,  
 A. C. Simmonett,  A. Sodt,  D. Stuck,  K. S. Thanthiriwatte,  V. Vanovschi,  
 Tao Wang,  A. Warshel,  C. F. Williams,  Q. Wu,  X. Xu,  W. Zhang

 Please cite Q-Chem as follows:
 Y. Shao et al., Mol. Phys. 113, 184-215 (2015)
 DOI: 10.1080/00268976.2014.952696

 Q-Chem 5.0.1 for Intel X86 EM64T Linux

 Parts of Q-Chem use Armadillo 5.200.1 (Boston Tea Smuggler).
 http://arma.sourceforge.net/

 Q-Chem begins on Tue Jan 16 17:59:01 2018  

Host: vega02.cac.cornell.edu
0

     Scratch files written to /scratch/jj585/SOT1001/1223r.save//
 Parallel job on  1  processors

Checking the input file for inconsistencies... 	...done.

--------------------------------------------------------------
User input:
--------------------------------------------------------------
$molecule
0  1
O -3.628756602 1.7998841788 1.8511776168
C -3.4707024557 1.5186628182 0.6432324779
C -4.4244644353 0.6532029763 -0.2560114665
C -3.9579012395 -0.8659260856 -0.3711450924
C -2.5190486034 -1.1028432467 0.1959263212
O -1.5961926349 -0.754686177 -0.8450029854
C -0.1981576907 -0.823678023 -0.3599383853
C 0.5603431443 -1.9796752644 -1.1178945081
O 2.0043973183 -1.7173767623 -1.3463589693
C 2.6679705771 -1.2948628533 -0.1495809222
C 4.1278595112 -0.8698762481 -0.5282763684
C 4.3151278173 0.7074100518 -0.6307944091
C 2.9894608402 1.5449549567 -0.5925067588
O 2.5708107807 2.2804573886 0.3279187131
O -2.3394974836 1.9278101793 -0.138413511
O 2.3362968716 1.3870261105 -1.8614479286
O 2.1504768959 -1.2882600542 0.9878205163
C 1.1708451359 2.297501269 -1.9703465904
C 5.1079321773 -1.1900581562 0.6773381315
C 6.5998948745 -0.9926328408 0.1941582665
C 6.725379661 0.5765612731 0.2113963926
C 5.2561684821 0.9874333409 0.6155122777
O 4.873113259 -0.0532015314 1.5966487774
H 4.4154448618 -1.3694950808 -1.469731944
H 4.823787153 0.9561005323 -1.5801755503
H 4.8984157884 -2.1487794733 1.1898917888
H 7.3009774838 -1.463975293 0.9007333614
H 6.7674429867 -1.4198633577 -0.8074808457
H 7.4407189363 0.9143297789 0.9783461641
H 7.0266990222 0.9936627807 -0.7627203186
H 5.137044661 1.9963589813 1.0558077825
O -2.1894422643 -1.4868733803 1.3385310616
C -1.388777011 2.6944494599 0.7029508943
C -5.8154946797 0.4646832251 0.4788597465
C -6.841967578 -0.2105895024 -0.5150496115
C -6.3653303231 -1.7104673088 -0.4827894985
C -5.0986293277 -1.5995250816 0.4525062578
O -5.5140342661 -0.6013277467 1.4637564774
H -4.5136413001 1.1202576483 -1.2530424202
H -3.9592423033 -1.1790094389 -1.4306164611
H -0.4579233615 2.1086122239 0.8392592577
H -6.1799047331 1.3725780274 0.9968399076
H -7.8714526311 -0.1042953382 -0.1381310573
H -6.7891720166 0.2292478985 -1.5239548982
H -7.1242683833 -2.3635018568 -0.0230441624
H -6.1188860774 -2.1034317691 -1.4820848041
H -4.7775136279 -2.5380954256 0.9442589848
H -1.8490269344 2.8938216664 1.6915922413
H -1.1518520014 3.6445224557 0.1869301791
H 0.2578631347 1.7048541283 -2.1749620288
H 1.3445973699 2.9970484596 -2.8116275516
H 1.0520171784 2.8631833363 -1.0250163193
H 0.4242019164 -2.9370081464 -0.5682660218
H 0.1296497275 -2.0922004534 -2.134074616
H -0.1912057313 -0.9956854887 0.7357835557
H 0.282571687 0.14729091 -0.5919496327
$end

$rem
JOBTYPE                   OPT
METHOD                    B3LYP
DFT_D                     d3_op
BASIS                     STO-3G
GEOM_OPT_MAX_CYCLES       100
GEOM_OPT_TOL_GRADIENT     300
GEOM_OPT_TOL_DISPLACEMENT 1200
GEOM_OPT_TOL_ENERGY       100
SYMMETRY                  False
THRESH                    12
SCF_CONVERGENCE           8
MAX_SUB_FILE_NUM          128
MEM_STATIC                400
MEM_TOTAL                 4000
$end
--------------------------------------------------------------
 Adding empirical dispersion correction 
 ----------------------------------------------------------------
 Doing -D3(op) with
 s6 =   1.00000
 s8 =   0.78311
 a1 =   0.30000
 a2 =   4.25000
 n  =  10.00000
 -D3 energy without 3body term =     -0.0700671063 hartrees
 ----------------------------------------------------------------
             Standard Nuclear Orientation (Angstroms)
    I     Atom           X                Y                Z
 ----------------------------------------------------------------
    1      O      -3.5687986120     1.8707582306     1.7426799071
    2      C      -3.3878644862     1.5720168955     0.5421739795
    3      C      -4.3398948114     0.7194869180    -0.3711459100
    4      C      -3.9076863693    -0.8116304772    -0.4581255569
    5      C      -2.4894479434    -1.0765420826     0.1471993530
    6      O      -1.5329979139    -0.7625904689    -0.8740978761
    7      C      -0.1494482775    -0.8595940095    -0.3535885457
    8      C       0.5992101074    -2.0420775192    -1.0798075174
    9      O       2.0544098771    -1.8171784658    -1.2750074603
   10      C       2.6983193328    -1.3970613504    -0.0666998053
   11      C       4.1770050907    -1.0116313045    -0.4134441845
   12      C       4.4050201994     0.5594243755    -0.5283554528
   13      C       3.0995566893     1.4289589196    -0.5322344411
   14      O       2.6763175535     2.1847910020     0.3694313762
   15      O      -2.2281067206     1.9448987438    -0.2153996184
   16      O       2.4742606867     1.2722573410    -1.8152877943
   17      O       2.1532286839    -1.3650133060     1.0572995038
   18      C       1.3343207086     2.2091630255    -1.9630926169
   19      C       5.1189579288    -1.3414495405     0.8196454268
   20      C       6.6267466730    -1.1854663565     0.3717229154
   21      C       6.7898634347     0.3803546649     0.3750699625
   22      C       5.3215457396     0.8310021463     0.7379294209
   23      O       4.8892203810    -0.1888345455     1.7204308096
   24      H       4.4755092669    -1.5287552372    -1.3419596705
   25      H       4.9428458154     0.7849429491    -1.4673926224
   26      H       4.8736211684    -2.2889327785     1.3371783439
   27      H       7.2985184016    -1.6653995660     1.1006370092
   28      H       6.8085298779    -1.6280324833    -0.6207332727
   29      H       7.4940554283     0.7095942537     1.1559186826
   30      H       7.1251763892     0.7789227607    -0.5956921544
   31      H       5.2161458081     1.8474706385     1.1641502827
   32      O      -2.1975678583    -1.4552800107     1.3017679620
   33      C      -1.2800891900     2.6980539121     0.6410578062
   34      C      -5.7528062794     0.5728614088     0.3307961678
   35      C      -6.7705461293    -0.0888852297    -0.6810302321
   36      C      -6.3314391155    -1.5993135915    -0.6206281116
   37      C      -5.0858825411    -1.5081396176     0.3447183898
   38      O      -5.5017361110    -0.4887443164     1.3344078448
   39      H      -4.3930644538     1.1771096466    -1.3750969695
   40      H      -3.8904900160    -1.1366942029    -1.5138435237
   41      H      -0.3673939955     2.0916208723     0.8068896609
   42      H      -6.1077174575     1.4951165877     0.8296493998
   43      H      -7.8061318294     0.0464169132    -0.3310857961
   44      H      -6.6821968942     0.3379832132    -1.6930143887
   45      H      -7.1171363457    -2.2286231684    -0.1729047674
   46      H      -6.0700322555    -2.0094943932    -1.6091447299
   47      H      -4.7999025597    -2.4484650591     0.8544770014
   48      H      -1.7596149936     2.9197256139     1.6156898609
   49      H      -1.0074848557     3.6361937476     0.1208366397
   50      H       0.4125339749     1.6363180215    -2.1839818754
   51      H       1.5457287040     2.8946615161    -2.8073131125
   52      H       1.2059824553     2.7883168736    -1.0272102957
   53      H       0.4263233256    -2.9895113495    -0.5233980892
   54      H       0.1911171008    -2.1558438708    -2.1051357889
   55      H      -0.1737197504    -1.0191693097     0.7437664967
   56      H       0.3603133905     0.0968270568    -0.5840498400
 ----------------------------------------------------------------
 Molecular Point Group                 C1    NOp =  1
 Largest Abelian Subgroup              C1    NOp =  1
 Nuclear Repulsion Energy =  3143.8245655151 hartrees
 There are      113 alpha and      113 beta electrons
 Requested basis set is STO-3G
 There are 86 shells and 176 basis functions

 Total QAlloc Memory Limit   4000 MB
 Mega-Array Size       392 MB
 MEM_STATIC part       400 MB
 A cutoff of  1.0D-12 yielded   2185 shell pairs
 There are     10219 function pairs
 
 -------------------------------------------------------
 OpenMP Integral Computing Module                       
 Release: version 1.0, May 2013, Q-Chem Inc. Pittsburgh 
 -------------------------------------------------------
 Integral Job Info:
 Integral job number is                      11
 Integral operator is                         1
 short-range coefficients                     0
 long-range coefficients              100000000
 Omega coefficients                           0
 if combine SR and LR in K                    0
 Integral screening is                        0
 Integral computing path is                   2
 max size of driver memory is            800000
 size of driver memory is                 45569
 size of scratch memory is              1046100
 max col of scratch BK array                289
 max len of scratch array in speh3           22
 max len of scratch index in speh4            8
 max int batch size is                      520
 min int batch size is                       52
 fixed nKL is                                52
 max L of basis functions is                  1
 order of int derivative is                   0
 number of shells is                         86
 number of basis is                         176
 number of cartesian basis is               176
 number of contracted shell pairs          2185
 number of primitive shell pairs          11225
 maxK2 (contraction) of shell pair            9
 max number of K2 of shell pair               1
 max number of CS2 of shell pair            328
 max number of PS2 of shell pair           1314
 mem total for path MDJ                   49782
 -------------------------------------------------------
 Smallest overlap matrix eigenvalue = 2.13E-01

 Scale SEOQF with 1.000000e-02/1.000000e-01/1.000000e-01

 Standard Electronic Orientation quadrupole field applied
 Nucleus-field energy     =     0.0000000237 hartrees
 Guess from superposition of atomic densities
 Warning:  Energy on first SCF cycle will be non-variational
 A restricted hybrid HF-DFT SCF calculation will be
 performed using Pulay DIIS extrapolation
 Exchange:     0.2000 Hartree-Fock + 0.0800 Slater + 0.7200 B88
 Correlation:  0.1900 VWN1RPA + 0.8100 LYP
 Using SG-1 standard quadrature grid
 Dispersion:   Grimme D3
 SCF converges when DIIS error is below 1.0E-08
 using 48 threads for integral computing
 -------------------------------------------------------
 OpenMP Integral computing Module                
 Release: version 1.0, May 2013, Q-Chem Inc. Pittsburgh 
 -------------------------------------------------------
 -------------------------------------------------------
 OpenMP BLAS3 based DFT computing Module                
 Release: version 1.0, May 2013, Q-Chem Inc. Pittsburgh 
 -------------------------------------------------------
 ---------------------------------------
  Cycle       Energy         DIIS Error
 ---------------------------------------
    1   -1507.6354834569      7.46E-02
    2   -1509.7186531013      1.07E-02
    3   -1507.0066729354      2.92E-02
    4   -1510.1544398748      5.29E-03
    5   -1510.2674526651      1.61E-03
    6   -1510.2783353337      3.35E-04
    7   -1510.2787973987      1.07E-04
    8   -1510.2788349793      5.55E-05
    9   -1510.2788480922      1.26E-05
   10   -1510.2788487051      5.07E-06
   11   -1510.2788488043      1.82E-06
   12   -1510.2788488191      3.02E-07
   13   -1510.2788488195      1.16E-07
   14   -1510.2788488196      6.21E-08
   15   -1510.2788488196      1.62E-08
   16   -1510.2788488195      6.27E-09 Convergence criterion met
 ---------------------------------------
 SCF time:  CPU 116.74 s  wall 2.49 s
 SCF   energy in the final basis set = -1510.27884882
 Total energy in the final basis set = -1510.27884882
 
 --------------------------------------------------------------
 
                    Orbital Energies (a.u.)
 --------------------------------------------------------------
 
 Alpha MOs
 -- Occupied --
-18.937 -18.937 -18.932 -18.931 -18.888 -18.886 -18.884 -18.880
-18.879 -18.877 -10.105 -10.102 -10.101 -10.098 -10.074 -10.065
-10.062 -10.061 -10.060 -10.059 -10.058 -10.055 -10.042 -10.041
-10.040 -10.039 -10.022 -10.021 -10.020 -10.019  -1.018  -1.015
 -1.012  -1.007  -0.971  -0.968  -0.942  -0.941  -0.937  -0.934
 -0.766  -0.764  -0.728  -0.724  -0.713  -0.706  -0.696  -0.666
 -0.658  -0.621  -0.598  -0.585  -0.549  -0.546  -0.539  -0.537
 -0.512  -0.510  -0.480  -0.473  -0.464  -0.459  -0.456  -0.454
 -0.435  -0.432  -0.425  -0.420  -0.416  -0.413  -0.406  -0.398
 -0.389  -0.384  -0.375  -0.369  -0.364  -0.357  -0.355  -0.354
 -0.351  -0.346  -0.340  -0.332  -0.331  -0.330  -0.327  -0.313
 -0.311  -0.307  -0.306  -0.302  -0.296  -0.284  -0.281  -0.277
 -0.274  -0.256  -0.251  -0.250  -0.245  -0.235  -0.233  -0.188
 -0.180  -0.175  -0.166  -0.166  -0.162  -0.154  -0.152  -0.144
 -0.142
 -- Virtual --
  0.091   0.094   0.097   0.101   0.208   0.228   0.237   0.255
  0.261   0.273   0.285   0.288   0.297   0.309   0.325   0.330
  0.336   0.345   0.345   0.348   0.358   0.360   0.367   0.371
  0.379   0.380   0.384   0.388   0.404   0.406   0.407   0.407
  0.412   0.413   0.414   0.418   0.419   0.420   0.423   0.430
  0.431   0.432   0.437   0.439   0.441   0.447   0.465   0.467
  0.469   0.483   0.486   0.487   0.495   0.503   0.506   0.539
  0.540   0.550   0.551   0.632   0.634   0.654   0.656
 --------------------------------------------------------------
 
          Ground-State Mulliken Net Atomic Charges

     Atom                 Charge (a.u.)
  ----------------------------------------
      1 O                    -0.205999
      2 C                     0.206758
      3 C                    -0.076336
      4 C                    -0.078323
      5 C                     0.207300
      6 O                    -0.174034
      7 C                    -0.059268
      8 C                    -0.050818
      9 O                    -0.169044
     10 C                     0.205081
     11 C                    -0.077300
     12 C                    -0.078009
     13 C                     0.206649
     14 O                    -0.210111
     15 O                    -0.172782
     16 O                    -0.171941
     17 O                    -0.206565
     18 C                    -0.139712
     19 C                     0.026183
     20 C                    -0.144815
     21 C                    -0.143166
     22 C                     0.024631
     23 O                    -0.183918
     24 H                     0.087870
     25 H                     0.086449
     26 H                     0.085518
     27 H                     0.078764
     28 H                     0.073329
     29 H                     0.078913
     30 H                     0.072965
     31 H                     0.089353
     32 O                    -0.205960
     33 C                    -0.138887
     34 C                     0.025667
     35 C                    -0.144935
     36 C                    -0.143092
     37 C                     0.024803
     38 O                    -0.184176
     39 H                     0.086086
     40 H                     0.085227
     41 H                     0.088242
     42 H                     0.087493
     43 H                     0.078468
     44 H                     0.072675
     45 H                     0.078505
     46 H                     0.072531
     47 H                     0.087679
     48 H                     0.104516
     49 H                     0.083693
     50 H                     0.090632
     51 H                     0.086016
     52 H                     0.100222
     53 H                     0.086009
     54 H                     0.092531
     55 H                     0.113503
     56 H                     0.084932
  ----------------------------------------
  Sum of atomic charges =    -0.000000

 -----------------------------------------------------------------
                    Cartesian Multipole Moments
 -----------------------------------------------------------------
    Charge (ESU x 10^10)
                -0.0000
    Dipole Moment (Debye)
         X       1.1025      Y      -0.0348      Z      -5.1555
       Tot       5.2722
    Quadrupole Moments (Debye-Ang)
        XX    -140.1140     XY       0.0673     YY    -152.7164
        XZ       6.5935     YZ      -0.9776     ZZ    -171.5715
    Octopole Moments (Debye-Ang^2)
       XXX      52.9686    XXY     -11.9993    XYY      -1.7036
       YYY       6.0939    XXZ     -75.9781    XYZ      -6.9849
       YYZ      -4.2478    XZZ       6.1463    YZZ       7.2445
       ZZZ      -6.8774
    Hexadecapole Moments (Debye-Ang^3)
      XXXX  -15746.4741   XXXY     -31.4958   XXYY   -3071.6687
      XYYY     -13.4897   YYYY   -2100.7164   XXXZ     143.0739
      XXYZ     -17.2552   XYYZ      -8.2724   YYYZ     -27.8650
      XXZZ   -3137.4232   XYZZ      13.4448   YYZZ    -525.7477
      XZZZ     -11.4473   YZZZ     -10.8388   ZZZZ   -1051.0784
 -----------------------------------------------------------------
 Calculating analytic gradient of the SCF energy
 Gradient of SCF Energy
            1           2           3           4           5           6
    1   0.0006922  -0.0012822   0.0016095  -0.0012327   0.0001199  -0.0001749
    2  -0.0011717   0.0016722  -0.0000743  -0.0006714  -0.0002197   0.0003584
    3   0.0003919  -0.0002085  -0.0019631   0.0021703  -0.0006394   0.0009590
            7           8           9          10          11          12
    1   0.0004844  -0.0007184   0.0011695  -0.0003164  -0.0006622   0.0006472
    2  -0.0006062   0.0029634  -0.0046192   0.0019140   0.0003334   0.0006604
    3   0.0007736  -0.0032807   0.0023042   0.0000857  -0.0027146   0.0022231
           13          14          15          16          17          18
    1  -0.0007902   0.0004736   0.0000282   0.0000412  -0.0000463  -0.0000588
    2  -0.0013488   0.0008124  -0.0000179  -0.0000090   0.0000096   0.0000691
    3   0.0003935  -0.0004194   0.0000158  -0.0000021   0.0000160  -0.0000607
           19          20          21          22          23          24
    1  -0.0001367  -0.0000141   0.0002452  -0.0000245   0.0000784   0.0000592
    2   0.0002102  -0.0000038  -0.0000894   0.0000022  -0.0000499   0.0000120
    3  -0.0000899   0.0000049  -0.0001371  -0.0000619   0.0000952  -0.0000056
           25          26          27          28          29          30
    1  -0.0000831   0.0000057   0.0000103  -0.0000075  -0.0000150  -0.0000939
    2  -0.0000169  -0.0000097  -0.0000144   0.0000230   0.0000097   0.0000573
    3   0.0000462   0.0000618  -0.0000088  -0.0000065   0.0000347   0.0000616
           31          32          33          34          35          36
    1  -0.0000012  -0.0000713   0.0000018   0.0000575   0.0000178   0.0000641
    2  -0.0000029  -0.0000225   0.0000372  -0.0000542  -0.0001503  -0.0000219
    3   0.0000216   0.0000444  -0.0000584   0.0000439  -0.0000039   0.0000174
           37          38          39          40          41          42
    1   0.0000596  -0.0000663   0.0000112  -0.0000977  -0.0000578  -0.0000040
    2  -0.0000479  -0.0000009  -0.0000022   0.0000213  -0.0000263  -0.0000097
    3  -0.0000177  -0.0000140  -0.0000238   0.0000177   0.0000925  -0.0000163
           43          44          45          46          47          48
    1  -0.0000376  -0.0000090   0.0000047   0.0000275  -0.0000087  -0.0000306
    2   0.0000283   0.0000802   0.0000241   0.0000233  -0.0000135   0.0000208
    3  -0.0000156  -0.0000404  -0.0000038  -0.0000321  -0.0000312   0.0000096
           49          50          51          52          53          54
    1   0.0000596  -0.0000254   0.0000022   0.0000630  -0.0000175   0.0000291
    2  -0.0000461  -0.0000181  -0.0000071  -0.0000001   0.0000286   0.0000103
    3  -0.0000300   0.0000221   0.0000274   0.0000005  -0.0000222  -0.0000168
           55          56
    1   0.0000292  -0.0000076
    2  -0.0000315  -0.0000040
    3   0.0000213  -0.0000313
 Max gradient component =       4.619E-03
 RMS gradient           =       7.398E-04
 Gradient time:  CPU 30.22 s  wall 0.65 s
 Geometry Optimization Parameters
   NAtoms,    NIC,     NZ,  NCons,   NDum,   NFix, NCnnct, MaxDiis
       56     458       0       0       0       0       0       0


** GEOMETRY OPTIMIZATION IN DELOCALIZED INTERNAL COORDINATES **
   Searching for a Minimum

   Optimization Cycle:   1

                       Coordinates (Angstroms)
     ATOM                X               Y               Z
      1  O        -3.5687986120    1.8707582306    1.7426799071
      2  C        -3.3878644862    1.5720168955    0.5421739795
      3  C        -4.3398948114    0.7194869180   -0.3711459100
      4  C        -3.9076863693   -0.8116304772   -0.4581255569
      5  C        -2.4894479434   -1.0765420826    0.1471993530
      6  O        -1.5329979139   -0.7625904689   -0.8740978761
      7  C        -0.1494482775   -0.8595940095   -0.3535885457
      8  C         0.5992101074   -2.0420775192   -1.0798075174
      9  O         2.0544098771   -1.8171784658   -1.2750074603
     10  C         2.6983193328   -1.3970613504   -0.0666998053
     11  C         4.1770050907   -1.0116313045   -0.4134441845
     12  C         4.4050201994    0.5594243755   -0.5283554528
     13  C         3.0995566893    1.4289589196   -0.5322344411
     14  O         2.6763175535    2.1847910020    0.3694313762
     15  O        -2.2281067206    1.9448987438   -0.2153996184
     16  O         2.4742606867    1.2722573410   -1.8152877943
     17  O         2.1532286839   -1.3650133060    1.0572995038
     18  C         1.3343207086    2.2091630255   -1.9630926169
     19  C         5.1189579288   -1.3414495405    0.8196454268
     20  C         6.6267466730   -1.1854663565    0.3717229154
     21  C         6.7898634347    0.3803546649    0.3750699625
     22  C         5.3215457396    0.8310021463    0.7379294209
     23  O         4.8892203810   -0.1888345455    1.7204308096
     24  H         4.4755092669   -1.5287552372   -1.3419596705
     25  H         4.9428458154    0.7849429491   -1.4673926224
     26  H         4.8736211684   -2.2889327785    1.3371783439
     27  H         7.2985184016   -1.6653995660    1.1006370092
     28  H         6.8085298779   -1.6280324833   -0.6207332727
     29  H         7.4940554283    0.7095942537    1.1559186826
     30  H         7.1251763892    0.7789227607   -0.5956921544
     31  H         5.2161458081    1.8474706385    1.1641502827
     32  O        -2.1975678583   -1.4552800107    1.3017679620
     33  C        -1.2800891900    2.6980539121    0.6410578062
     34  C        -5.7528062794    0.5728614088    0.3307961678
     35  C        -6.7705461293   -0.0888852297   -0.6810302321
     36  C        -6.3314391155   -1.5993135915   -0.6206281116
     37  C        -5.0858825411   -1.5081396176    0.3447183898
     38  O        -5.5017361110   -0.4887443164    1.3344078448
     39  H        -4.3930644538    1.1771096466   -1.3750969695
     40  H        -3.8904900160   -1.1366942029   -1.5138435237
     41  H        -0.3673939955    2.0916208723    0.8068896609
     42  H        -6.1077174575    1.4951165877    0.8296493998
     43  H        -7.8061318294    0.0464169132   -0.3310857961
     44  H        -6.6821968942    0.3379832132   -1.6930143887
     45  H        -7.1171363457   -2.2286231684   -0.1729047674
     46  H        -6.0700322555   -2.0094943932   -1.6091447299
     47  H        -4.7999025597   -2.4484650591    0.8544770014
     48  H        -1.7596149936    2.9197256139    1.6156898609
     49  H        -1.0074848557    3.6361937476    0.1208366397
     50  H         0.4125339749    1.6363180215   -2.1839818754
     51  H         1.5457287040    2.8946615161   -2.8073131125
     52  H         1.2059824553    2.7883168736   -1.0272102957
     53  H         0.4263233256   -2.9895113495   -0.5233980892
     54  H         0.1911171008   -2.1558438708   -2.1051357889
     55  H        -0.1737197504   -1.0191693097    0.7437664967
     56  H         0.3603133905    0.0968270568   -0.5840498400
   Point Group: c1    Number of degrees of freedom:   162


   Energy is  -1510.278848820


 Attempting to Generate Delocalized Internal Coordinates

162 Hessian modes will be used to form the next step
  Hessian Eigenvalues:
     0.002000    0.002000    0.002000    0.002000    0.002000    0.002710
     0.002715    0.004157    0.004175    0.004177    0.004245    0.004354
     0.004657    0.004674    0.004878    0.006841    0.006843    0.010898
     0.011072    0.011145    0.011389    0.021666    0.021686    0.026101
     0.026243    0.030777    0.030783    0.035559    0.035663    0.040534
     0.040738    0.041807    0.041921    0.043895    0.045948    0.046146
     0.047662    0.048422    0.049878    0.050859    0.051027    0.052993
     0.053174    0.054427    0.054504    0.055520    0.055552    0.056511
     0.056605    0.059080    0.059257    0.060562    0.060578    0.063568
     0.063576    0.064282    0.064394    0.069993    0.070100    0.073010
     0.073113    0.091213    0.091897    0.092810    0.092819    0.096034
     0.096062    0.100061    0.100325    0.101343    0.101377    0.110050
     0.110393    0.110920    0.116157    0.120999    0.121300    0.135989
     0.139881    0.157063    0.157689    0.160000    0.160000    0.160000
     0.160000    0.160000    0.160000    0.163443    0.163444    0.220325
     0.220456    0.220689    0.221068    0.223897    0.224898    0.238370
     0.238419    0.239557    0.239568    0.247336    0.247862    0.249724
     0.249919    0.249951    0.249991    0.250000    0.250000    0.250000
     0.250000    0.250000    0.250000    0.250000    0.250000    0.253232
     0.253242    0.254962    0.259580    0.261326    0.262597    0.264457
     0.292331    0.292878    0.306373    0.307002    0.323624    0.326630
     0.326889    0.327488    0.327833    0.328078    0.328104    0.328298
     0.328624    0.328939    0.329003    0.329049    0.329235    0.329391
     0.330921    0.331608    0.331774    0.332512    0.334753    0.334815
     0.334880    0.334916    0.334946    0.334984    0.335216    0.335354
     0.339633    0.342204    0.342355    0.344097    0.401547    0.403394
     0.404172    0.406784    0.831018    0.831338    0.833604    0.833811

 Minimum Search - Taking Simple RFO Step
 Searching for Lamda that Minimizes Along All modes
 Value Taken    Lamda =  -0.00273023
 Calculated Step too Large.  Step scaled by  0.459535
 Step Taken.  Stepsize is  0.300000

                             Maximum     Tolerance    Cnvgd?
         Gradient           0.001916      0.000300      NO
         Displacement       0.152825      0.001200      NO
         Energy change     *********      0.000001      NO


 New Cartesian Coordinates Obtained by Inverse Iteration

 Displacement from previous Coordinates is:  2.236028
 Adding empirical dispersion correction 
 ----------------------------------------------------------------
 Doing -D3(op) with
 s6 =   1.00000
 s8 =   0.78311
 a1 =   0.30000
 a2 =   4.25000
 n  =  10.00000
 -D3 energy without 3body term =     -0.0689246452 hartrees
 ----------------------------------------------------------------
             Standard Nuclear Orientation (Angstroms)
    I     Atom           X                Y                Z
 ----------------------------------------------------------------
    1      O      -3.7130513378     1.8155470253     1.8925177092
    2      C      -3.4754983048     1.5543453939     0.6931247287
    3      C      -4.3900863866     0.7446759815    -0.2944025419
    4      C      -3.9159498952    -0.7650897641    -0.4809890472
    5      C      -2.5049099036    -1.0374397364     0.1377852929
    6      O      -1.5360008857    -0.7135226254    -0.8684927761
    7      C      -0.1603706213    -0.7969420563    -0.3251621350
    8      C       0.5951882135    -2.0050356853    -1.0003097929
    9      O       2.0448451816    -1.7719239997    -1.2251349433
   10      C       2.7138069848    -1.3669487547    -0.0252811806
   11      C       4.2025523868    -1.0371756735    -0.3860595079
   12      C       4.4649176725     0.5166493013    -0.6095817524
   13      C       3.1787854434     1.4117551711    -0.6813443862
   14      O       2.7418829436     2.2012894467     0.1841911567
   15      O      -2.3062540581     1.9949758444    -0.0116364734
   16      O       2.5672989054     1.1971084540    -1.9626395036
   17      O       2.1772532012    -1.2988709071     1.1012062334
   18      C       1.4347474725     2.1319972962    -2.1684286458
   19      C       5.1305092322    -1.3021776931     0.8727227338
   20      C       6.6438359403    -1.2081976432     0.4263300853
   21      C       6.8395328993     0.3504880474     0.3231643436
   22      C       5.3788279003     0.8551043187     0.6427176991
   23      O       4.9192901546    -0.0855498379     1.6899361946
   24      H       4.4938659102    -1.6216180982    -1.2761148584
   25      H       5.0139400516     0.6662359776    -1.5573321695
   26      H       4.8619872550    -2.2066058832     1.4520345252
   27      H       7.3009961104    -1.6502502268     1.1916074110
   28      H       6.8224163112    -1.7218232685    -0.5318861263
   29      H       7.5455746822     0.7182713218     1.0848938077
   30      H       7.1895765500     0.6739032328    -0.6701286479
   31      H       5.2923438181     1.9004445786     0.9973486504
   32      O      -2.2276042199    -1.4533541588     1.2831043097
   33      C      -1.4061356162     2.7345976255     0.9061250314
   34      C      -5.8112960270     0.5159096820     0.3670755554
   35      C      -6.7934605246    -0.0965771835    -0.7088186038
   36      C      -6.3168447955    -1.5963193992    -0.7468037126
   37      C      -5.0916180455    -1.5439196515     0.2471452982
   38      O      -5.5512239044    -0.6078213523     1.2979645764
   39      H      -4.4358398236     1.2696022961    -1.2652224946
   40      H      -3.8694408009    -1.0166504968    -1.5557485012
   41      H      -0.4766847375     2.1519274806     1.0639960855
   42      H      -6.1981091411     1.3918216704     0.9225368014
   43      H      -7.8382571043    -0.0118275277    -0.3706409427
   44      H      -6.6979193466     0.4030334677    -1.6862115745
   45      H      -7.0940706994    -2.2748584206    -0.3603654812
   46      H      -6.0272998281    -1.9287017150    -1.7564621256
   47      H      -4.7916077352    -2.5109117723     0.6952288083
   48      H      -1.9162424700     2.8890228343     1.8781868993
   49      H      -1.1546780512     3.7072336105     0.4415794074
   50      H       0.5127475295     1.5542572833    -2.3751057497
   51      H       1.6610138079     2.7768336778    -3.0404012169
   52      H       1.2972348673     2.7542688611    -1.2619723243
   53      H       0.4363835545    -2.9300570591    -0.4034244304
   54      H       0.1792592623    -2.1655421633    -2.0161950716
   55      H      -0.1990371073    -0.9191359060     0.7765496665
   56      H       0.3540635570     0.1504434159    -0.5811541107
 ----------------------------------------------------------------
 Molecular Point Group                 C1    NOp =  1
 Largest Abelian Subgroup              C1    NOp =  1
 Nuclear Repulsion Energy =  3128.7679030022 hartrees
 There are      113 alpha and      113 beta electrons
 Applying Cartesian multipole field
    Component          Value
    ---------          -----
     (2,0,0)        1.00000E-12
     (0,2,0)        2.00000E-11
     (0,0,2)       -3.00000E-11
 Nucleus-field energy     =     0.0000000212 hartrees
 Requested basis set is STO-3G
 There are 86 shells and 176 basis functions
 A cutoff of  1.0D-12 yielded   2175 shell pairs
 There are     10164 function pairs
 Smallest overlap matrix eigenvalue = 2.13E-01
 Guess MOs from SCF MO coefficient file
 Reading MOs from coefficient file
 Reading MOs from coefficient file
 A restricted hybrid HF-DFT SCF calculation will be
 performed using Pulay DIIS extrapolation
 Exchange:     0.2000 Hartree-Fock + 0.0800 Slater + 0.7200 B88
 Correlation:  0.1900 VWN1RPA + 0.8100 LYP
 Using SG-1 standard quadrature grid
 Dispersion:   Grimme D3
 SCF converges when DIIS error is below 1.0E-08
 Geometry optimization detected.  Setting ReadMinima to 0
 Setting SaveMinima to 0
 using 48 threads for integral computing
 -------------------------------------------------------
 OpenMP Integral computing Module                
 Release: version 1.0, May 2013, Q-Chem Inc. Pittsburgh 
 -------------------------------------------------------
 -------------------------------------------------------
 OpenMP BLAS3 based DFT computing Module                
 Release: version 1.0, May 2013, Q-Chem Inc. Pittsburgh 
 -------------------------------------------------------
 ---------------------------------------
  Cycle       Energy         DIIS Error
 ---------------------------------------
    1   -1510.2262858385      3.06E-03
    2   -1510.2788525836      2.25E-04
    3   -1510.2790502387      2.01E-04
    4   -1510.2791939838      1.04E-04
    5   -1510.2792273603      5.37E-05
    6   -1510.2792392928      1.54E-05
    7   -1510.2792403574      4.59E-06
    8   -1510.2792404427      1.54E-06
    9   -1510.2792404534      3.36E-07
   10   -1510.2792404539      1.34E-07
   11   -1510.2792404540      1.04E-07
   12   -1510.2792404540      2.23E-08
   13   -1510.2792404541      6.99E-09 Convergence criterion met
 ---------------------------------------
 SCF time:  CPU 91.95 s  wall 1.92 s
 SCF   energy in the final basis set = -1510.27924045
 Total energy in the final basis set = -1510.27924045
 
 --------------------------------------------------------------
 
                    Orbital Energies (a.u.)
 --------------------------------------------------------------
 
 Alpha MOs
 -- Occupied --
-18.937 -18.936 -18.933 -18.931 -18.888 -18.886 -18.884 -18.880
-18.879 -18.877 -10.104 -10.101 -10.101 -10.097 -10.074 -10.066
-10.062 -10.061 -10.060 -10.059 -10.058 -10.054 -10.042 -10.041
-10.040 -10.039 -10.022 -10.021 -10.020 -10.019  -1.017  -1.015
 -1.011  -1.007  -0.971  -0.968  -0.941  -0.941  -0.937  -0.934
 -0.766  -0.764  -0.728  -0.724  -0.712  -0.706  -0.696  -0.665
 -0.658  -0.621  -0.598  -0.585  -0.549  -0.546  -0.539  -0.537
 -0.512  -0.510  -0.480  -0.473  -0.464  -0.458  -0.455  -0.454
 -0.435  -0.431  -0.425  -0.418  -0.415  -0.412  -0.406  -0.398
 -0.390  -0.383  -0.375  -0.368  -0.364  -0.357  -0.355  -0.353
 -0.351  -0.346  -0.339  -0.332  -0.331  -0.330  -0.327  -0.313
 -0.310  -0.307  -0.306  -0.302  -0.296  -0.283  -0.281  -0.277
 -0.274  -0.256  -0.251  -0.249  -0.245  -0.234  -0.233  -0.188
 -0.179  -0.174  -0.167  -0.165  -0.162  -0.153  -0.152  -0.144
 -0.142
 -- Virtual --
  0.092   0.095   0.097   0.101   0.208   0.228   0.237   0.255
  0.261   0.273   0.285   0.288   0.297   0.309   0.325   0.331
  0.336   0.345   0.346   0.348   0.358   0.360   0.367   0.372
  0.379   0.380   0.384   0.388   0.406   0.407   0.407   0.410
  0.411   0.414   0.414   0.418   0.420   0.421   0.429   0.431
  0.431   0.433   0.438   0.439   0.441   0.447   0.459   0.465
  0.467   0.478   0.486   0.487   0.493   0.503   0.506   0.539
  0.540   0.550   0.551   0.632   0.635   0.654   0.656
 --------------------------------------------------------------
 
          Ground-State Mulliken Net Atomic Charges

     Atom                 Charge (a.u.)
  ----------------------------------------
      1 O                    -0.206431
      2 C                     0.207121
      3 C                    -0.076457
      4 C                    -0.078506
      5 C                     0.207433
      6 O                    -0.173930
      7 C                    -0.058379
      8 C                    -0.050942
      9 O                    -0.168818
     10 C                     0.204854
     11 C                    -0.077264
     12 C                    -0.078082
     13 C                     0.206387
     14 O                    -0.210410
     15 O                    -0.172985
     16 O                    -0.171056
     17 O                    -0.206688
     18 C                    -0.139120
     19 C                     0.026209
     20 C                    -0.144828
     21 C                    -0.143161
     22 C                     0.024633
     23 O                    -0.184087
     24 H                     0.087706
     25 H                     0.086239
     26 H                     0.085937
     27 H                     0.078745
     28 H                     0.073309
     29 H                     0.078818
     30 H                     0.072948
     31 H                     0.088914
     32 O                    -0.206558
     33 C                    -0.138837
     34 C                     0.025643
     35 C                    -0.144957
     36 C                    -0.143097
     37 C                     0.024863
     38 O                    -0.184349
     39 H                     0.086217
     40 H                     0.085260
     41 H                     0.088343
     42 H                     0.087984
     43 H                     0.078494
     44 H                     0.072723
     45 H                     0.078463
     46 H                     0.072541
     47 H                     0.087121
     48 H                     0.104184
     49 H                     0.084633
     50 H                     0.089706
     51 H                     0.085970
     52 H                     0.100474
     53 H                     0.086743
     54 H                     0.092346
     55 H                     0.112009
     56 H                     0.085977
  ----------------------------------------
  Sum of atomic charges =    -0.000000

 -----------------------------------------------------------------
                    Cartesian Multipole Moments
 -----------------------------------------------------------------
    Charge (ESU x 10^10)
                -0.0000
    Dipole Moment (Debye)
         X       1.1709      Y      -0.0469      Z      -5.0981
       Tot       5.2310
    Quadrupole Moments (Debye-Ang)
        XX    -140.7987     XY      -1.2699     YY    -152.9159
        XZ       6.9970     YZ      -0.7786     ZZ    -170.9237
    Octopole Moments (Debye-Ang^2)
       XXX      59.4325    XXY     -11.4707    XYY      -1.0494
       YYY       4.6790    XXZ     -79.4527    XYZ     -10.2241
       YYZ      -2.9702    XZZ       8.3269    YZZ       8.5678
       ZZZ      -7.7588
    Hexadecapole Moments (Debye-Ang^3)
      XXXX  -16026.4450   XXXY     -58.7463   XXYY   -3115.1726
      XYYY     -19.1471   YYYY   -2065.3057   XXXZ     204.7653
      XXYZ     -17.8991   XYYZ       8.1281   YYYZ     -29.0306
      XXZZ   -3202.9772   XYZZ       7.6798   YYZZ    -529.6331
      XZZZ      41.1339   YZZZ     -25.1449   ZZZZ   -1134.1622
 -----------------------------------------------------------------
 Calculating analytic gradient of the SCF energy
 Gradient of SCF Energy
            1           2           3           4           5           6
    1  -0.0001724   0.0012280   0.0004895  -0.0003544   0.0004973  -0.0001525
    2   0.0004044  -0.0025540   0.0014568  -0.0012591   0.0022443  -0.0013061
    3  -0.0001769   0.0009247  -0.0016725   0.0012965   0.0007634   0.0000403
            7           8           9          10          11          12
    1  -0.0001135  -0.0010205   0.0009443   0.0002608  -0.0002296  -0.0000414
    2  -0.0003053   0.0022563  -0.0030486   0.0009793   0.0002783  -0.0001391
    3   0.0003074  -0.0017504   0.0015063  -0.0001969  -0.0016964   0.0021649
           13          14          15          16          17          18
    1   0.0009872  -0.0003135  -0.0004624  -0.0006600   0.0004847   0.0000177
    2   0.0012635  -0.0001308   0.0015350  -0.0008067   0.0005848   0.0002326
    3  -0.0005088  -0.0000963  -0.0003869   0.0002362   0.0001904  -0.0002481
           19          20          21          22          23          24
    1  -0.0002062   0.0001148   0.0003216   0.0000503   0.0001663  -0.0001429
    2  -0.0001072  -0.0001716  -0.0001525  -0.0001558  -0.0002462   0.0000631
    3   0.0001807  -0.0001017  -0.0001906   0.0000415  -0.0000392   0.0000145
           25          26          27          28          29          30
    1  -0.0001191   0.0000352   0.0000035  -0.0000894  -0.0000040  -0.0001354
    2   0.0003105   0.0000003  -0.0000148   0.0000803   0.0000218   0.0000898
    3  -0.0000869  -0.0000026  -0.0000207   0.0000871   0.0000099   0.0001279
           31          32          33          34          35          36
    1  -0.0000487  -0.0001507  -0.0005933  -0.0001849  -0.0001475  -0.0000342
    2   0.0000328  -0.0013410   0.0002058  -0.0000501   0.0001365   0.0000410
    3  -0.0000313  -0.0003389   0.0002530   0.0000121  -0.0000740  -0.0000467
           37          38          39          40          41          42
    1  -0.0000640   0.0001306  -0.0000270  -0.0002733  -0.0002354  -0.0000404
    2   0.0002482   0.0002268  -0.0002442  -0.0001627   0.0001826  -0.0000456
    3   0.0000088  -0.0000690  -0.0000988  -0.0001663   0.0005443   0.0000030
           43          44          45          46          47          48
    1   0.0000179   0.0001393   0.0000133  -0.0001001   0.0000802   0.0001584
    2  -0.0000472  -0.0001006   0.0000218  -0.0000624   0.0000216  -0.0001314
    3  -0.0000087   0.0000598  -0.0000726   0.0000429   0.0000017   0.0000970
           49          50          51          52          53          54
    1  -0.0001124  -0.0001743   0.0000813   0.0005128  -0.0002622   0.0001522
    2   0.0000132   0.0003493  -0.0000957  -0.0001733  -0.0003513   0.0001629
    3   0.0000464   0.0000063   0.0000122  -0.0006618  -0.0002768  -0.0000527
           55          56
    1  -0.0001725  -0.0000495
    2   0.0002887  -0.0005287
    3   0.0000490   0.0000445
 Max gradient component =       3.049E-03
 RMS gradient           =       6.410E-04
 Gradient time:  CPU 29.51 s  wall 0.63 s
 Geometry Optimization Parameters
   NAtoms,    NIC,     NZ,  NCons,   NDum,   NFix, NCnnct, MaxDiis
       56     458       0       0       0       0       0       0

 Cartesian Hessian Update
 Hessian Updated using BFGS Update


** GEOMETRY OPTIMIZATION IN DELOCALIZED INTERNAL COORDINATES **
   Searching for a Minimum

   Optimization Cycle:   2

                       Coordinates (Angstroms)
     ATOM                X               Y               Z
      1  O        -3.7130513378    1.8155470253    1.8925177092
      2  C        -3.4754983048    1.5543453939    0.6931247287
      3  C        -4.3900863866    0.7446759815   -0.2944025419
      4  C        -3.9159498952   -0.7650897641   -0.4809890472
      5  C        -2.5049099036   -1.0374397364    0.1377852929
      6  O        -1.5360008857   -0.7135226254   -0.8684927761
      7  C        -0.1603706213   -0.7969420563   -0.3251621350
      8  C         0.5951882135   -2.0050356853   -1.0003097929
      9  O         2.0448451816   -1.7719239997   -1.2251349433
     10  C         2.7138069848   -1.3669487547   -0.0252811806
     11  C         4.2025523868   -1.0371756735   -0.3860595079
     12  C         4.4649176725    0.5166493013   -0.6095817524
     13  C         3.1787854434    1.4117551711   -0.6813443862
     14  O         2.7418829436    2.2012894467    0.1841911567
     15  O        -2.3062540581    1.9949758444   -0.0116364734
     16  O         2.5672989054    1.1971084540   -1.9626395036
     17  O         2.1772532012   -1.2988709071    1.1012062334
     18  C         1.4347474725    2.1319972962   -2.1684286458
     19  C         5.1305092322   -1.3021776931    0.8727227338
     20  C         6.6438359403   -1.2081976432    0.4263300853
     21  C         6.8395328993    0.3504880474    0.3231643436
     22  C         5.3788279003    0.8551043187    0.6427176991
     23  O         4.9192901546   -0.0855498379    1.6899361946
     24  H         4.4938659102   -1.6216180982   -1.2761148584
     25  H         5.0139400516    0.6662359776   -1.5573321695
     26  H         4.8619872550   -2.2066058832    1.4520345252
     27  H         7.3009961104   -1.6502502268    1.1916074110
     28  H         6.8224163112   -1.7218232685   -0.5318861263
     29  H         7.5455746822    0.7182713218    1.0848938077
     30  H         7.1895765500    0.6739032328   -0.6701286479
     31  H         5.2923438181    1.9004445786    0.9973486504
     32  O        -2.2276042199   -1.4533541588    1.2831043097
     33  C        -1.4061356162    2.7345976255    0.9061250314
     34  C        -5.8112960270    0.5159096820    0.3670755554
     35  C        -6.7934605246   -0.0965771835   -0.7088186038
     36  C        -6.3168447955   -1.5963193992   -0.7468037126
     37  C        -5.0916180455   -1.5439196515    0.2471452982
     38  O        -5.5512239044   -0.6078213523    1.2979645764
     39  H        -4.4358398236    1.2696022961   -1.2652224946
     40  H        -3.8694408009   -1.0166504968   -1.5557485012
     41  H        -0.4766847375    2.1519274806    1.0639960855
     42  H        -6.1981091411    1.3918216704    0.9225368014
     43  H        -7.8382571043   -0.0118275277   -0.3706409427
     44  H        -6.6979193466    0.4030334677   -1.6862115745
     45  H        -7.0940706994   -2.2748584206   -0.3603654812
     46  H        -6.0272998281   -1.9287017150   -1.7564621256
     47  H        -4.7916077352   -2.5109117723    0.6952288083
     48  H        -1.9162424700    2.8890228343    1.8781868993
     49  H        -1.1546780512    3.7072336105    0.4415794074
     50  H         0.5127475295    1.5542572833   -2.3751057497
     51  H         1.6610138079    2.7768336778   -3.0404012169
     52  H         1.2972348673    2.7542688611   -1.2619723243
     53  H         0.4363835545   -2.9300570591   -0.4034244304
     54  H         0.1792592623   -2.1655421633   -2.0161950716
     55  H        -0.1990371073   -0.9191359060    0.7765496665
     56  H         0.3540635570    0.1504434159   -0.5811541107
   Point Group: c1    Number of degrees of freedom:   162


   Energy is  -1510.279240454

 Hessian Updated using BFGS Update

149 Hessian modes will be used to form the next step
  Hessian Eigenvalues:
     0.000914    0.002249    0.002711    0.002780    0.003267    0.004169
     0.004196    0.004251    0.004639    0.004664    0.004689    0.006694
     0.006838    0.007723    0.010292    0.011023    0.011112    0.021552
     0.021669    0.025255    0.026219    0.030291    0.030779    0.034430
     0.035587    0.036728    0.040655    0.041432    0.041866    0.041992
     0.042505    0.045922    0.047374    0.048111    0.049297    0.050824
     0.051011    0.052579    0.052972    0.053584    0.054497    0.054681
     0.055501    0.055919    0.056510    0.057669    0.059249    0.060161
     0.060568    0.063545    0.063568    0.064278    0.064384    0.067531
     0.070021    0.070361    0.073080    0.073272    0.091377    0.092581
     0.092810    0.093122    0.096048    0.098151    0.100236    0.100488
     0.101354    0.101679    0.110209    0.110917    0.112800    0.116321
     0.121160    0.127640    0.136402    0.140326    0.157224    0.159174
     0.159996    0.161061    0.163416    0.165599    0.220074    0.220411
     0.220725    0.223666    0.224811    0.232276    0.238400    0.238543
     0.239556    0.239568    0.247335    0.247862    0.249574    0.249733
     0.249920    0.249951    0.249991    0.253231    0.253236    0.254961
     0.259545    0.261322    0.262565    0.264440    0.292186    0.292726
     0.306368    0.306806    0.323277    0.325109    0.326634    0.326888
     0.327489    0.327847    0.328096    0.328297    0.328620    0.328939
     0.329003    0.329046    0.329235    0.329390    0.330836    0.331415
     0.331769    0.332452    0.333576    0.334805    0.334815    0.334913
     0.334930    0.334966    0.335112    0.335261    0.335356    0.342150
     0.342353    0.344085    0.366519    0.402154    0.403850    0.406269
     0.408631    0.831022    0.831340    0.833607    0.833811

 Minimum Search - Taking Simple RFO Step
 Searching for Lamda that Minimizes Along All modes
 Value Taken    Lamda =  -0.00350963
 Calculated Step too Large.  Step scaled by  0.403910
 Step Taken.  Stepsize is  0.300000

                             Maximum     Tolerance    Cnvgd?
         Gradient           0.010247      0.000300      NO
         Displacement       0.152757      0.001200      NO
         Energy change     -0.000392      0.000001      NO


 New Cartesian Coordinates Obtained by Inverse Iteration

 Displacement from previous Coordinates is:  1.391747
 Adding empirical dispersion correction 
 ----------------------------------------------------------------
 Doing -D3(op) with
 s6 =   1.00000
 s8 =   0.78311
 a1 =   0.30000
 a2 =   4.25000
 n  =  10.00000
 -D3 energy without 3body term =     -0.0701872255 hartrees
 ----------------------------------------------------------------
             Standard Nuclear Orientation (Angstroms)
    I     Atom           X                Y                Z
 ----------------------------------------------------------------
    1      O      -3.6527295672     1.8322054721     1.8699696624
    2      C      -3.4202493657     1.5361356445     0.6776961951
    3      C      -4.3684954320     0.7594827976    -0.3042460168
    4      C      -3.9246652130    -0.7552183243    -0.5197189828
    5      C      -2.5204341943    -1.0634472549     0.0976061990
    6      O      -1.5421906545    -0.7464724201    -0.9015422785
    7      C      -0.1754506788    -0.7925710980    -0.3319335157
    8      C       0.6111767440    -2.0101960565    -0.9522180915
    9      O       2.0495907848    -1.7386597775    -1.2023445522
   10      C       2.7407874508    -1.3924136731     0.0032261667
   11      C       4.2193393158    -1.0317552012    -0.3690457888
   12      C       4.4393376038     0.5258523455    -0.6095114898
   13      C       3.1283795460     1.3856392361    -0.6626418328
   14      O       2.6601558512     2.1282043780     0.2277257204
   15      O      -2.2275537793     1.9059957590    -0.0287680981
   16      O       2.5073703927     1.1613374236    -1.9374519566
   17      O       2.2183450775    -1.3578198432     1.1378269890
   18      C       1.3127494551     2.0249297796    -2.0988591742
   19      C       5.1647215798    -1.2658631220     0.8824364724
   20      C       6.6710639286    -1.1392335808     0.4212070833
   21      C       6.8272746617     0.4226944827     0.3011791110
   22      C       5.3581925001     0.8949902311     0.6308864906
   23      O       4.9315993928    -0.0473040485     1.6907242982
   24      H       4.5153803229    -1.6132938075    -1.2594494420
   25      H       4.9727334097     0.6851710001    -1.5646448294
   26      H       4.9228173009    -2.1715962816     1.4712935895
   27      H       7.3457490632    -1.5574543577     1.1846217396
   28      H       6.8536823432    -1.6577525731    -0.5336474861
   29      H       7.5316852310     0.8146985526     1.0522437671
   30      H       7.1602123044     0.7443688598    -0.6986391657
   31      H       5.2505180989     1.9407802095     0.9782893977
   32      O      -2.2523116698    -1.4686842076     1.2488954269
   33      C      -1.2860770615     2.6014121834     0.8819623734
   34      C      -5.7868774177     0.5522040190     0.3692367117
   35      C      -6.7933665317    -0.0178056887    -0.7073621664
   36      C      -6.3484390746    -1.5260227416    -0.7809785743
   37      C      -5.1135657888    -1.5203194232     0.2025624224
   38      O      -5.5427882881    -0.5948182706     1.2756196807
   39      H      -4.4121744958     1.2975931333    -1.2679038107
   40      H      -3.8851580968    -0.9924448896    -1.5979938230
   41      H      -0.3857326608     1.9732090792     1.0343644320
   42      H      -6.1475437995     1.4263221223     0.9447799188
   43      H      -7.8324389139     0.0817540747    -0.3559449885
   44      H      -6.6978708732     0.4991302057    -1.6756652382
   45      H      -7.1362760675    -2.1960472636    -0.4011516390
   46      H      -6.0752106327    -1.8435100414    -1.7999346306
   47      H      -4.8323270968    -2.5021703911     0.6300437602
   48      H      -1.7816504526     2.7830156706     1.8568217583
   49      H      -0.9893050363     3.5594237145     0.4137533329
   50      H       0.4286624936     1.3930487172    -2.3125153524
   51      H       1.4826023065     2.7102877349    -2.9525929371
   52      H       1.1465252765     2.6078579834    -1.1710490190
   53      H       0.4806860964    -2.9166916781    -0.3210765120
   54      H       0.1959766122    -2.2188334527    -1.9596330821
   55      H      -0.2286997970    -0.8763259333     0.7727228507
   56      H       0.3274539238     0.1538752284    -0.6136088930
 ----------------------------------------------------------------
 Molecular Point Group                 C1    NOp =  1
 Largest Abelian Subgroup              C1    NOp =  1
 Nuclear Repulsion Energy =  3141.5536828701 hartrees
 There are      113 alpha and      113 beta electrons
 Applying Cartesian multipole field
    Component          Value
    ---------          -----
     (2,0,0)        1.00000E-12
     (0,2,0)        2.00000E-11
     (0,0,2)       -3.00000E-11
 Nucleus-field energy     =     0.0000000204 hartrees
 Requested basis set is STO-3G
 There are 86 shells and 176 basis functions
 A cutoff of  1.0D-12 yielded   2191 shell pairs
 There are     10249 function pairs
 Smallest overlap matrix eigenvalue = 2.13E-01
 Guess MOs from SCF MO coefficient file
 Reading MOs from coefficient file
 Reading MOs from coefficient file
 A restricted hybrid HF-DFT SCF calculation will be
 performed using Pulay DIIS extrapolation
 Exchange:     0.2000 Hartree-Fock + 0.0800 Slater + 0.7200 B88
 Correlation:  0.1900 VWN1RPA + 0.8100 LYP
 Using SG-1 standard quadrature grid
 Dispersion:   Grimme D3
 SCF converges when DIIS error is below 1.0E-08
 Geometry optimization detected.  Setting ReadMinima to 0
 Setting SaveMinima to 0
 using 48 threads for integral computing
 -------------------------------------------------------
 OpenMP Integral computing Module                
 Release: version 1.0, May 2013, Q-Chem Inc. Pittsburgh 
 -------------------------------------------------------
 -------------------------------------------------------
 OpenMP BLAS3 based DFT computing Module                
 Release: version 1.0, May 2013, Q-Chem Inc. Pittsburgh 
 -------------------------------------------------------
 ---------------------------------------
  Cycle       Energy         DIIS Error
 ---------------------------------------
    1   -1510.2611665338      2.13E-03
    2   -1510.2795652649      1.38E-04
    3   -1510.2796181408      1.77E-04
    4   -1510.2797324216      8.16E-05
    5   -1510.2797587595      2.77E-05
    6   -1510.2797616076      1.16E-05
    7   -1510.2797621935      3.49E-06
    8   -1510.2797622468      1.01E-06
    9   -1510.2797622512      4.46E-07
   10   -1510.2797622518      2.98E-07
   11   -1510.2797622521      3.76E-08
   12   -1510.2797622521      1.69E-08
   13   -1510.2797622522      5.37E-09 Convergence criterion met
 ---------------------------------------
 SCF time:  CPU 95.73 s  wall 2.00 s
 SCF   energy in the final basis set = -1510.27976225
 Total energy in the final basis set = -1510.27976225
 
 --------------------------------------------------------------
 
                    Orbital Energies (a.u.)
 --------------------------------------------------------------
 
 Alpha MOs
 -- Occupied --
-18.937 -18.937 -18.933 -18.931 -18.888 -18.886 -18.884 -18.880
-18.879 -18.877 -10.105 -10.101 -10.101 -10.098 -10.073 -10.066
-10.062 -10.061 -10.060 -10.059 -10.058 -10.054 -10.042 -10.041
-10.040 -10.039 -10.022 -10.021 -10.021 -10.019  -1.018  -1.015
 -1.011  -1.008  -0.971  -0.969  -0.942  -0.941  -0.937  -0.934
 -0.766  -0.764  -0.728  -0.724  -0.712  -0.706  -0.696  -0.666
 -0.658  -0.621  -0.598  -0.585  -0.549  -0.546  -0.539  -0.537
 -0.512  -0.510  -0.482  -0.473  -0.464  -0.459  -0.456  -0.454
 -0.434  -0.431  -0.425  -0.419  -0.416  -0.413  -0.406  -0.398
 -0.391  -0.383  -0.375  -0.368  -0.364  -0.356  -0.355  -0.353
 -0.351  -0.346  -0.340  -0.332  -0.332  -0.330  -0.328  -0.313
 -0.310  -0.307  -0.306  -0.302  -0.295  -0.283  -0.281  -0.277
 -0.274  -0.256  -0.251  -0.250  -0.246  -0.234  -0.233  -0.189
 -0.179  -0.175  -0.167  -0.165  -0.162  -0.154  -0.152  -0.144
 -0.143
 -- Virtual --
  0.092   0.095   0.097   0.100   0.208   0.228   0.237   0.255
  0.261   0.273   0.286   0.288   0.297   0.309   0.325   0.331
  0.336   0.345   0.346   0.348   0.358   0.360   0.366   0.372
  0.378   0.380   0.384   0.388   0.405   0.407   0.407   0.408
  0.410   0.413   0.415   0.418   0.419   0.421   0.426   0.430
  0.430   0.432   0.438   0.438   0.442   0.446   0.464   0.465
  0.466   0.485   0.486   0.487   0.497   0.503   0.506   0.539
  0.540   0.550   0.551   0.632   0.635   0.654   0.656
 --------------------------------------------------------------
 
          Ground-State Mulliken Net Atomic Charges

     Atom                 Charge (a.u.)
  ----------------------------------------
      1 O                    -0.206301
      2 C                     0.207446
      3 C                    -0.076476
      4 C                    -0.078505
      5 C                     0.207655
      6 O                    -0.173565
      7 C                    -0.058660
      8 C                    -0.051002
      9 O                    -0.168832
     10 C                     0.204422
     11 C                    -0.077261
     12 C                    -0.078035
     13 C                     0.206225
     14 O                    -0.210940
     15 O                    -0.173709
     16 O                    -0.170204
     17 O                    -0.206585
     18 C                    -0.139531
     19 C                     0.026165
     20 C                    -0.144783
     21 C                    -0.143194
     22 C                     0.024712
     23 O                    -0.184152
     24 H                     0.087454
     25 H                     0.086180
     26 H                     0.086340
     27 H                     0.078727
     28 H                     0.073293
     29 H                     0.078788
     30 H                     0.072930
     31 H                     0.088531
     32 O                    -0.206689
     33 C                    -0.138994
     34 C                     0.025523
     35 C                    -0.144892
     36 C                    -0.143161
     37 C                     0.024894
     38 O                    -0.184573
     39 H                     0.086246
     40 H                     0.085251
     41 H                     0.088773
     42 H                     0.088566
     43 H                     0.078547
     44 H                     0.072740
     45 H                     0.078465
     46 H                     0.072580
     47 H                     0.086809
     48 H                     0.104352
     49 H                     0.084576
     50 H                     0.090848
     51 H                     0.086029
     52 H                     0.100193
     53 H                     0.087923
     54 H                     0.092018
     55 H                     0.109801
     56 H                     0.087040
  ----------------------------------------
  Sum of atomic charges =     0.000000

 -----------------------------------------------------------------
                    Cartesian Multipole Moments
 -----------------------------------------------------------------
    Charge (ESU x 10^10)
                 0.0000
    Dipole Moment (Debye)
         X       1.1377      Y      -0.0140      Z      -5.0839
       Tot       5.2097
    Quadrupole Moments (Debye-Ang)
        XX    -140.6789     XY      -1.2645     YY    -153.2574
        XZ       6.9627     YZ      -0.7172     ZZ    -171.1157
    Octopole Moments (Debye-Ang^2)
       XXX      57.0878    XXY     -10.1027    XYY       0.2394
       YYY       4.1237    XXZ     -78.8964    XYZ      -9.1308
       YYZ      -3.3230    XZZ       6.3086    YZZ       8.1031
       ZZZ      -6.0106
    Hexadecapole Moments (Debye-Ang^3)
      XXXX  -15967.6942   XXXY     -60.8911   XXYY   -3092.7901
      XYYY     -15.0502   YYYY   -1990.7846   XXXZ     161.6457
      XXYZ     -18.1030   XYYZ      -0.7331   YYYZ     -33.5322
      XXZZ   -3187.0398   XYZZ       4.9903   YYZZ    -515.6298
      XZZZ       0.9024   YZZZ     -28.9415   ZZZZ   -1111.0333
 -----------------------------------------------------------------
 Calculating analytic gradient of the SCF energy
 Gradient of SCF Energy
            1           2           3           4           5           6
    1  -0.0005033   0.0015793  -0.0005767   0.0006875   0.0005952  -0.0004949
    2   0.0007538  -0.0037902   0.0012133   0.0005569  -0.0003569  -0.0010918
    3  -0.0000673   0.0005481  -0.0007885   0.0006468   0.0000318  -0.0004423
            7           8           9          10          11          12
    1  -0.0014737  -0.0008283   0.0006773   0.0011623   0.0000974  -0.0009045
    2   0.0003929   0.0019058  -0.0012015  -0.0021839   0.0013531  -0.0015797
    3  -0.0003097   0.0009062   0.0004218  -0.0004498  -0.0003951   0.0016001
           13          14          15          16          17          18
    1   0.0024972  -0.0006255  -0.0005313  -0.0008789   0.0011243  -0.0003501
    2   0.0042810  -0.0011733   0.0016647  -0.0012666   0.0016530  -0.0006976
    3  -0.0016132   0.0002580  -0.0005052   0.0002837   0.0002613   0.0006352
           19          20          21          22          23          24
    1   0.0001165   0.0002358  -0.0000225  -0.0001049   0.0001195  -0.0004633
    2  -0.0006969  -0.0001853  -0.0000505  -0.0004091  -0.0004344   0.0002733
    3   0.0006128  -0.0000120  -0.0001649  -0.0000003  -0.0001212  -0.0000816
           25          26          27          28          29          30
    1  -0.0000002   0.0001044  -0.0000191  -0.0000896   0.0000047  -0.0000055
    2   0.0005872   0.0000044  -0.0000009   0.0000772   0.0000021   0.0000694
    3  -0.0001528  -0.0000664  -0.0000472   0.0000740   0.0000229   0.0000969
           31          32          33          34          35          36
    1  -0.0001236   0.0000881  -0.0001933  -0.0005711  -0.0001720  -0.0000356
    2   0.0000577  -0.0005161   0.0002761   0.0002146   0.0001531  -0.0000184
    3  -0.0000703  -0.0001389   0.0000732   0.0001056   0.0000078  -0.0002477
           37          38          39          40          41          42
    1   0.0001773  -0.0000048   0.0002865  -0.0002810  -0.0000907  -0.0001925
    2   0.0005574   0.0002678  -0.0004224  -0.0002728  -0.0001584  -0.0000667
    3   0.0002330  -0.0000828  -0.0000710  -0.0002010   0.0004043   0.0000250
           43          44          45          46          47          48
    1   0.0000341   0.0001310  -0.0000248  -0.0000829   0.0001474   0.0001236
    2  -0.0000235  -0.0001660   0.0000308  -0.0001065   0.0000596  -0.0002508
    3  -0.0000263   0.0000776  -0.0000413   0.0000425   0.0000623   0.0000896
           49          50          51          52          53          54
    1  -0.0000560  -0.0004051   0.0001521   0.0001905  -0.0004614   0.0003158
    2  -0.0001041  -0.0002093  -0.0002439  -0.0002012  -0.0010364   0.0005618
    3  -0.0001491   0.0006348  -0.0000887  -0.0002569  -0.0006219  -0.0001011
           55          56
    1  -0.0001138   0.0000334
    2   0.0006655   0.0012828
    3  -0.0000821  -0.0007589
 Max gradient component =       4.281E-03
 RMS gradient           =       7.617E-04
 Gradient time:  CPU 30.38 s  wall 0.64 s
 Geometry Optimization Parameters
   NAtoms,    NIC,     NZ,  NCons,   NDum,   NFix, NCnnct, MaxDiis
       56     458       0       0       0       0       0       0

 Cartesian Hessian Update
 Hessian Updated using BFGS Update


** GEOMETRY OPTIMIZATION IN DELOCALIZED INTERNAL COORDINATES **
   Searching for a Minimum

   Optimization Cycle:   3

                       Coordinates (Angstroms)
     ATOM                X               Y               Z
      1  O        -3.6527295672    1.8322054721    1.8699696624
      2  C        -3.4202493657    1.5361356445    0.6776961951
      3  C        -4.3684954320    0.7594827976   -0.3042460168
      4  C        -3.9246652130   -0.7552183243   -0.5197189828
      5  C        -2.5204341943   -1.0634472549    0.0976061990
      6  O        -1.5421906545   -0.7464724201   -0.9015422785
      7  C        -0.1754506788   -0.7925710980   -0.3319335157
      8  C         0.6111767440   -2.0101960565   -0.9522180915
      9  O         2.0495907848   -1.7386597775   -1.2023445522
     10  C         2.7407874508   -1.3924136731    0.0032261667
     11  C         4.2193393158   -1.0317552012   -0.3690457888
     12  C         4.4393376038    0.5258523455   -0.6095114898
     13  C         3.1283795460    1.3856392361   -0.6626418328
     14  O         2.6601558512    2.1282043780    0.2277257204
     15  O        -2.2275537793    1.9059957590   -0.0287680981
     16  O         2.5073703927    1.1613374236   -1.9374519566
     17  O         2.2183450775   -1.3578198432    1.1378269890
     18  C         1.3127494551    2.0249297796   -2.0988591742
     19  C         5.1647215798   -1.2658631220    0.8824364724
     20  C         6.6710639286   -1.1392335808    0.4212070833
     21  C         6.8272746617    0.4226944827    0.3011791110
     22  C         5.3581925001    0.8949902311    0.6308864906
     23  O         4.9315993928   -0.0473040485    1.6907242982
     24  H         4.5153803229   -1.6132938075   -1.2594494420
     25  H         4.9727334097    0.6851710001   -1.5646448294
     26  H         4.9228173009   -2.1715962816    1.4712935895
     27  H         7.3457490632   -1.5574543577    1.1846217396
     28  H         6.8536823432   -1.6577525731   -0.5336474861
     29  H         7.5316852310    0.8146985526    1.0522437671
     30  H         7.1602123044    0.7443688598   -0.6986391657
     31  H         5.2505180989    1.9407802095    0.9782893977
     32  O        -2.2523116698   -1.4686842076    1.2488954269
     33  C        -1.2860770615    2.6014121834    0.8819623734
     34  C        -5.7868774177    0.5522040190    0.3692367117
     35  C        -6.7933665317   -0.0178056887   -0.7073621664
     36  C        -6.3484390746   -1.5260227416   -0.7809785743
     37  C        -5.1135657888   -1.5203194232    0.2025624224
     38  O        -5.5427882881   -0.5948182706    1.2756196807
     39  H        -4.4121744958    1.2975931333   -1.2679038107
     40  H        -3.8851580968   -0.9924448896   -1.5979938230
     41  H        -0.3857326608    1.9732090792    1.0343644320
     42  H        -6.1475437995    1.4263221223    0.9447799188
     43  H        -7.8324389139    0.0817540747   -0.3559449885
     44  H        -6.6978708732    0.4991302057   -1.6756652382
     45  H        -7.1362760675   -2.1960472636   -0.4011516390
     46  H        -6.0752106327   -1.8435100414   -1.7999346306
     47  H        -4.8323270968   -2.5021703911    0.6300437602
     48  H        -1.7816504526    2.7830156706    1.8568217583
     49  H        -0.9893050363    3.5594237145    0.4137533329
     50  H         0.4286624936    1.3930487172   -2.3125153524
     51  H         1.4826023065    2.7102877349   -2.9525929371
     52  H         1.1465252765    2.6078579834   -1.1710490190
     53  H         0.4806860964   -2.9166916781   -0.3210765120
     54  H         0.1959766122   -2.2188334527   -1.9596330821
     55  H        -0.2286997970   -0.8763259333    0.7727228507
     56  H         0.3274539238    0.1538752284   -0.6136088930
   Point Group: c1    Number of degrees of freedom:   162


   Energy is  -1510.279762252

 Hessian Updated using BFGS Update

152 Hessian modes will be used to form the next step
  Hessian Eigenvalues:
     0.000823    0.002060    0.002294    0.002710    0.002781    0.003830
     0.004173    0.004240    0.004623    0.004646    0.004682    0.006605
     0.006751    0.007182    0.009062    0.010994    0.011101    0.017004
     0.021567    0.021670    0.025255    0.026217    0.030332    0.030797
     0.034904    0.035528    0.036678    0.040550    0.041526    0.041904
     0.042258    0.045263    0.046422    0.047165    0.048366    0.050166
     0.050762    0.051006    0.052969    0.053152    0.054373    0.054525
     0.055442    0.055580    0.056316    0.056866    0.058212    0.059255
     0.060153    0.060573    0.063542    0.063572    0.064280    0.064398
     0.069952    0.070084    0.072533    0.073096    0.076427    0.091335
     0.092746    0.092811    0.093456    0.096119    0.099587    0.100313
     0.101290    0.101338    0.102811    0.110283    0.110990    0.113224
     0.116148    0.121136    0.134209    0.136516    0.147225    0.157053
     0.159882    0.159979    0.160021    0.163196    0.164050    0.185246
     0.219092    0.220465    0.221108    0.223844    0.226302    0.228916
     0.238369    0.238802    0.239557    0.239579    0.246848    0.247390
     0.247887    0.249730    0.249921    0.249951    0.249992    0.253189
     0.253232    0.254891    0.257020    0.259477    0.261330    0.262382
     0.264487    0.292364    0.292889    0.306005    0.306495    0.323120
     0.324492    0.326636    0.326899    0.327489    0.327839    0.328100
     0.328297    0.328603    0.328939    0.329003    0.329052    0.329234
     0.329391    0.330933    0.331622    0.331770    0.332510    0.334765
     0.334815    0.334881    0.334915    0.334947    0.334976    0.335218
     0.335353    0.340028    0.341905    0.342268    0.344078    0.384428
     0.402343    0.403678    0.405587    0.422562    0.831060    0.831406
     0.833601    0.833840

 Minimum Search - Taking Simple RFO Step
 Searching for Lamda that Minimizes Along All modes
 Value Taken    Lamda =  -0.00410671
 Calculated Step too Large.  Step scaled by  0.439186
 Step Taken.  Stepsize is  0.300000

                             Maximum     Tolerance    Cnvgd?
         Gradient           0.009601      0.000300      NO
         Displacement       0.127785      0.001200      NO
         Energy change     -0.000522      0.000001      NO


 New Cartesian Coordinates Obtained by Inverse Iteration

 Displacement from previous Coordinates is:  2.059939
 Adding empirical dispersion correction 
 ----------------------------------------------------------------
 Doing -D3(op) with
 s6 =   1.00000
 s8 =   0.78311
 a1 =   0.30000
 a2 =   4.25000
 n  =  10.00000
 -D3 energy without 3body term =     -0.0708662481 hartrees
 ----------------------------------------------------------------
             Standard Nuclear Orientation (Angstroms)
    I     Atom           X                Y                Z
 ----------------------------------------------------------------
    1      O      -3.5018263265     1.7914264440     1.8631366109
    2      C      -3.3194913595     1.4767745476     0.6669217652
    3      C      -4.3327795080     0.7481052386    -0.2861084064
    4      C      -3.9499183240    -0.7775158486    -0.5340730139
    5      C      -2.5523403842    -1.1433325281     0.0663203000
    6      O      -1.5678642089    -0.8256387300    -0.9260960707
    7      C      -0.2084727448    -0.8566867641    -0.3381532544
    8      C       0.6142518941    -2.0510171545    -0.9560203037
    9      O       2.0355707235    -1.7135299775    -1.2163546580
   10      C       2.7170527533    -1.3959443483     0.0020405317
   11      C       4.1954372596    -1.0107249598    -0.3458081640
   12      C       4.3870008732     0.5473323457    -0.6095240521
   13      C       3.0592422787     1.3783479506    -0.6965840487
   14      O       2.5480595766     2.1008101785     0.1867162186
   15      O      -2.1099434222     1.7284382673    -0.0631133815
   16      O       2.5322746884     1.2304394844    -2.0234786645
   17      O       2.1839924679    -1.4008171799     1.1322191515
   18      C       1.3495647598     2.1036586881    -2.2186457927
   19      C       5.1199965859    -1.2066103148     0.9268136842
   20      C       6.6325612663    -1.0508354806     0.4963747641
   21      C       6.7550521565     0.5124387067     0.3576546432
   22      C       5.2683959348     0.9543376253     0.6467867102
   23      O       4.8400779838     0.0178285085     1.7110852718
   24      H       4.5198370599    -1.5968324443    -1.2233450487
   25      H       4.9397215992     0.7067915652    -1.5535738809
   26      H       4.8860278113    -2.1092417419     1.5235584707
   27      H       7.2996487327    -1.4423406429     1.2803731370
   28      H       6.8486347746    -1.5781599658    -0.4467096209
   29      H       7.4326505758     0.9310500796     1.1189258216
   30      H       7.1043061006     0.8272583646    -0.6389298119
   31      H       5.1288924698     2.0020228656     0.9766217488
   32      O      -2.2881189591    -1.5445561457     1.2198670870
   33      C      -1.0847402801     2.3342736571     0.8206818054
   34      C      -5.7389852146     0.5882754000     0.4230554393
   35      C      -6.7951168309     0.0801994826    -0.6367612286
   36      C      -6.4120421302    -1.4424759290    -0.7522301913
   37      C      -5.1547702558    -1.5065912787     0.2004077608
   38      O      -5.5197313128    -0.5855519714     1.3011008204
   39      H      -4.3800692394     1.2977686948    -1.2431001356
   40      H      -3.9347269896    -1.0013829091    -1.6156887383
   41      H      -0.2406536162     1.6268635116     0.9463554512
   42      H      -6.0476110980     1.4659302871     1.0229768395
   43      H      -7.8199337823     0.2132026851    -0.2558485174
   44      H      -6.7045385676     0.6127168810    -1.5970763394
   45      H      -7.2164512333    -2.0888545476    -0.3660984439
   46      H      -6.1765189344    -1.7489968797    -1.7838973241
   47      H      -4.9050678560    -2.5070429309     0.6036589906
   48      H      -1.5343983691     2.5586154699     1.8088004524
   49      H      -0.7156814748     3.2624163211     0.3437207893
   50      H       0.4926818600     1.4885162583    -2.5556917341
   51      H       1.5852718143     2.8533296422    -2.9996779303
   52      H       1.0990581675     2.6127032719    -1.2660679716
   53      H       0.5209220126    -2.9630325450    -0.3266613408
   54      H       0.2028098602    -2.2698535040    -1.9628811131
   55      H      -0.2709563690    -0.9484889352     0.7653761957
   56      H       0.2789411784     0.1010778708    -0.6077290971
 ----------------------------------------------------------------
 Molecular Point Group                 C1    NOp =  1
 Largest Abelian Subgroup              C1    NOp =  1
 Nuclear Repulsion Energy =  3153.2444339564 hartrees
 There are      113 alpha and      113 beta electrons
 Applying Cartesian multipole field
    Component          Value
    ---------          -----
     (2,0,0)        1.00000E-12
     (0,2,0)        2.00000E-11
     (0,0,2)       -3.00000E-11
 Nucleus-field energy     =     0.0000000184 hartrees
 Requested basis set is STO-3G
 There are 86 shells and 176 basis functions
 A cutoff of  1.0D-12 yielded   2198 shell pairs
 There are     10283 function pairs
 Smallest overlap matrix eigenvalue = 2.13E-01
 Guess MOs from SCF MO coefficient file
 Reading MOs from coefficient file
 Reading MOs from coefficient file
 A restricted hybrid HF-DFT SCF calculation will be
 performed using Pulay DIIS extrapolation
 Exchange:     0.2000 Hartree-Fock + 0.0800 Slater + 0.7200 B88
[...]
      7  C        -0.1761788618   -2.3238753259    0.1894250160
      8  C         0.8540981081   -2.9913233279   -0.7915456032
      9  O         1.9507768596   -2.0588538767   -1.1529810780
     10  C         2.9830056427   -2.1085981261   -0.1537694703
     11  C         4.0758156598   -1.0314362715   -0.4882982573
     12  C         3.4988216523    0.4319918053   -0.7103145324
     13  C         1.9373983120    0.4941096106   -0.5997614435
     14  O         1.2515874920    0.2827038428    0.4303944687
     15  O        -1.4190637191    2.1406187966    0.3896359205
     16  O         1.4168739863    0.8562420792   -1.8709428680
     17  O         2.9892904654   -2.9129851864    0.8019519671
     18  C        -0.0665136469    0.7834043468   -1.8785890468
     19  C         5.0112706531   -0.8031121449    0.7685477656
     20  C         6.3022575864   -0.0213478275    0.3089335095
     21  C         5.7234871217    1.4280375290    0.1029241584
     22  C         4.2060736969    1.2068082829    0.4834442555
     23  O         4.2611467761    0.1971796795    1.5644962178
     24  H         4.6408903365   -1.3707313086   -1.3761257896
     25  H         3.7923293892    0.8317721953   -1.6962879182
     26  H         5.1845647348   -1.7197467286    1.3655247528
     27  H         7.0670980490   -0.0419829236    1.1016850197
     28  H         6.7383644849   -0.4404869102   -0.6121649731
     29  H         6.1900014234    2.1510738944    0.7906574574
     30  H         5.8446965165    1.7926365496   -0.9296947087
     31  H         3.6661062220    2.1108802997    0.8253124456
     32  O        -1.7730547282   -0.5578768069    1.3786555947
     33  C        -0.4485817964    2.5013685775    1.4504968462
     34  C        -5.0877246557    0.9920311623    0.2982322621
     35  C        -6.0190727697    0.8590833541   -0.9681705578
     36  C        -5.6088523853   -0.5673011525   -1.4942358294
     37  C        -4.5490602178   -1.0033622176   -0.4056880899
     38  O        -5.0474446839   -0.3862402971    0.8418804326
     39  H        -3.5691372071    1.9466669553   -1.0502680216
     40  H        -2.9089261366   -0.2425842757   -1.7416451740
     41  H         0.3707859088    1.7510880844    1.4048057477
     42  H        -5.4263984039    1.7015840175    1.0778785998
     43  H        -7.0796284143    0.8890408990   -0.6717005921
     44  H        -5.8350862209    1.6556254795   -1.7064983519
     45  H        -6.4647012311   -1.2608112622   -1.4944162651
     46  H        -5.1761532122   -0.5399002097   -2.5071719640
     47  H        -4.4257335785   -2.0968133733   -0.2797509271
     48  H        -0.9546023217    2.4834782586    2.4352350935
     49  H        -0.0543350689    3.5152675200    1.2430274672
     50  H        -0.3985176620   -0.2712275076   -1.7661601234
     51  H        -0.3785365014    1.1740172758   -2.8635820178
     52  H        -0.5325047052    1.3827284033   -1.0572479249
     53  H         1.2790748712   -3.8978945238   -0.3110031172
     54  H         0.3519568525   -3.2654369378   -1.7415745948
     55  H        -0.5909764438   -3.0821030702    0.8880702760
     56  H         0.3251171486   -1.5188212826    0.7752935591
   Point Group: c1    Number of degrees of freedom:   162


   Energy is  -1510.300598799

 Hessian Updated using BFGS Update

162 Hessian modes will be used to form the next step
  Hessian Eigenvalues:
     0.001283    0.001751    0.002428    0.002800    0.003936    0.005207
     0.005596    0.007530    0.009075    0.011368    0.017083    0.018089
     0.019547    0.021590    0.022019    0.025425    0.027724    0.028563
     0.030682    0.031749    0.031966    0.033997    0.034340    0.038832
     0.040067    0.041463    0.042385    0.043250    0.044126    0.045842
     0.048445    0.049769    0.050704    0.051955    0.052878    0.053489
     0.053817    0.054381    0.055024    0.055273    0.056127    0.057150
     0.057521    0.058267    0.060310    0.060940    0.063229    0.063592
     0.063891    0.064399    0.064786    0.065978    0.067129    0.069587
     0.070520    0.071834    0.073334    0.073809    0.082104    0.090736
     0.091955    0.093302    0.094399    0.098700    0.100815    0.102567
     0.103113    0.105371    0.106746    0.109521    0.113826    0.116931
     0.122351    0.126737    0.135797    0.142598    0.145856    0.149643
     0.158799    0.160691    0.161723    0.162899    0.164300    0.169616
     0.181070    0.186069    0.192417    0.201426    0.215500    0.221943
     0.225043    0.235044    0.237265    0.237990    0.240001    0.240089
     0.244193    0.244931    0.246985    0.248161    0.249775    0.252402
     0.253445    0.254680    0.255693    0.257596    0.259914    0.261243
     0.266153    0.277125    0.282134    0.286401    0.292176    0.295659
     0.299291    0.303438    0.306724    0.318428    0.319856    0.323719
     0.325868    0.327097    0.327739    0.328785    0.328949    0.329049
     0.329167    0.329199    0.329434    0.330259    0.331376    0.331778
     0.332419    0.334013    0.334606    0.334808    0.334878    0.334928
     0.335012    0.335106    0.335115    0.335468    0.335950    0.340129
     0.351146    0.352489    0.359037    0.366351    0.371449    0.401611
     0.408730    0.462633    0.473145    0.544340    0.701263    0.830872
     0.832478    0.835092    0.838172    1.654530    1.908240    7.155228

 Minimum Search - Taking Simple RFO Step
 Searching for Lamda that Minimizes Along All modes
 Value Taken    Lamda =  -0.00000340
 Step Taken.  Stepsize is  0.027844

                             Maximum     Tolerance    Cnvgd?
         Gradient           0.000290      0.000300     YES
         Displacement       0.010537      0.001200      NO
         Energy change      0.000000      0.000001     YES

 Final energy is   -1510.30059879919     


 ******************************
 **  OPTIMIZATION CONVERGED  **
 ******************************

                       Coordinates (Angstroms)
     ATOM                X               Y               Z
      1  O        -3.0294376103    2.0453760949    2.1340936680
      2  C        -2.7016900502    1.8150311192    0.9518050124
      3  C        -3.6040552619    1.2414354817   -0.2002688804
      4  C        -3.1914281039   -0.2145126860   -0.6751963305
      5  C        -2.0284851275   -0.8148962565    0.1822558610
      6  O        -1.2718227956   -1.7301251403   -0.6239867414
      7  C        -0.1761788618   -2.3238753259    0.1894250160
      8  C         0.8540981081   -2.9913233279   -0.7915456032
      9  O         1.9507768596   -2.0588538767   -1.1529810780
     10  C         2.9830056427   -2.1085981261   -0.1537694703
     11  C         4.0758156598   -1.0314362715   -0.4882982573
     12  C         3.4988216523    0.4319918053   -0.7103145324
     13  C         1.9373983120    0.4941096106   -0.5997614435
     14  O         1.2515874920    0.2827038428    0.4303944687
     15  O        -1.4190637191    2.1406187966    0.3896359205
     16  O         1.4168739863    0.8562420792   -1.8709428680
     17  O         2.9892904654   -2.9129851864    0.8019519671
     18  C        -0.0665136469    0.7834043468   -1.8785890468
     19  C         5.0112706531   -0.8031121449    0.7685477656
     20  C         6.3022575864   -0.0213478275    0.3089335095
     21  C         5.7234871217    1.4280375290    0.1029241584
     22  C         4.2060736969    1.2068082829    0.4834442555
     23  O         4.2611467761    0.1971796795    1.5644962178
     24  H         4.6408903365   -1.3707313086   -1.3761257896
     25  H         3.7923293892    0.8317721953   -1.6962879182
     26  H         5.1845647348   -1.7197467286    1.3655247528
     27  H         7.0670980490   -0.0419829236    1.1016850197
     28  H         6.7383644849   -0.4404869102   -0.6121649731
     29  H         6.1900014234    2.1510738944    0.7906574574
     30  H         5.8446965165    1.7926365496   -0.9296947087
     31  H         3.6661062220    2.1108802997    0.8253124456
     32  O        -1.7730547282   -0.5578768069    1.3786555947
     33  C        -0.4485817964    2.5013685775    1.4504968462
     34  C        -5.0877246557    0.9920311623    0.2982322621
     35  C        -6.0190727697    0.8590833541   -0.9681705578
     36  C        -5.6088523853   -0.5673011525   -1.4942358294
     37  C        -4.5490602178   -1.0033622176   -0.4056880899
     38  O        -5.0474446839   -0.3862402971    0.8418804326
     39  H        -3.5691372071    1.9466669553   -1.0502680216
     40  H        -2.9089261366   -0.2425842757   -1.7416451740
     41  H         0.3707859088    1.7510880844    1.4048057477
     42  H        -5.4263984039    1.7015840175    1.0778785998
     43  H        -7.0796284143    0.8890408990   -0.6717005921
     44  H        -5.8350862209    1.6556254795   -1.7064983519
     45  H        -6.4647012311   -1.2608112622   -1.4944162651
     46  H        -5.1761532122   -0.5399002097   -2.5071719640
     47  H        -4.4257335785   -2.0968133733   -0.2797509271
     48  H        -0.9546023217    2.4834782586    2.4352350935
     49  H        -0.0543350689    3.5152675200    1.2430274672
     50  H        -0.3985176620   -0.2712275076   -1.7661601234
     51  H        -0.3785365014    1.1740172758   -2.8635820178
     52  H        -0.5325047052    1.3827284033   -1.0572479249
     53  H         1.2790748712   -3.8978945238   -0.3110031172
     54  H         0.3519568525   -3.2654369378   -1.7415745948
     55  H        -0.5909764438   -3.0821030702    0.8880702760
     56  H         0.3251171486   -1.5188212826    0.7752935591

Z-matrix Print:
$molecule
0 1
O 
C  1 1.255488
O  2 1.420559 1 125.240377
C  3 1.485194 2 110.982407 1 -7.396554 0
H  4 1.104603 3 105.627357 2 174.570120 0
H  4 1.111357 3 110.144715 2 -66.730683 0
H  4 1.118453 3 112.710291 2 54.012058 0
C  2 1.566564 1 126.561519 3 178.880831 0
H  8 1.103682 2 108.284963 1 -170.581643 0
C  8 1.588658 2 112.871657 1 65.839185 0
H  10 1.105743 8 110.858223 2 120.717509 0
C  10 1.570484 8 114.132849 2 -2.065038 0
O  12 1.249192 10 126.950295 8 -128.714694 0
O  12 1.437496 10 109.139397 8 52.581760 0
C  14 1.484196 12 109.850858 10 -175.310064 0
H  15 1.108981 14 106.334596 12 -154.777500 0
H  15 1.110584 14 109.601428 12 -35.904742 0
C  15 1.571388 14 111.692706 12 85.146333 0
H  18 1.111338 15 110.326611 14 -146.804725 0
H  18 1.114743 15 109.876941 14 -26.251911 0
O  18 1.488158 15 108.117334 14 92.940092 0
C  21 1.435343 18 109.603203 15 -164.506631 0
O  22 1.250070 21 124.123234 18 0.975720 0
C  22 1.564647 21 109.188077 18 -179.075069 0
H  24 1.103589 22 109.241411 21 -25.876663 0
C  10 1.583310 8 101.109248 2 -120.014709 0
H  26 1.107534 10 113.638779 8 155.393445 0
O  26 1.482162 10 102.979225 8 35.984454 0
C  28 1.480222 26 94.988460 10 -57.408567 0
H  29 1.107152 28 110.462940 26 179.874008 0
C  26 1.577672 10 108.884587 8 -73.587289 0
H  31 1.101754 26 110.435783 10 -167.502062 0
H  31 1.101948 26 112.264427 10 -46.097834 0
C  31 1.574209 26 101.157202 10 74.315124 0
H  34 1.101542 31 111.526290 26 117.322829 0
H  34 1.101783 31 112.760590 26 -119.986875 0
C  24 1.586065 22 112.427099 21 -151.234515 0
H  37 1.105020 24 110.322077 22 126.077021 0
C  37 1.571798 24 113.898220 22 4.145468 0
O  39 1.248312 37 127.647856 24 -112.228082 0
O  39 1.437766 37 107.950741 24 72.181744 0
C  41 1.482363 39 111.059081 37 -171.692652 0
H  42 1.107288 41 109.471158 39 -2.727566 0
H  42 1.107459 41 108.771518 39 -123.100025 0
H  42 1.111923 41 106.787026 39 117.812716 0
C  37 1.584923 24 101.143541 22 -115.419572 0
H  46 1.107255 37 114.013623 24 153.207863 0
O  46 1.482163 37 103.665709 24 33.334667 0
C  48 1.478396 46 95.037282 37 -56.371345 0
H  49 1.107567 48 110.713237 46 -179.635064 0
C  46 1.577612 37 108.265306 24 -76.043479 0
H  51 1.101571 46 112.240425 37 -46.989085 0
H  51 1.101622 46 110.488624 37 -168.563378 0
C  51 1.574674 46 100.994708 37 73.408745 0
H  54 1.101560 51 111.588366 46 118.939629 0
H  54 1.101825 51 112.762129 46 -118.379694 0
$end

 
 --------------------------------------------------------------
 
                    Orbital Energies (a.u.)
 --------------------------------------------------------------
 
 Alpha MOs
 -- Occupied --
-18.939 -18.938 -18.932 -18.927 -18.889 -18.888 -18.884 -18.883
-18.873 -18.867 -10.105 -10.103 -10.099 -10.098 -10.077 -10.067
-10.063 -10.060 -10.059 -10.058 -10.041 -10.041 -10.041 -10.038
-10.036 -10.034 -10.022 -10.021 -10.021 -10.020  -1.021  -1.015
 -1.005  -1.003  -0.972  -0.970  -0.945  -0.939  -0.932  -0.931
 -0.765  -0.764  -0.729  -0.724  -0.713  -0.706  -0.699  -0.653
 -0.651  -0.618  -0.596  -0.582  -0.548  -0.544  -0.538  -0.537
 -0.514  -0.510  -0.482  -0.476  -0.460  -0.456  -0.454  -0.453
 -0.435  -0.432  -0.428  -0.418  -0.416  -0.405  -0.400  -0.398
 -0.393  -0.377  -0.371  -0.369  -0.360  -0.356  -0.355  -0.351
 -0.342  -0.342  -0.337  -0.333  -0.330  -0.328  -0.324  -0.312
 -0.310  -0.306  -0.305  -0.300  -0.295  -0.288  -0.281  -0.274
 -0.272  -0.259  -0.254  -0.252  -0.236  -0.235  -0.234  -0.184
 -0.180  -0.169  -0.166  -0.163  -0.158  -0.150  -0.149  -0.145
 -0.144
 -- Virtual --
  0.087   0.091   0.106   0.112   0.225   0.229   0.246   0.255
  0.264   0.265   0.282   0.283   0.301   0.307   0.324   0.326
  0.336   0.339   0.345   0.346   0.358   0.360   0.367   0.377
  0.378   0.381   0.382   0.397   0.399   0.401   0.409   0.410
  0.417   0.418   0.422   0.423   0.428   0.430   0.433   0.437
  0.439   0.442   0.447   0.456   0.462   0.465   0.466   0.468
  0.477   0.481   0.485   0.487   0.500   0.506   0.507   0.540
  0.541   0.550   0.551   0.635   0.643   0.650   0.656
 --------------------------------------------------------------
 
          Ground-State Mulliken Net Atomic Charges

     Atom                 Charge (a.u.)
  ----------------------------------------
      1 O                    -0.206283
      2 C                     0.220973
      3 C                    -0.079859
      4 C                    -0.079004
      5 C                     0.214042
      6 O                    -0.175338
      7 C                    -0.057947
      8 C                    -0.052071
      9 O                    -0.173323
     10 C                     0.211721
     11 C                    -0.078181
     12 C                    -0.079915
     13 C                     0.216999
     14 O                    -0.229590
     15 O                    -0.180086
     16 O                    -0.167568
     17 O                    -0.208127
     18 C                    -0.157580
     19 C                     0.024273
     20 C                    -0.144096
     21 C                    -0.143767
     22 C                     0.025317
     23 O                    -0.186735
     24 H                     0.085920
     25 H                     0.086579
     26 H                     0.090996
     27 H                     0.078737
     28 H                     0.073051
     29 H                     0.078325
     30 H                     0.073676
     31 H                     0.082973
     32 O                    -0.199609
     33 C                    -0.143497
     34 C                     0.025356
     35 C                    -0.143913
     36 C                    -0.143861
     37 C                     0.025697
     38 O                    -0.186438
     39 H                     0.084151
     40 H                     0.085479
     41 H                     0.105887
     42 H                     0.090960
     43 H                     0.078784
     44 H                     0.073282
     45 H                     0.078644
     46 H                     0.073447
     47 H                     0.082911
     48 H                     0.101293
     49 H                     0.077890
     50 H                     0.088733
     51 H                     0.077025
     52 H                     0.107757
     53 H                     0.098139
     54 H                     0.094415
     55 H                     0.087093
     56 H                     0.116265
  ----------------------------------------
  Sum of atomic charges =    -0.000000

 -----------------------------------------------------------------
                    Cartesian Multipole Moments
 -----------------------------------------------------------------
    Charge (ESU x 10^10)
                -0.0000
    Dipole Moment (Debye)
         X       0.9186      Y       0.0849      Z      -4.5562
       Tot       4.6487
    Quadrupole Moments (Debye-Ang)
        XX    -145.3104     XY       2.3075     YY    -153.2170
        XZ       6.7553     YZ       1.8063     ZZ    -169.4703
    Octopole Moments (Debye-Ang^2)
       XXX      44.6743    XXY      23.6807    XYY      -9.3098
       YYY      18.4584    XXZ     -64.5808    XYZ      14.1364
       YYZ       1.0661    XZZ      -0.2192    YZZ       6.9476
       ZZZ       1.6452
    Hexadecapole Moments (Debye-Ang^3)
      XXXX  -12326.5394   XXXY     316.5400   XXYY   -2526.8077
      XYYY     426.9019   YYYY   -2311.2939   XXXZ     -73.0066
      XXYZ     -42.9593   XYYZ     -66.9082   YYYZ    -141.9166
      XXZZ   -2444.1951   XYZZ     139.6408   YYZZ    -598.3195
      XZZZ    -163.6858   YZZZ    -194.0520   ZZZZ   -1184.2579
 -----------------------------------------------------------------
Archival summary:
1\1\vega02.cac.cornell.edu\OPT\ProcedureUnspecified\STO-3G\102026\jj585\TueJan1618:01:512018TueJan1618:01:512018\0\\#,OPT,ProcedureUnspecified,STO-3G,\\0,1\O\C,1,1.25549\O,2,1.42056,1,125.24\C,3,1.48519,2,110.982,1,-7.39655,0\H,4,1.1046,3,105.627,2,174.57,0\H,4,1.11136,3,110.145,2,-66.7307,0\H,4,1.11845,3,112.71,2,54.0121,0\C,2,1.56656,1,126.562,3,178.881,0\H,8,1.10368,2,108.285,1,-170.582,0\C,8,1.58866,2,112.872,1,65.8392,0\H,10,1.10574,8,110.858,2,120.718,0\C,10,1.57048,8,114.133,2,-2.06504,0\O,12,1.24919,10,126.95,8,-128.715,0\O,12,1.4375,10,109.139,8,52.5818,0\C,14,1.4842,12,109.851,10,-175.31,0\H,15,1.10898,14,106.335,12,-154.778,0\H,15,1.11058,14,109.601,12,-35.9047,0\C,15,1.57139,14,111.693,12,85.1463,0\H,18,1.11134,15,110.327,14,-146.805,0\H,18,1.11474,15,109.877,14,-26.2519,0\O,18,1.48816,15,108.117,14,92.9401,0\C,21,1.43534,18,109.603,15,-164.507,0\O,22,1.25007,21,124.123,18,0.97572,0\C,22,1.56465,21,109.188,18,-179.075,0\H,24,1.10359,22,109.241,21,-25.8767,0\C,10,1.58331,8,101.109,2,-120.015,0\H,26,1.10753,10,113.639,8,155.393,0\O,26,1.48216,10,102.979,8,35.9845,0\C,28,1.48022,26,94.9885,10,-57.4086,0\H,29,1.10715,28,110.463,26,179.874,0\C,26,1.57767,10,108.885,8,-73.5873,0\H,31,1.10175,26,110.436,10,-167.502,0\H,31,1.10195,26,112.264,10,-46.0978,0\C,31,1.57421,26,101.157,10,74.3151,0\H,34,1.10154,31,111.526,26,117.323,0\H,34,1.10178,31,112.761,26,-119.987,0\C,24,1.58607,22,112.427,21,-151.235,0\H,37,1.10502,24,110.322,22,126.077,0\C,37,1.5718,24,113.898,22,4.14547,0\O,39,1.24831,37,127.648,24,-112.228,0\O,39,1.43777,37,107.951,24,72.1817,0\C,41,1.48236,39,111.059,37,-171.693,0\H,42,1.10729,41,109.471,39,-2.72757,0\H,42,1.10746,41,108.772,39,-123.1,0\H,42,1.11192,41,106.787,39,117.813,0\C,37,1.58492,24,101.144,22,-115.42,0\H,46,1.10725,37,114.014,24,153.208,0\O,46,1.48216,37,103.666,24,33.3347,0\C,48,1.4784,46,95.0373,37,-56.3713,0\H,49,1.10757,48,110.713,46,-179.635,0\C,46,1.57761,37,108.265,24,-76.0435,0\H,51,1.10157,46,112.24,37,-46.9891,0\H,51,1.10162,46,110.489,37,-168.563,0\C,51,1.57467,46,100.995,37,73.4087,0\H,54,1.10156,51,111.588,46,118.94,0\H,54,1.10183,51,112.762,46,-118.38,0\\\@

 Total job time:  169.67s(wall), 8099.32s(cpu) 
 Tue Jan 16 18:01:51 2018

        *************************************************************
        *                                                           *
        *  Thank you very much for using Q-Chem.  Have a nice day.  *
        *                                                           *
        *************************************************************


0 sent ACK to 0 
now end server 0 ... 
