mFile = /opt/software/qchem/qchem-5.0.1//bin/mpi/machines
Process 0 of 1 is on vega02.cac.cornell.edu - thread support 0
initial socket setup ...start
initial socket setup ...done 
now start server 0 ... 
vega02.cac.cornell.edu 10.84.3
Q-Chem Developer Version! Running on 10.84.3.*
                  Welcome to Q-Chem
     A Quantum Leap Into The Future Of Chemistry


 Q-Chem 5.0, Q-Chem, Inc., Pleasanton, CA (2017)

 Yihan Shao,  Zhengting Gan,  E. Epifanovsky,  A. T. B. Gilbert,  M. Wormit,  
 J. Kussmann,  A. W. Lange,  A. Behn,  Jia Deng,  Xintian Feng,  D. Ghosh,  
 M. Goldey,  P. R. Horn,  L. D. Jacobson,  I. Kaliman,  T. Kus,  A. Landau,  
 Jie Liu,  E. I. Proynov,  R. M. Richard,  R. P. Steele,  E. J. Sundstrom,  
 H. L. Woodcock III,  P. M. Zimmerman,  D. Zuev,  B. Albrecht,  E. Alguire,  
 S. A. Baeppler,  Z. Benda,  Y. A. Bernard,  E. J. Berquist,  K. B. Bravaya,  
 D. Casanova,  Chun-Min Chang,  Yunqing Chen,  A. Chien,  K. D. Closser,  
 M. P. Coons,  S. Dasgupta,  M. Diedenhofen,  Hainam Do,  R. G. Edgar,  
 Po-Tung Fang,  S. Fatehi,  Qingguo Feng,  Qinghui Ge,  A. Ghysels,  
 J. Gomes,  J. Gonthier,  A. Gunina,  M. W. D. Hanson-Heine,  
 P. H. P. Harbach,  A. W. Hauser,  J. E. Herr,  E. G. Hohenstein,  
 Z. C. Holden,  Kerwin Hui,  T.-C. Jagau,  Hyunjun Ji,  B. Kaduk,  
 K. Khistyaev,  Jaehoon Kim,  P. Klunzinger,  K. Koh,  D. Kosenkov,  
 T. Kowalczyk,  C. M. Krauter,  A. Kunitsa,  Ka Un Lao,  A. Laurent,  
 K. V. Lawler,  Joonho Lee,  D. Lefrancois,  S. Lehtola,  D. S. Levine,  
 Yi-Pei Li,  You-Sheng Lin,  Fenglai Liu,  E. Livshits,  A. Luenser,  
 P. Manohar,  E. Mansoor,  S. F. Manzer,  Shan-Ping Mao,  Yuezhi Mao,  
 N. Mardirossian,  A. V. Marenich,  L. A. Martinez-Martinez,  S. A. Maurer,  
 N. J. Mayhall,  S. C. McKenzie,  J.-M. Mewes,  A. F. Morrison,  K. Nanda,  
 T. S. Nguyen-Beck,  R. Olivares-Amaya,  J. A. Parkhill,  T. M. Perrine,  
 F. Plasser,  S. Prager,  A. Prociuk,  D. R. Rehn,  F. Rob,  M. Schneider,  
 N. Sergueev,  S. M. Sharada,  S. Sharma,  D. W. Small,  T. Stauch,  
 T. Stein,  Yu-Chuan Su,  A. J. W. Thom,  T. Tsuchimochi,  L. Vogt,  
 O. Vydrov,  M. A. Watson,  J. Wenzel,  M. de Wergifosse,  T. A. Wesolowski,  
 A. White,  J. Witte,  A. Yamada,  Jun Yang,  K. Yao,  S. Yeganeh,  
 S. R. Yost,  Zhi-Qiang You,  A. Zech,  Igor Ying Zhang,  Xing Zhang,  
 Yan Zhao,  Ying Zhu,  B. R. Brooks,  G. K. L. Chan,  C. J. Cramer,  
 M. S. Gordon,  W. J. Hehre,  A. Klamt,  M. W. Schmidt,  C. D. Sherrill,  
 D. G. Truhlar,  A. Aspuru-Guzik,  R. Baer,  A. T. Bell,  N. A. Besley,  
 Jeng-Da Chai,  A. Dreuw,  B. D. Dunietz,  T. R. Furlani,  Chao-Ping Hsu,  
 Yousung Jung,  Jing Kong,  D. S. Lambrecht,  WanZhen Liang,  C. Ochsenfeld,  
 V. A. Rassolov,  L. V. Slipchenko,  J. E. Subotnik,  T. Van Voorhis,  
 J. M. Herbert,  A. I. Krylov,  P. M. W. Gill,  M. Head-Gordon

 Contributors to earlier versions of Q-Chem not listed above: 
 R. D. Adamson,  B. Austin,  J. Baker,  G. J. O. Beran,  K. Brandhorst,  
 S. T. Brown,  E. F. C. Byrd,  A. K. Chakraborty,  C.-L. Cheng,  
 Siu Hung Chien,  D. M. Chipman,  D. L. Crittenden,  H. Dachsel,  
 R. A. DiStasio Jr.,  R. J. Doerksen,  A. D. Dutoi,  L. Fusti-Molnar,  
 W. A. Goddard III,  A. Golubeva-Zadorozhnaya,  S. R. Gwaltney,  G. Hawkins,  
 A. Heyden,  S. Hirata,  G. Kedziora,  F. J. Keil,  C. Kelley,  Jihan Kim,  
 R. A. King,  R. Z. Khaliullin,  P. P. Korambath,  W. Kurlancheek,  
 A. M. Lee,  M. S. Lee,  S. V. Levchenko,  Ching Yeh Lin,  D. Liotard,  
 R. C. Lochan,  I. Lotan,  P. E. Maslen,  N. Nair,  D. P. O'Neill,  
 D. Neuhauser,  E. Neuscamman,  C. M. Oana,  R. Olson,  B. Peters,  
 R. Peverati,  P. A. Pieniazek,  Y. M. Rhee,  J. Ritchie,  M. A. Rohrdanz,  
 E. Rosta,  N. J. Russ,  H. F. Schaefer III,  N. E. Schultz,  N. Shenvi,  
 A. C. Simmonett,  A. Sodt,  D. Stuck,  K. S. Thanthiriwatte,  V. Vanovschi,  
 Tao Wang,  A. Warshel,  C. F. Williams,  Q. Wu,  X. Xu,  W. Zhang

 Please cite Q-Chem as follows:
 Y. Shao et al., Mol. Phys. 113, 184-215 (2015)
 DOI: 10.1080/00268976.2014.952696

 Q-Chem 5.0.1 for Intel X86 EM64T Linux

 Parts of Q-Chem use Armadillo 5.200.1 (Boston Tea Smuggler).
 http://arma.sourceforge.net/

 Q-Chem begins on Tue Jan 16 18:21:17 2018  

Host: vega02.cac.cornell.edu
0

     Scratch files written to /scratch/jj585/SOT1001/1229c.save//
 Parallel job on  1  processors

Checking the input file for inconsistencies... 	...done.

--------------------------------------------------------------
User input:
--------------------------------------------------------------
$molecule
0  1
O -3.94934 -3.66094 2.70899
C -3.26408 -4.56952 2.26188
C -3.36658 -6.02376 2.66595
C -2.05117 -6.7719 2.93767
C -0.79006 -5.93669 2.94827
O -0.34096 -5.75824 1.67081
C 0.57275 -4.66369 1.54287
C 1.9711 -5.18109 1.22184
O 2.78373 -4.11172 0.71296
C 3.44157 -3.38316 1.64869
C 4.25685 -2.25983 1.05362
C 3.44995 -1.01614 0.65308
C 2.0465 -0.92877 1.21824
O 1.49031 -1.79908 1.87227
O -2.54239 -4.31706 1.13897
O 1.36212 0.2117 0.93696
O 3.49095 -3.68634 2.83573
C 0.07142 0.46655 1.34992
C 5.2525 -1.61384 2.04875
C 6.38669 -0.94086 1.27668
C 5.65355 0.23637 0.66882
C 4.28398 0.07925 1.33945
O 4.57023 -0.50794 2.58435
H 4.85834 -2.6944 0.22308
H 3.36924 -0.89952 -0.44977
H 5.67575 -2.33147 2.78501
H 7.10586 -0.55706 2.03591
H 6.93235 -1.58454 0.5537
H 6.15839 1.17175 0.99756
H 5.56156 0.2187 -0.43892
H 3.75839 1.05885 1.37538
O -0.16866 -5.61525 3.9557
C -2.44621 -3.07694 0.54055
C -4.10254 -6.21475 4.00455
C -4.65112 -7.63813 4.10433
C -3.37537 -8.41296 4.34651
C -2.3557 -7.271 4.37091
O -3.06658 -6.20542 4.95256
H -3.92898 -6.51678 1.84174
H -1.87598 -7.64987 2.27559
H -1.99158 -2.34963 1.24596
H -4.92459 -5.48427 4.16712
H -5.28303 -7.70312 5.01882
H -5.24321 -7.95972 3.22052
H -3.43282 -8.87487 5.35771
H -3.1385 -9.19232 3.59047
H -1.44253 -7.60211 4.91327
H -3.45177 -2.72165 0.22941
H -1.80473 -3.15356 -0.3609
H -0.23557 1.46855 0.98645
H 0.01489 0.45503 2.45944
H -0.62076 -0.2928 0.9293
H 2.43511 -5.74538 2.06165
H 1.85711 -5.90335 0.38544
H 0.62151 -3.99765 2.4316
H 0.22232 -4.04468 0.69199
$end

$opt
CONSTRAINT
tors           1           2           3           4    -134.895
tors           3           4           5           6     -83.245
tors           4           5           6           7    +161.508
tors           5           6           7           8    +111.653
tors           6           7           8           9    +163.145
tors           7           8           9          10     +88.025
tors           8           9          10          11    -178.926
tors           9          10          11          12     +78.677
tors          11          12          13          14      -5.530
ENDCONSTRAINT
$end

$rem
JOBTYPE                   OPT
METHOD                    B3LYP
DFT_D                     d3_op
BASIS                     STO-3G
GEOM_OPT_MAX_CYCLES       100
GEOM_OPT_TOL_GRADIENT     300
GEOM_OPT_TOL_DISPLACEMENT 1200
GEOM_OPT_TOL_ENERGY       100
SYMMETRY                  False
THRESH                    12
SCF_CONVERGENCE           8
MAX_SUB_FILE_NUM          128
MEM_STATIC                400
MEM_TOTAL                 4000
$end
--------------------------------------------------------------
 Adding empirical dispersion correction 
 ----------------------------------------------------------------
 Doing -D3(op) with
 s6 =   1.00000
 s8 =   0.78311
 a1 =   0.30000
 a2 =   4.25000
 n  =  10.00000
 -D3 energy without 3body term =     -0.0684282901 hartrees
 ----------------------------------------------------------------
             Standard Nuclear Orientation (Angstroms)
    I     Atom           X                Y                Z
 ----------------------------------------------------------------
    1      O       3.5891266118    -2.5892448933     0.4899554091
    2      C       3.4759186701    -1.6225631172    -0.2501233312
    3      C       4.4880682188    -0.5075795417    -0.3948911101
    4      C       3.9503213360     0.9327682456    -0.4035645030
    5      C       2.4810463943     1.1060167467    -0.0884412909
    6      O       1.7372253416     0.8979947622    -1.2148942901
    7      C       0.3591944296     0.6269737021    -0.9376710933
    8      C      -0.5108230026     1.7845124125    -1.4165442966
    9      O      -1.8810682490     1.3631024476    -1.5044088195
   10      C      -2.6066949601     1.4979209172    -0.3666770284
   11      C      -4.0296712562     1.0145889646    -0.5156359377
   12      C      -4.2061968664    -0.5093664659    -0.4472014985
   13      C      -3.0284983545    -1.2868285984     0.1053291275
   14      O      -1.9416190109    -0.8117757275     0.4012347125
   15      O       2.5104659075    -1.6726353634    -1.2045305342
   16      O      -3.2145091392    -2.6258695894     0.2486311027
   17      O      -2.2021022883     2.0814999304     0.6329032653
   18      C      -2.2563996370    -3.4985393024     0.7196562908
   19      C      -4.9590636001     1.4360991693     0.6494669495
   20      C      -6.4118061846     1.4314709322     0.1752321090
   21      C      -6.6545825812    -0.0557541191     0.0266394435
   22      C      -5.3383232909    -0.6035893490     0.5901031228
   23      O      -4.9422615324     0.3512812940     1.5429222595
   24      H      -4.4377494430     1.4750025348    -1.4440375396
   25      H      -4.4593803703    -0.9521758202    -1.4352351214
   26      H      -4.7099164803     2.4298975730     1.0813264318
   27      H      -7.0261253532     1.8078981537     1.0248512164
   28      H      -6.6309514766     2.0404921907    -0.7280050172
   29      H      -7.5168510589    -0.3365819664     0.6712307482
   30      H      -6.8224086227    -0.4084851062    -1.0141667667
   31      H      -5.4842355432    -1.6378035723     0.9725459654
   32      O       2.0354934206     1.5366340082     0.9700615009
   33      C       1.5831357650    -2.6887253464    -1.3179970771
   34      C       5.4778952539    -0.4513335382     0.7828368251
   35      C       6.7532940216     0.2794573037     0.3630637695
   36      C       6.2554024952     1.7065308234     0.3170644114
   37      C       4.8012829504     1.5089461688     0.7539758031
   38      O       4.8742244718     0.4487605076     1.6758292250
   39      H       5.0279025003    -0.7247683825    -1.3436231906
   40      H       4.1708591624     1.5006171832    -1.3356500326
   41      H       0.9655686820    -2.7432498733    -0.3966342196
   42      H       5.7370472054    -1.4516103651     1.1928158164
   43      H       7.4929197759     0.1897530396     1.1905495983
   44      H       7.2038680999    -0.0984236909    -0.5799631475
   45      H       6.7957989078     2.2911889011     1.0950961845
   46      H       6.3493576863     2.2141919134    -0.6670893001
   47      H       4.3990542422     2.4693945254     1.1456627589
   48      H       2.0960589906    -3.6598130745    -1.4855929789
   49      H       0.9207974507    -2.4856440260    -2.1840486067
   50      H      -2.6768822767    -4.5247967620     0.7382916675
   51      H      -1.9548339631    -3.2160739666     1.7509828444
   52      H      -1.3697141604    -3.4885927172     0.0515719471
   53      H      -0.3588797220     2.7200462708    -0.8328500618
   54      H      -0.1928812684     2.0102153961    -2.4568276256
   55      H       0.1367169515     0.4165845265     0.1310047223
   56      H       0.0840570067    -0.2812779421    -1.5115610555
 ----------------------------------------------------------------
 Molecular Point Group                 C1    NOp =  1
 Largest Abelian Subgroup              C1    NOp =  1
 Nuclear Repulsion Energy =  3183.6427877493 hartrees
 There are      113 alpha and      113 beta electrons
 Requested basis set is STO-3G
 There are 86 shells and 176 basis functions

 Total QAlloc Memory Limit   4000 MB
 Mega-Array Size       392 MB
 MEM_STATIC part       400 MB
 A cutoff of  1.0D-12 yielded   2158 shell pairs
 There are     10180 function pairs
 
 -------------------------------------------------------
 OpenMP Integral Computing Module                       
 Release: version 1.0, May 2013, Q-Chem Inc. Pittsburgh 
 -------------------------------------------------------
 Integral Job Info:
 Integral job number is                      11
 Integral operator is                         1
 short-range coefficients                     0
 long-range coefficients              100000000
 Omega coefficients                           0
 if combine SR and LR in K                    0
 Integral screening is                        0
 Integral computing path is                   2
 max size of driver memory is            800000
 size of driver memory is                 45569
 size of scratch memory is              1046100
 max col of scratch BK array                289
 max len of scratch array in speh3           22
 max len of scratch index in speh4            8
 max int batch size is                      520
 min int batch size is                       52
 fixed nKL is                                52
 max L of basis functions is                  1
 order of int derivative is                   0
 number of shells is                         86
 number of basis is                         176
 number of cartesian basis is               176
 number of contracted shell pairs          2158
 number of primitive shell pairs          11150
 maxK2 (contraction) of shell pair            9
 max number of K2 of shell pair               1
 max number of CS2 of shell pair            304
 max number of PS2 of shell pair           1266
 mem total for path MDJ                   50314
 -------------------------------------------------------
 Smallest overlap matrix eigenvalue = 1.94E-01

 Scale SEOQF with 1.000000e-02/1.000000e-01/1.000000e-01

 Standard Electronic Orientation quadrupole field applied
 Nucleus-field energy     =     0.0000000358 hartrees
 Guess from superposition of atomic densities
 Warning:  Energy on first SCF cycle will be non-variational
 A restricted hybrid HF-DFT SCF calculation will be
 performed using Pulay DIIS extrapolation
 Exchange:     0.2000 Hartree-Fock + 0.0800 Slater + 0.7200 B88
 Correlation:  0.1900 VWN1RPA + 0.8100 LYP
 Using SG-1 standard quadrature grid
 Dispersion:   Grimme D3
 SCF converges when DIIS error is below 1.0E-08
 using 48 threads for integral computing
 -------------------------------------------------------
 OpenMP Integral computing Module                
 Release: version 1.0, May 2013, Q-Chem Inc. Pittsburgh 
 -------------------------------------------------------
 -------------------------------------------------------
 OpenMP BLAS3 based DFT computing Module                
 Release: version 1.0, May 2013, Q-Chem Inc. Pittsburgh 
 -------------------------------------------------------
 ---------------------------------------
  Cycle       Energy         DIIS Error
 ---------------------------------------
    1   -1509.4688579818      8.30E-02
    2   -1509.6006830012      1.05E-02
    3   -1507.4361604662      2.63E-02
    4   -1510.0914967168      3.79E-03
    5   -1510.1466719148      1.36E-03
    6   -1510.1536666933      5.24E-04
    7   -1510.1548128861      1.36E-04
    8   -1510.1548889308      2.95E-05
    9   -1510.1548918311      1.48E-05
   10   -1510.1548927757      3.47E-06
   11   -1510.1548928292      7.52E-07
   12   -1510.1548928317      1.94E-07
   13   -1510.1548928318      1.05E-07
   14   -1510.1548928318      3.92E-08
   15   -1510.1548928318      7.15E-09 Convergence criterion met
 ---------------------------------------
 SCF time:  CPU 111.14 s  wall 2.38 s
 SCF   energy in the final basis set = -1510.15489283
 Total energy in the final basis set = -1510.15489283
 
 --------------------------------------------------------------
 
                    Orbital Energies (a.u.)
 --------------------------------------------------------------
 
 Alpha MOs
 -- Occupied --
-18.941 -18.938 -18.935 -18.930 -18.899 -18.894 -18.869 -18.866
-18.856 -18.846 -10.121 -10.110 -10.105 -10.102 -10.089 -10.083
-10.074 -10.070 -10.069 -10.064 -10.064 -10.059 -10.046 -10.041
-10.036 -10.032 -10.017 -10.015 -10.013 -10.011  -1.054  -1.046
 -1.038  -1.033  -1.025  -1.019  -0.957  -0.949  -0.945  -0.937
 -0.784  -0.780  -0.745  -0.742  -0.731  -0.721  -0.710  -0.687
 -0.683  -0.632  -0.607  -0.591  -0.554  -0.551  -0.537  -0.534
 -0.526  -0.518  -0.497  -0.493  -0.486  -0.481  -0.468  -0.465
 -0.449  -0.442  -0.435  -0.433  -0.431  -0.425  -0.421  -0.406
 -0.405  -0.397  -0.390  -0.376  -0.374  -0.368  -0.362  -0.359
 -0.356  -0.350  -0.345  -0.342  -0.337  -0.328  -0.322  -0.318
 -0.312  -0.308  -0.306  -0.301  -0.297  -0.288  -0.284  -0.276
 -0.272  -0.246  -0.239  -0.236  -0.231  -0.230  -0.224  -0.183
 -0.182  -0.171  -0.161  -0.155  -0.152  -0.151  -0.148  -0.139
 -0.135
 -- Virtual --
  0.108   0.110   0.117   0.129   0.231   0.244   0.263   0.269
  0.290   0.322   0.327   0.338   0.342   0.342   0.354   0.359
  0.362   0.372   0.384   0.385   0.390   0.392   0.394   0.397
  0.401   0.403   0.407   0.408   0.412   0.417   0.421   0.423
  0.426   0.426   0.442   0.448   0.448   0.450   0.457   0.462
  0.463   0.468   0.474   0.476   0.479   0.486   0.490   0.492
  0.501   0.502   0.507   0.509   0.525   0.548   0.549   0.562
  0.566   0.577   0.586   0.679   0.684   0.698   0.700
 --------------------------------------------------------------
 
          Ground-State Mulliken Net Atomic Charges

     Atom                 Charge (a.u.)
  ----------------------------------------
      1 O                    -0.234803
      2 C                     0.235150
      3 C                    -0.080264
      4 C                    -0.082910
      5 C                     0.232855
      6 O                    -0.186627
      7 C                    -0.041351
      8 C                    -0.036282
      9 O                    -0.196104
     10 C                     0.237345
     11 C                    -0.084117
     12 C                    -0.079709
     13 C                     0.244331
     14 O                    -0.232853
     15 O                    -0.211636
     16 O                    -0.212459
     17 O                    -0.233501
     18 C                    -0.097539
     19 C                     0.041491
     20 C                    -0.142592
     21 C                    -0.143939
     22 C                     0.039308
     23 O                    -0.210735
     24 H                     0.085249
     25 H                     0.088905
     26 H                     0.091737
     27 H                     0.075689
     28 H                     0.071479
     29 H                     0.075709
     30 H                     0.071096
     31 H                     0.086882
     32 O                    -0.218006
     33 C                    -0.098273
     34 C                     0.039817
     35 C                    -0.142814
     36 C                    -0.144495
     37 C                     0.041157
     38 O                    -0.208851
     39 H                     0.088602
     40 H                     0.085051
     41 H                     0.086313
     42 H                     0.092559
     43 H                     0.075579
     44 H                     0.070712
     45 H                     0.075172
     46 H                     0.070134
     47 H                     0.087063
     48 H                     0.086180
     49 H                     0.091838
     50 H                     0.096663
     51 H                     0.092077
     52 H                     0.083759
     53 H                     0.096566
     54 H                     0.086796
     55 H                     0.110295
     56 H                     0.086302
  ----------------------------------------
  Sum of atomic charges =    -0.000000

 -----------------------------------------------------------------
                    Cartesian Multipole Moments
 -----------------------------------------------------------------
    Charge (ESU x 10^10)
                 0.0000
    Dipole Moment (Debye)
         X      -1.2239      Y      -1.4264      Z      -4.5090
       Tot       4.8850
    Quadrupole Moments (Debye-Ang)
        XX    -139.3990     XY       6.6431     YY    -153.5253
        XZ      -2.5944     YZ      -2.6034     ZZ    -166.6300
    Octopole Moments (Debye-Ang^2)
       XXX      -0.1045    XXY      26.3961    XYY     -18.2068
       YYY     -19.8179    XXZ     -47.5611    XYZ      14.1111
       YYZ      -8.6922    XZZ      -4.8996    YZZ     -11.4659
       ZZZ      -3.0530
    Hexadecapole Moments (Debye-Ang^3)
      XXXX  -15496.1795   XXXY     -14.8980   XXYY   -3143.5176
      XYYY      63.8041   YYYY   -2493.2864   XXXZ     -31.5077
      XXYZ       1.6402   XYYZ     -47.1093   YYYZ       1.8545
      XXZZ   -2951.4144   XYZZ       0.8650   YYZZ    -557.1083
      XZZZ     -10.7389   YZZZ      -3.1924   ZZZZ    -871.5087
 -----------------------------------------------------------------
 Calculating analytic gradient of the SCF energy
 Gradient of SCF Energy
            1           2           3           4           5           6
    1  -0.0145808   0.0010892  -0.0085234  -0.0206532  -0.0165227  -0.0045489
    2   0.0465094   0.0296008   0.0014510  -0.0257761  -0.0107155   0.0142459
    3  -0.0576926  -0.0075303   0.0509723   0.0273477  -0.0099393   0.0475548
            7           8           9          10          11          12
    1   0.0207467  -0.0119491   0.0043127   0.0085632   0.0148796   0.0208750
    2   0.0231879  -0.0293972   0.0203754  -0.0094889  -0.0091130   0.0282475
    3  -0.0181220   0.0177964   0.0666423  -0.0366936   0.0368326   0.0433090
           13          14          15          16          17          18
    1  -0.0297198  -0.0602985  -0.0063119   0.1163620  -0.0224185  -0.0528539
    2  -0.0051868  -0.0395702  -0.1027836   0.0204774  -0.0264233   0.0154055
    3  -0.0024172  -0.0149567   0.0703511   0.0370215  -0.0455996  -0.0220781
           19          20          21          22          23          24
    1  -0.0108305   0.0337254   0.0392650   0.0272131  -0.0211892  -0.0034687
    2  -0.0726110  -0.0389992   0.0227103   0.0685049   0.0063444   0.0125232
    3   0.0093435   0.0069350   0.0187034   0.0090701  -0.0834269   0.0002350
           25          26          27          28          29          30
    1   0.0033555  -0.0087445  -0.0028722  -0.0037734  -0.0069416   0.0024551
    2  -0.0024141   0.0096412  -0.0022263   0.0039921   0.0064439  -0.0043170
    3  -0.0049169  -0.0075689   0.0108380  -0.0062719   0.0093471  -0.0077659
           31          32          33          34          35          36
    1  -0.0085077   0.0224297   0.0244668  -0.0270808  -0.0483110  -0.0245543
    2  -0.0054201  -0.0086843   0.0492189   0.0651775   0.0185838  -0.0418955
    3  -0.0076839  -0.0460514  -0.0159873   0.0089372   0.0089499   0.0117643
           37          38          39          40          41          42
    1   0.0181112   0.0257682   0.0019342   0.0016254   0.0050782   0.0128112
    2  -0.0714546   0.0053210  -0.0027437   0.0106123   0.0082654  -0.0030170
    3   0.0085258  -0.0825185  -0.0029831  -0.0010707  -0.0003407  -0.0068925
           43          44          45          46          47          48
    1   0.0023395   0.0030707   0.0063368  -0.0009850   0.0063347   0.0052385
    2   0.0048577  -0.0026252  -0.0023377   0.0035967   0.0107358   0.0069677
    3   0.0108047  -0.0070561   0.0106599  -0.0074228  -0.0083200  -0.0021858
           49          50          51          52          53          54
    1  -0.0022025   0.0027980  -0.0079219  -0.0076152   0.0031426   0.0033901
    2  -0.0032978  -0.0019719   0.0040378   0.0035832   0.0047956  -0.0016786
    3  -0.0000392   0.0012694  -0.0019249  -0.0039374  -0.0065753   0.0017305
           55          56
    1  -0.0058106   0.0014713
    2  -0.0013900   0.0001242
    3  -0.0007757   0.0018036
 Max gradient component =       1.164E-01
 RMS gradient           =       2.753E-02
 Gradient time:  CPU 33.91 s  wall 0.75 s
 Geometry Optimization Parameters
   NAtoms,    NIC,     NZ,  NCons,   NDum,   NFix, NCnnct, MaxDiis
       56     458       0       9       0       0       0       0


** CONSTRAINED OPTIMIZATION IN DELOCALIZED INTERNAL COORDINATES **
   Searching for a Minimum

   Optimization Cycle:   1

                       Coordinates (Angstroms)
     ATOM                X               Y               Z
      1  O         3.5891266118   -2.5892448933    0.4899554091
      2  C         3.4759186701   -1.6225631172   -0.2501233312
      3  C         4.4880682188   -0.5075795417   -0.3948911101
      4  C         3.9503213360    0.9327682456   -0.4035645030
      5  C         2.4810463943    1.1060167467   -0.0884412909
      6  O         1.7372253416    0.8979947622   -1.2148942901
      7  C         0.3591944296    0.6269737021   -0.9376710933
      8  C        -0.5108230026    1.7845124125   -1.4165442966
      9  O        -1.8810682490    1.3631024476   -1.5044088195
     10  C        -2.6066949601    1.4979209172   -0.3666770284
     11  C        -4.0296712562    1.0145889646   -0.5156359377
     12  C        -4.2061968664   -0.5093664659   -0.4472014985
     13  C        -3.0284983545   -1.2868285984    0.1053291275
     14  O        -1.9416190109   -0.8117757275    0.4012347125
     15  O         2.5104659075   -1.6726353634   -1.2045305342
     16  O        -3.2145091392   -2.6258695894    0.2486311027
     17  O        -2.2021022883    2.0814999304    0.6329032653
     18  C        -2.2563996370   -3.4985393024    0.7196562908
     19  C        -4.9590636001    1.4360991693    0.6494669495
     20  C        -6.4118061846    1.4314709322    0.1752321090
     21  C        -6.6545825812   -0.0557541191    0.0266394435
     22  C        -5.3383232909   -0.6035893490    0.5901031228
     23  O        -4.9422615324    0.3512812940    1.5429222595
     24  H        -4.4377494430    1.4750025348   -1.4440375396
     25  H        -4.4593803703   -0.9521758202   -1.4352351214
     26  H        -4.7099164803    2.4298975730    1.0813264318
     27  H        -7.0261253532    1.8078981537    1.0248512164
     28  H        -6.6309514766    2.0404921907   -0.7280050172
     29  H        -7.5168510589   -0.3365819664    0.6712307482
     30  H        -6.8224086227   -0.4084851062   -1.0141667667
     31  H        -5.4842355432   -1.6378035723    0.9725459654
     32  O         2.0354934206    1.5366340082    0.9700615009
     33  C         1.5831357650   -2.6887253464   -1.3179970771
     34  C         5.4778952539   -0.4513335382    0.7828368251
     35  C         6.7532940216    0.2794573037    0.3630637695
     36  C         6.2554024952    1.7065308234    0.3170644114
     37  C         4.8012829504    1.5089461688    0.7539758031
     38  O         4.8742244718    0.4487605076    1.6758292250
     39  H         5.0279025003   -0.7247683825   -1.3436231906
     40  H         4.1708591624    1.5006171832   -1.3356500326
     41  H         0.9655686820   -2.7432498733   -0.3966342196
     42  H         5.7370472054   -1.4516103651    1.1928158164
     43  H         7.4929197759    0.1897530396    1.1905495983
     44  H         7.2038680999   -0.0984236909   -0.5799631475
     45  H         6.7957989078    2.2911889011    1.0950961845
     46  H         6.3493576863    2.2141919134   -0.6670893001
     47  H         4.3990542422    2.4693945254    1.1456627589
     48  H         2.0960589906   -3.6598130745   -1.4855929789
     49  H         0.9207974507   -2.4856440260   -2.1840486067
     50  H        -2.6768822767   -4.5247967620    0.7382916675
     51  H        -1.9548339631   -3.2160739666    1.7509828444
     52  H        -1.3697141604   -3.4885927172    0.0515719471
     53  H        -0.3588797220    2.7200462708   -0.8328500618
     54  H        -0.1928812684    2.0102153961   -2.4568276256
     55  H         0.1367169515    0.4165845265    0.1310047223
     56  H         0.0840570067   -0.2812779421   -1.5115610555
   Point Group: c1    Number of degrees of freedom:   162


   Energy is  -1510.154892832

              Constraints and their Current Values
                                        Value     Constraint
   Dihedral:        1   2   3   4     -134.895     -134.895
   Dihedral:        3   4   5   6      -83.245      -83.245
   Dihedral:        4   5   6   7      161.508      161.508
   Dihedral:        5   6   7   8      111.653      111.653
   Dihedral:        6   7   8   9      163.145      163.145
   Dihedral:        7   8   9  10       88.025       88.025
   Dihedral:        8   9  10  11     -178.926     -178.926
   Dihedral:        9  10  11  12       78.676       78.677
   Dihedral:       11  12  13  14       -5.530       -5.530

 Attempting to Generate Delocalized Internal Coordinates

   Using Lagrange Multiplier Algorithm


171 Hessian modes will be used to form the next step
  Hessian Eigenvalues:
    -0.977753   -0.977753   -0.977753   -0.977753   -0.977753   -0.977753
    -0.977753   -0.977753   -0.977753    0.045000    0.045000    0.045000
     0.045000    0.045008    0.045248    0.045349    0.045549    0.045609
     0.045767    0.048879    0.048891    0.054198    0.059964    0.060068
     0.062646    0.062776    0.066933    0.067110    0.067115    0.067424
     0.069187    0.070873    0.071979    0.073660    0.073812    0.075645
     0.076157    0.076728    0.077057    0.082417    0.082641    0.083702
     0.084200    0.084407    0.084473    0.085855    0.085938    0.086383
     0.086618    0.086837    0.087277    0.088518    0.088799    0.089067
     0.089337    0.089619    0.089921    0.093923    0.093983    0.096619
     0.096675    0.111537    0.111574    0.114648    0.114699    0.115790
     0.115918    0.116545    0.117516    0.117859    0.118165    0.118977
     0.122697    0.124404    0.130671    0.130698    0.131053    0.138972
     0.140943    0.160000    0.160000    0.160000    0.160000    0.160000
     0.160000    0.171217    0.171882    0.172181    0.172862    0.220062
     0.220298    0.238439    0.239775    0.246719    0.247092    0.247888
     0.249966    0.250000    0.250000    0.250000    0.250000    0.250000
     0.250000    0.250000    0.250000    0.258406    0.258642    0.266960
     0.267503    0.279248    0.280491    0.282528    0.282583    0.295261
     0.296249    0.298739    0.308051    0.310698    0.310864    0.313318
     0.321829    0.322062    0.322327    0.322349    0.322648    0.322732
     0.322884    0.323267    0.323362    0.323605    0.323963    0.324049
     0.324214    0.324230    0.324245    0.324569    0.324572    0.324731
     0.324924    0.324993    0.325006    0.325442    0.325740    0.326833
     0.327014    0.327018    0.369862    0.369971    0.385397    0.385748
     0.401011    0.407705    0.490457    0.493022    0.517901    0.530542
     0.532536    0.537333    0.925474    0.927136    0.941950    0.942777
     1.022753    1.022753    1.022753    1.022753    1.022753    1.022753
     1.022753    1.022753    1.022753

 Minimum Search - Taking P-RFO Step
 Searching for Lamda that Maximizes Along the Constraint modes Only
 Value Taken    Lamda =   0.00045854
 Searching for Lamda that Minimizes Along All other modes
 Value Taken    Lamda =  -0.16461799
 Calculated Step too Large.  Step scaled by  0.528641
 Step Taken.  Stepsize is  0.300000

                             Maximum     Tolerance    Cnvgd?
         Gradient            0.112266       0.000300      NO
         Displacement        0.101381       0.001200      NO
         Energy change     *********       0.000001      NO


 New Cartesian Coordinates Obtained by Inverse Iteration

 Displacement from previous Coordinates is:  0.820996
 Adding empirical dispersion correction 
 ----------------------------------------------------------------
 Doing -D3(op) with
 s6 =   1.00000
 s8 =   0.78311
 a1 =   0.30000
 a2 =   4.25000
 n  =  10.00000
 -D3 energy without 3body term =     -0.0680289333 hartrees
 ----------------------------------------------------------------
             Standard Nuclear Orientation (Angstroms)
    I     Atom           X                Y                Z
 ----------------------------------------------------------------
    1      O       3.6325643592    -2.6282697773     0.5128182579
    2      C       3.5095303182    -1.6485722537    -0.2392174850
    3      C       4.5368973757    -0.5210459925    -0.3974458177
    4      C       3.9994928234     0.9424397904    -0.4033894880
    5      C       2.5090575175     1.1194614626    -0.0755746818
    6      O       1.7501346893     0.9096609445    -1.2212692934
    7      C       0.3543130735     0.6342918309    -0.9452212917
    8      C      -0.5366315583     1.8023726103    -1.4257661221
    9      O      -1.9191850015     1.3765408434    -1.5186128880
   10      C      -2.6377775788     1.5188140474    -0.3462044020
   11      C      -4.0815962550     1.0246346653    -0.5120734411
   12      C      -4.2574403434    -0.5173358739    -0.4540796517
   13      C      -3.0474115828    -1.2821227846     0.0976452002
   14      O      -1.9499856820    -0.7840378372     0.3930989122
   15      O       2.5336204114    -1.6471220936    -1.2148632918
   16      O      -3.2671989020    -2.6370307596     0.2225289024
   17      O      -2.2169126654     2.1069564836     0.6620133323
   18      C      -2.2487287450    -3.4826828005     0.7017279640
   19      C      -5.0244574315     1.4487757307     0.6659837195
   20      C      -6.4929920938     1.4388696919     0.1658058920
   21      C      -6.7353439915    -0.0740326209     0.0077430581
   22      C      -5.4070778200    -0.6290881835     0.5952209154
   23      O      -5.0106231241     0.3406501931     1.5749625282
   24      H      -4.4855824514     1.4797816701    -1.4405559545
   25      H      -4.5087616323    -0.9575958239    -1.4407837879
   26      H      -4.7705631129     2.4350202986     1.1068313350
   27      H      -7.1178689687     1.8146417317     1.0010524064
   28      H      -6.6981675448     2.0471944607    -0.7355421742
   29      H      -7.6006463484    -0.3661956380     0.6339212696
   30      H      -6.8896753188    -0.4200448176    -1.0323565919
   31      H      -5.5412217006    -1.6626529878     0.9778805415
   32      O       2.0553659327     1.5436535425     0.9971950554
   33      C       1.6000933923    -2.6991775608    -1.2844235761
   34      C       5.5437671876    -0.4745415248     0.7901707151
   35      C       6.8349061901     0.2612613664     0.3451057762
   36      C       6.3346828134     1.7154654240     0.3022977941
   37      C       4.8644459485     1.5261048956     0.7665315482
   38      O       4.9396256815     0.4460711165     1.7079726769
   39      H       5.0669609210    -0.7384835201    -1.3489281994
   40      H       4.2156850052     1.5033253027    -1.3361725907
   41      H       0.9958454797    -2.7610618948    -0.3523318278
   42      H       5.7884254765    -1.4759427436     1.2013997726
   43      H       7.5849683303     0.1647187951     1.1551483325
   44      H       7.2675764985    -0.1192818583    -0.5997755291
   45      H       6.8837766457     2.3031771919     1.0641419418
   46      H       6.4177772347     2.2168855575    -0.6808021185
   47      H       4.4614834336     2.4806667348     1.1652037923
   48      H       2.1058896501    -3.6761557101    -1.4521239510
   49      H       0.9192020502    -2.5062786400    -2.1377760835
   50      H      -2.6406751333    -4.5195827746     0.7257712217
   51      H      -1.9382641471    -3.1960114105     1.7310564964
   52      H      -1.3585351943    -3.4561396078     0.0352810376
   53      H      -0.3897202912     2.7303778242    -0.8300074815
   54      H      -0.2264608128     2.0398245835    -2.4663881469
   55      H       0.1390291012     0.4175789812     0.1232577618
   56      H       0.0820601489    -0.2719919538    -1.5251125362
 ----------------------------------------------------------------
 Molecular Point Group                 C1    NOp =  1
 Largest Abelian Subgroup              C1    NOp =  1
 Nuclear Repulsion Energy =  3149.7471843941 hartrees
 There are      113 alpha and      113 beta electrons
 Applying Cartesian multipole field
    Component          Value
    ---------          -----
     (2,0,0)        1.00000E-12
     (0,2,0)        2.00000E-11
     (0,0,2)       -3.00000E-11
 Nucleus-field energy     =     0.0000000362 hartrees
 Requested basis set is STO-3G
 There are 86 shells and 176 basis functions
 A cutoff of  1.0D-12 yielded   2137 shell pairs
 There are     10066 function pairs
 Smallest overlap matrix eigenvalue = 2.02E-01
 Guess MOs from SCF MO coefficient file
 Reading MOs from coefficient file
 Reading MOs from coefficient file
 A restricted hybrid HF-DFT SCF calculation will be
 performed using Pulay DIIS extrapolation
 Exchange:     0.2000 Hartree-Fock + 0.0800 Slater + 0.7200 B88
 Correlation:  0.1900 VWN1RPA + 0.8100 LYP
 Using SG-1 standard quadrature grid
 Dispersion:   Grimme D3
 SCF converges when DIIS error is below 1.0E-08
 Geometry optimization detected.  Setting ReadMinima to 0
 Setting SaveMinima to 0
 using 48 threads for integral computing
 -------------------------------------------------------
 OpenMP Integral computing Module                
 Release: version 1.0, May 2013, Q-Chem Inc. Pittsburgh 
 -------------------------------------------------------
 -------------------------------------------------------
 OpenMP BLAS3 based DFT computing Module                
 Release: version 1.0, May 2013, Q-Chem Inc. Pittsburgh 
 -------------------------------------------------------
 ---------------------------------------
  Cycle       Energy         DIIS Error
 ---------------------------------------
    1   -1510.0493606161      3.05E-03
    2   -1510.2199275748      9.38E-04
    3   -1510.2140854416      1.52E-03
    4   -1510.2234181299      3.39E-04
    5   -1510.2239316732      5.89E-05
    6   -1510.2239454329      2.51E-05
    7   -1510.2239477012      1.15E-05
    8   -1510.2239482852      2.00E-06
    9   -1510.2239483028      8.91E-07
   10   -1510.2239483057      3.99E-07
   11   -1510.2239483064      9.65E-08
   12   -1510.2239483064      1.75E-08
   13   -1510.2239483064      6.67E-09 Convergence criterion met
 ---------------------------------------
 SCF time:  CPU 95.47 s  wall 1.99 s
 SCF   energy in the final basis set = -1510.22394831
 Total energy in the final basis set = -1510.22394831
 
 --------------------------------------------------------------
 
                    Orbital Energies (a.u.)
 --------------------------------------------------------------
 
 Alpha MOs
 -- Occupied --
-18.946 -18.935 -18.933 -18.932 -18.896 -18.891 -18.874 -18.867
-18.860 -18.849 -10.116 -10.105 -10.100 -10.097 -10.085 -10.079
-10.070 -10.067 -10.066 -10.061 -10.061 -10.057 -10.045 -10.040
-10.035 -10.033 -10.018 -10.015 -10.013 -10.012  -1.042  -1.033
 -1.023  -1.019  -1.004  -0.998  -0.952  -0.941  -0.939  -0.931
 -0.776  -0.771  -0.736  -0.732  -0.723  -0.713  -0.703  -0.681
 -0.677  -0.625  -0.603  -0.587  -0.550  -0.548  -0.536  -0.533
 -0.522  -0.514  -0.492  -0.487  -0.478  -0.472  -0.463  -0.458
 -0.443  -0.436  -0.430  -0.428  -0.425  -0.420  -0.417  -0.400
 -0.399  -0.391  -0.383  -0.373  -0.369  -0.360  -0.359  -0.353
 -0.352  -0.349  -0.342  -0.339  -0.336  -0.329  -0.321  -0.315
 -0.309  -0.307  -0.303  -0.299  -0.294  -0.286  -0.280  -0.274
 -0.270  -0.247  -0.241  -0.239  -0.233  -0.232  -0.230  -0.185
 -0.181  -0.173  -0.159  -0.155  -0.151  -0.151  -0.146  -0.141
 -0.136
 -- Virtual --
  0.101   0.105   0.110   0.122   0.225   0.242   0.258   0.262
  0.282   0.308   0.313   0.321   0.329   0.337   0.350   0.352
  0.360   0.361   0.370   0.372   0.377   0.379   0.381   0.389
  0.393   0.396   0.400   0.404   0.405   0.405   0.412   0.417
  0.418   0.421   0.427   0.433   0.436   0.437   0.449   0.452
  0.454   0.457   0.461   0.468   0.470   0.473   0.479   0.480
  0.481   0.488   0.492   0.499   0.502   0.531   0.531   0.549
  0.555   0.560   0.568   0.654   0.659   0.674   0.676
 --------------------------------------------------------------
 
          Ground-State Mulliken Net Atomic Charges

     Atom                 Charge (a.u.)
  ----------------------------------------
      1 O                    -0.225908
      2 C                     0.222427
      3 C                    -0.078668
      4 C                    -0.080711
      5 C                     0.222448
      6 O                    -0.181822
      7 C                    -0.044002
      8 C                    -0.040344
      9 O                    -0.189833
     10 C                     0.227062
     11 C                    -0.082915
     12 C                    -0.078244
     13 C                     0.232041
     14 O                    -0.223355
     15 O                    -0.196389
     16 O                    -0.197944
     17 O                    -0.225594
     18 C                    -0.106017
     19 C                     0.035861
     20 C                    -0.143539
     21 C                    -0.144765
     22 C                     0.034129
     23 O                    -0.201605
     24 H                     0.084769
     25 H                     0.088245
     26 H                     0.091142
     27 H                     0.075972
     28 H                     0.072163
     29 H                     0.076248
     30 H                     0.072007
     31 H                     0.086783
     32 O                    -0.212158
     33 C                    -0.106574
     34 C                     0.034216
     35 C                    -0.143804
     36 C                    -0.145300
     37 C                     0.035623
     38 O                    -0.199364
     39 H                     0.087499
     40 H                     0.085250
     41 H                     0.086264
     42 H                     0.091987
     43 H                     0.075804
     44 H                     0.071372
     45 H                     0.075603
     46 H                     0.070928
     47 H                     0.087047
     48 H                     0.086553
     49 H                     0.091446
     50 H                     0.096256
     51 H                     0.092529
     52 H                     0.084070
     53 H                     0.095731
     54 H                     0.085744
     55 H                     0.108531
     56 H                     0.085103
  ----------------------------------------
  Sum of atomic charges =    -0.000000

 -----------------------------------------------------------------
                    Cartesian Multipole Moments
 -----------------------------------------------------------------
    Charge (ESU x 10^10)
                 0.0000
    Dipole Moment (Debye)
         X      -1.2008      Y      -1.5433      Z      -4.4393
       Tot       4.8508
    Quadrupole Moments (Debye-Ang)
        XX    -139.1093     XY       6.4819     YY    -153.0692
        XZ      -2.5868     YZ      -2.5860     ZZ    -167.0103
    Octopole Moments (Debye-Ang^2)
       XXX      -0.3819    XXY      27.2426    XYY     -17.0502
       YYY     -20.4673    XXZ     -51.5333    XYZ      13.9141
       YYZ      -8.6687    XZZ      -5.0260    YZZ     -11.6613
       ZZZ      -4.3276
    Hexadecapole Moments (Debye-Ang^3)
      XXXX  -15812.7415   XXXY      -5.3097   XXYY   -3204.7675
      XYYY      69.3815   YYYY   -2514.1965   XXXZ     -36.2541
      XXYZ       1.0088   XYYZ     -49.5468   YYYZ       2.9281
      XXZZ   -3029.4263   XYZZ       3.1942   YYZZ    -562.8418
      XZZZ     -17.1035   YZZZ      -3.7729   ZZZZ    -880.4875
 -----------------------------------------------------------------
 Calculating analytic gradient of the SCF energy
 Gradient of SCF Energy
            1           2           3           4           5           6
    1  -0.0046936  -0.0042934  -0.0032474  -0.0136857  -0.0061333  -0.0050827
    2   0.0167608   0.0345602  -0.0015222  -0.0168226  -0.0118584   0.0106830
    3  -0.0271885  -0.0133260   0.0333887   0.0108484  -0.0109304   0.0295647
            7           8           9          10          11          12
    1   0.0147939  -0.0120161   0.0056033   0.0029479   0.0091860   0.0148513
    2   0.0130873  -0.0190602   0.0137024  -0.0113645  -0.0061409   0.0176759
    3  -0.0132448   0.0143400   0.0412789  -0.0340940   0.0198166   0.0252156
           13          14          15          16          17          18
    1  -0.0342769  -0.0249982  -0.0045430   0.0790119  -0.0113424  -0.0404733
    2  -0.0126699  -0.0172034  -0.0704114   0.0156100  -0.0113113   0.0095641
    3  -0.0038026  -0.0066274   0.0464663   0.0246988  -0.0187254  -0.0163171
           19          20          21          22          23          24
    1  -0.0030826   0.0191752   0.0196118   0.0181879  -0.0121266  -0.0031079
    2  -0.0446767  -0.0192991   0.0092545   0.0409696   0.0043698   0.0098045
    3   0.0112381   0.0013775   0.0089724   0.0101619  -0.0496738   0.0016538
           25          26          27          28          29          30
    1   0.0032112  -0.0073214  -0.0007626  -0.0035153  -0.0040247   0.0016527
    2  -0.0018933   0.0076788  -0.0021017   0.0028569   0.0052379  -0.0034588
    3  -0.0030246  -0.0075627   0.0070845  -0.0026079   0.0057853  -0.0039646
           31          32          33          34          35          36
    1  -0.0070086   0.0116404   0.0176779  -0.0191544  -0.0254452  -0.0138144
    2  -0.0040781   0.0001222   0.0376768   0.0373420   0.0082360  -0.0200933
    3  -0.0073802  -0.0223447  -0.0133658   0.0102785   0.0028391   0.0048503
           37          38          39          40          41          42
    1   0.0086084   0.0146553   0.0008582   0.0008935   0.0015917   0.0107384
    2  -0.0442551   0.0030586  -0.0023617   0.0087606   0.0042496  -0.0023402
    3   0.0098906  -0.0488887  -0.0018148   0.0010042   0.0005493  -0.0069701
           43          44          45          46          47          48
    1   0.0004651   0.0025910   0.0037491  -0.0005794   0.0055474   0.0029365
    2   0.0034848  -0.0018977  -0.0026629   0.0028725   0.0084833   0.0024625
    3   0.0069199  -0.0032398   0.0067664  -0.0036266  -0.0081858  -0.0020142
           49          50          51          52          53          54
    1  -0.0023730   0.0026029  -0.0039090  -0.0030338   0.0031245   0.0024814
    2  -0.0029863  -0.0022440   0.0017221   0.0011782   0.0044065  -0.0008437
    3  -0.0002908   0.0012359   0.0003867  -0.0027937  -0.0061110   0.0007514
           55          56
    1  -0.0048001   0.0004499
    2  -0.0019535  -0.0003606
    3  -0.0007455   0.0014975
 Max gradient component =       7.901E-02
 RMS gradient           =       1.740E-02
 Gradient time:  CPU 31.81 s  wall 0.67 s
 Geometry Optimization Parameters
   NAtoms,    NIC,     NZ,  NCons,   NDum,   NFix, NCnnct, MaxDiis
       56     458       0       9       0       0       0       0

 Cartesian Hessian Update
 Hessian Updated using BFGS Update


** CONSTRAINED OPTIMIZATION IN DELOCALIZED INTERNAL COORDINATES **
   Searching for a Minimum

   Optimization Cycle:   2

                       Coordinates (Angstroms)
     ATOM                X               Y               Z
      1  O         3.6325643592   -2.6282697773    0.5128182579
      2  C         3.5095303182   -1.6485722537   -0.2392174850
      3  C         4.5368973757   -0.5210459925   -0.3974458177
      4  C         3.9994928234    0.9424397904   -0.4033894880
      5  C         2.5090575175    1.1194614626   -0.0755746818
      6  O         1.7501346893    0.9096609445   -1.2212692934
      7  C         0.3543130735    0.6342918309   -0.9452212917
      8  C        -0.5366315583    1.8023726103   -1.4257661221
      9  O        -1.9191850015    1.3765408434   -1.5186128880
     10  C        -2.6377775788    1.5188140474   -0.3462044020
     11  C        -4.0815962550    1.0246346653   -0.5120734411
     12  C        -4.2574403434   -0.5173358739   -0.4540796517
     13  C        -3.0474115828   -1.2821227846    0.0976452002
     14  O        -1.9499856820   -0.7840378372    0.3930989122
     15  O         2.5336204114   -1.6471220936   -1.2148632918
     16  O        -3.2671989020   -2.6370307596    0.2225289024
     17  O        -2.2169126654    2.1069564836    0.6620133323
     18  C        -2.2487287450   -3.4826828005    0.7017279640
     19  C        -5.0244574315    1.4487757307    0.6659837195
     20  C        -6.4929920938    1.4388696919    0.1658058920
     21  C        -6.7353439915   -0.0740326209    0.0077430581
     22  C        -5.4070778200   -0.6290881835    0.5952209154
     23  O        -5.0106231241    0.3406501931    1.5749625282
     24  H        -4.4855824514    1.4797816701   -1.4405559545
     25  H        -4.5087616323   -0.9575958239   -1.4407837879
     26  H        -4.7705631129    2.4350202986    1.1068313350
     27  H        -7.1178689687    1.8146417317    1.0010524064
     28  H        -6.6981675448    2.0471944607   -0.7355421742
     29  H        -7.6006463484   -0.3661956380    0.6339212696
     30  H        -6.8896753188   -0.4200448176   -1.0323565919
     31  H        -5.5412217006   -1.6626529878    0.9778805415
     32  O         2.0553659327    1.5436535425    0.9971950554
     33  C         1.6000933923   -2.6991775608   -1.2844235761
     34  C         5.5437671876   -0.4745415248    0.7901707151
     35  C         6.8349061901    0.2612613664    0.3451057762
     36  C         6.3346828134    1.7154654240    0.3022977941
     37  C         4.8644459485    1.5261048956    0.7665315482
     38  O         4.9396256815    0.4460711165    1.7079726769
     39  H         5.0669609210   -0.7384835201   -1.3489281994
     40  H         4.2156850052    1.5033253027   -1.3361725907
     41  H         0.9958454797   -2.7610618948   -0.3523318278
     42  H         5.7884254765   -1.4759427436    1.2013997726
     43  H         7.5849683303    0.1647187951    1.1551483325
     44  H         7.2675764985   -0.1192818583   -0.5997755291
     45  H         6.8837766457    2.3031771919    1.0641419418
     46  H         6.4177772347    2.2168855575   -0.6808021185
     47  H         4.4614834336    2.4806667348    1.1652037923
     48  H         2.1058896501   -3.6761557101   -1.4521239510
     49  H         0.9192020502   -2.5062786400   -2.1377760835
     50  H        -2.6406751333   -4.5195827746    0.7257712217
     51  H        -1.9382641471   -3.1960114105    1.7310564964
     52  H        -1.3585351943   -3.4561396078    0.0352810376
     53  H        -0.3897202912    2.7303778242   -0.8300074815
     54  H        -0.2264608128    2.0398245835   -2.4663881469
     55  H         0.1390291012    0.4175789812    0.1232577618
     56  H         0.0820601489   -0.2719919538   -1.5251125362
   Point Group: c1    Number of degrees of freedom:   162


   Energy is  -1510.223948306

              Constraints and their Current Values
                                        Value     Constraint
   Dihedral:        1   2   3   4     -134.925     -134.895
   Dihedral:        3   4   5   6      -83.274      -83.245
   Dihedral:        4   5   6   7      161.488      161.508
   Dihedral:        5   6   7   8      111.647      111.653
   Dihedral:        6   7   8   9      163.120      163.145
   Dihedral:        7   8   9  10       88.040       88.025
   Dihedral:        8   9  10  11     -178.928     -178.926
   Dihedral:        9  10  11  12       78.705       78.677
   Dihedral:       11  12  13  14       -5.544       -5.530
 Hessian Updated using BFGS Update

   Using Lagrange Multiplier Algorithm


159 Hessian modes will be used to form the next step
  Hessian Eigenvalues:
    -0.977753   -0.977753   -0.977753   -0.977753   -0.977753   -0.977753
    -0.977753   -0.977753   -0.977381    0.044998    0.045000    0.045008
     0.045248    0.045339    0.045548    0.045610    0.045782    0.048879
     0.048891    0.054182    0.059841    0.060029    0.062647    0.062776
     0.066924    0.067109    0.067116    0.067393    0.069173    0.070850
     0.071967    0.073647    0.073813    0.075624    0.076150    0.076706
     0.077033    0.082416    0.082640    0.083701    0.084198    0.084398
     0.084501    0.085788    0.085938    0.086384    0.086603    0.086831
     0.087282    0.088479    0.088784    0.089062    0.089373    0.089647
     0.089969    0.093925    0.093991    0.096619    0.096670    0.111546
     0.111620    0.114659    0.114723    0.115789    0.115918    0.116530
     0.117519    0.117860    0.118167    0.118983    0.122699    0.124438
     0.130692    0.130708    0.131078    0.138968    0.141008    0.159595
     0.161698    0.171376    0.171873    0.172278    0.172915    0.220093
     0.220393    0.229137    0.238447    0.239779    0.246891    0.247413
     0.247911    0.249972    0.254130    0.258538    0.260288    0.267072
     0.267504    0.279755    0.281390    0.282553    0.288195    0.295705
     0.297515    0.301931    0.308459    0.310590    0.312263    0.319621
     0.321929    0.322089    0.322333    0.322493    0.322727    0.322850
     0.322960    0.323349    0.323526    0.323636    0.323970    0.324056
     0.324225    0.324241    0.324279    0.324571    0.324613    0.324734
     0.324963    0.324994    0.325303    0.325641    0.326791    0.326978
     0.327012    0.329967    0.369905    0.369995    0.385551    0.400402
     0.404554    0.420834    0.475226    0.491861    0.520441    0.526177
     0.532019    0.536270    0.925762    0.930431    0.942376    0.989900
     1.022753    1.022753    1.022753    1.022753    1.022753    1.022753
     1.022753    1.022753    1.027034

 Minimum Search - Taking P-RFO Step
 Searching for Lamda that Maximizes Along the Constraint modes Only
 Value Taken    Lamda =   0.00003393
 Searching for Lamda that Minimizes Along All other modes
 Value Taken    Lamda =  -0.07454130
 Calculated Step too Large.  Step scaled by  0.640360
 Step Taken.  Stepsize is  0.300000

                             Maximum     Tolerance    Cnvgd?
         Gradient            0.063893       0.000300      NO
         Displacement        0.092563       0.001200      NO
         Energy change     -0.069055       0.000001      NO


 New Cartesian Coordinates Obtained by Inverse Iteration

 Displacement from previous Coordinates is:  0.840956
 Adding empirical dispersion correction 
 ----------------------------------------------------------------
 Doing -D3(op) with
 s6 =   1.00000
 s8 =   0.78311
 a1 =   0.30000
 a2 =   4.25000
 n  =  10.00000
 -D3 energy without 3body term =     -0.0680433379 hartrees
 ----------------------------------------------------------------
             Standard Nuclear Orientation (Angstroms)
    I     Atom           X                Y                Z
 ----------------------------------------------------------------
    1      O       3.6095702258    -2.6693181855     0.4874614489
    2      C       3.5016335105    -1.6756131328    -0.2604984279
    3      C       4.5423249938    -0.5332154282    -0.4058128343
    4      C       4.0053882844     0.9446680129    -0.4075119832
    5      C       2.4932123692     1.1165809432    -0.0989053691
    6      O       1.7521244209     0.9116387247    -1.2798912988
    7      C       0.3449218510     0.6286459565    -0.9991875509
    8      C      -0.5609310227     1.8056583017    -1.4770937402
    9      O      -1.9558843859     1.3739872874    -1.5691657767
   10      C      -2.6429997039     1.5309846705    -0.3515118951
   11      C      -4.1051932652     1.0306425832    -0.5101138093
   12      C      -4.2820854018    -0.5218101948    -0.4565401817
   13      C      -3.0304741259    -1.2683093830     0.0718612193
   14      O      -1.9232024100    -0.7604952428     0.3453944956
   15      O       2.5265086548    -1.6220071961    -1.2641558467
   16      O      -3.2748734243    -2.6392481683     0.1934975831
   17      O      -2.1855408427     2.1243408472     0.6454627085
   18      C      -2.1549669789    -3.4055276363     0.6712839962
   19      C      -5.0350590766     1.4611223260     0.6913818060
   20      C      -6.5199002398     1.4475208038     0.1944741553
   21      C      -6.7642310987    -0.0811174181     0.0349383073
   22      C      -5.4234429401    -0.6458069151     0.6212353620
   23      O      -5.0095600624     0.3356685213     1.6165215863
   24      H      -4.5168595251     1.4741252784    -1.4371452985
   25      H      -4.5519705086    -0.9617434220    -1.4359819962
   26      H      -4.7606943082     2.4362540240     1.1404280781
   27      H      -7.1451880519     1.8263026902     1.0230844306
   28      H      -6.7208815893     2.0523488869    -0.7064128949
   29      H      -7.6242188984    -0.3837225778     0.6570451815
   30      H      -6.9217474783    -0.4186736910    -1.0038935853
   31      H      -5.5353452997    -1.6764144467     1.0139208351
   32      O       2.0039462871     1.5121748660     0.9772358060
   33      C       1.6122462798    -2.7327864716    -1.2598315705
   34      C       5.5358681100    -0.5026628017     0.8091937140
   35      C       6.8429182203     0.2427137122     0.3766205209
   36      C       6.3399567962     1.7130721755     0.3378658881
   37      C       4.8513845874     1.5267296109     0.7931248894
   38      O       4.9106059891     0.4242904359     1.7444079905
   39      H       5.0826326810    -0.7408942066    -1.3513555819
   40      H       4.2352696729     1.5017989542    -1.3358774860
   41      H       1.0385522530    -2.7874976509    -0.3093501881
   42      H       5.7514449155    -1.5074790505     1.2241427579
   43      H       7.5900087934     0.1357527838     1.1830291173
   44      H       7.2758399272    -0.1305613715    -0.5673558658
   45      H       6.8817218232     2.3021105518     1.0985637807
   46      H       6.4306480788     2.2130218136    -0.6416732257
   47      H       4.4307179688     2.4665663085     1.2032312892
   48      H       2.1400313236    -3.6997421300    -1.4094979675
   49      H       0.9060747029    -2.5781700924    -2.0980941802
   50      H      -2.4821319380    -4.4616733014     0.7260964037
   51      H      -1.8327729710    -3.0740986953     1.6820396634
   52      H      -1.2864249977    -3.3331381105    -0.0183189125
   53      H      -0.4188096404     2.7202035108    -0.8613759625
   54      H      -0.2617608598     2.0568032694    -2.5174470155
   55      H       0.1428913405     0.4068655556     0.0701277231
   56      H       0.0763792419    -0.2741281580    -1.5867005392
 ----------------------------------------------------------------
 Molecular Point Group                 C1    NOp =  1
 Largest Abelian Subgroup              C1    NOp =  1
 Nuclear Repulsion Energy =  3137.1262470130 hartrees
 There are      113 alpha and      113 beta electrons
 Applying Cartesian multipole field
    Component          Value
    ---------          -----
     (2,0,0)        1.00000E-12
     (0,2,0)        2.00000E-11
     (0,0,2)       -3.00000E-11
 Nucleus-field energy     =     0.0000000354 hartrees
 Requested basis set is STO-3G
 There are 86 shells and 176 basis functions
 A cutoff of  1.0D-12 yielded   2138 shell pairs
 There are     10040 function pairs
 Smallest overlap matrix eigenvalue = 2.07E-01
 Guess MOs from SCF MO coefficient file
 Reading MOs from coefficient file
 Reading MOs from coefficient file
 A restricted hybrid HF-DFT SCF calculation will be
 performed using Pulay DIIS extrapolation
 Exchange:     0.2000 Hartree-Fock + 0.0800 Slater + 0.7200 B88
 Correlation:  0.1900 VWN1RPA + 0.8100 LYP
 Using SG-1 standard quadrature grid
 Dispersion:   Grimme D3
 SCF converges when DIIS error is below 1.0E-08
 Geometry optimization detected.  Setting ReadMinima to 0
 Setting SaveMinima to 0
 using 48 threads for integral computing
 -------------------------------------------------------
 OpenMP Integral computing Module                
 Release: version 1.0, May 2013, Q-Chem Inc. Pittsburgh 
 -------------------------------------------------------
 -------------------------------------------------------
 OpenMP BLAS3 based DFT computing Module                
 Release: version 1.0, May 2013, Q-Chem Inc. Pittsburgh 
 -------------------------------------------------------
 ---------------------------------------
  Cycle       Energy         DIIS Error
 ---------------------------------------
    1   -1510.1103332829      2.90E-03
    2   -1510.2567170999      8.84E-04
    3   -1510.2503423694      1.52E-03
    4   -1510.2598623560      3.06E-04
    5   -1510.2602716282      6.44E-05
    6   -1510.2602870359      3.03E-05
    7   -1510.2602904786      1.27E-05
    8   -1510.2602911938      2.26E-06
    9   -1510.2602912148      1.18E-06
   10   -1510.2602912203      3.98E-07
   11   -1510.2602912210      9.06E-08
   12   -1510.2602912210      2.02E-08
   13   -1510.2602912211      7.28E-09 Convergence criterion met
 ---------------------------------------
 SCF time:  CPU 95.48 s  wall 1.99 s
 SCF   energy in the final basis set = -1510.26029122
 Total energy in the final basis set = -1510.26029122
 
 --------------------------------------------------------------
 
                    Orbital Energies (a.u.)
 --------------------------------------------------------------
 
 Alpha MOs
 -- Occupied --
-18.949 -18.939 -18.929 -18.928 -18.894 -18.889 -18.880 -18.869
-18.866 -18.855 -10.112 -10.102 -10.097 -10.094 -10.079 -10.074
-10.066 -10.064 -10.062 -10.059 -10.058 -10.055 -10.044 -10.039
-10.034 -10.034 -10.019 -10.016 -10.014 -10.013  -1.035  -1.026
 -1.014  -1.009  -0.988  -0.982  -0.950  -0.938  -0.935  -0.928
 -0.770  -0.766  -0.731  -0.727  -0.716  -0.708  -0.696  -0.676
 -0.671  -0.619  -0.600  -0.583  -0.548  -0.546  -0.535  -0.532
 -0.518  -0.511  -0.487  -0.480  -0.473  -0.465  -0.459  -0.454
 -0.439  -0.432  -0.426  -0.425  -0.420  -0.416  -0.413  -0.396
 -0.393  -0.385  -0.377  -0.371  -0.365  -0.357  -0.354  -0.351
 -0.349  -0.345  -0.339  -0.337  -0.335  -0.329  -0.321  -0.313
 -0.309  -0.307  -0.302  -0.299  -0.292  -0.285  -0.277  -0.273
 -0.268  -0.255  -0.248  -0.242  -0.238  -0.235  -0.232  -0.188
 -0.182  -0.175  -0.159  -0.157  -0.153  -0.150  -0.145  -0.143
 -0.139
 -- Virtual --
  0.096   0.101   0.106   0.118   0.223   0.241   0.255   0.257
  0.274   0.297   0.301   0.308   0.318   0.328   0.341   0.345
  0.353   0.356   0.358   0.360   0.363   0.365   0.376   0.382
  0.386   0.389   0.393   0.395   0.405   0.405   0.409   0.413
  0.417   0.418   0.420   0.424   0.430   0.430   0.437   0.441
  0.448   0.449   0.451   0.456   0.459   0.464   0.469   0.472
  0.476   0.477   0.489   0.495   0.496   0.522   0.523   0.543
  0.549   0.554   0.559   0.641   0.645   0.661   0.663
 --------------------------------------------------------------
 
          Ground-State Mulliken Net Atomic Charges

     Atom                 Charge (a.u.)
  ----------------------------------------
      1 O                    -0.219843
      2 C                     0.213980
      3 C                    -0.078232
      4 C                    -0.079656
      5 C                     0.215602
      6 O                    -0.176920
      7 C                    -0.047401
      8 C                    -0.045285
      9 O                    -0.184204
     10 C                     0.220544
     11 C                    -0.082815
     12 C                    -0.077704
     13 C                     0.223948
     14 O                    -0.216234
     15 O                    -0.180690
     16 O                    -0.182839
     17 O                    -0.219641
     18 C                    -0.116433
     19 C                     0.030632
     20 C                    -0.144062
     21 C                    -0.145267
     22 C                     0.029508
     23 O                    -0.194570
     24 H                     0.084572
     25 H                     0.087913
     26 H                     0.090502
     27 H                     0.076497
     28 H                     0.072867
     29 H                     0.076945
     30 H                     0.072790
     31 H                     0.086741
     32 O                    -0.208351
     33 C                    -0.116831
     34 C                     0.029087
     35 C                    -0.144475
     36 C                    -0.145796
     37 C                     0.030874
     38 O                    -0.192051
     39 H                     0.086654
     40 H                     0.085496
     41 H                     0.087042
     42 H                     0.091065
     43 H                     0.076290
     44 H                     0.071967
     45 H                     0.076113
     46 H                     0.071617
     47 H                     0.086989
     48 H                     0.088071
     49 H                     0.089923
     50 H                     0.094836
     51 H                     0.093647
     52 H                     0.085044
     53 H                     0.095251
     54 H                     0.084500
     55 H                     0.108229
     56 H                     0.083560
  ----------------------------------------
  Sum of atomic charges =    -0.000000

 -----------------------------------------------------------------
                    Cartesian Multipole Moments
 -----------------------------------------------------------------
    Charge (ESU x 10^10)
                -0.0000
    Dipole Moment (Debye)
         X      -1.0832      Y      -1.5182      Z      -4.2368
       Tot       4.6291
    Quadrupole Moments (Debye-Ang)
        XX    -138.3740     XY       5.8825     YY    -153.3109
        XZ      -2.3110     YZ      -2.3719     ZZ    -167.2205
    Octopole Moments (Debye-Ang^2)
       XXX       1.6301    XXY      28.7076    XYY     -13.0766
       YYY     -17.1756    XXZ     -50.9315    XYZ      13.0653
       YYZ      -7.3255    XZZ      -4.1153    YZZ     -10.8675
       ZZZ      -1.5085
    Hexadecapole Moments (Debye-Ang^3)
      XXXX  -15774.5711   XXXY      18.7355   XXYY   -3205.4358
      XYYY      84.3014   YYYY   -2519.1921   XXXZ     -33.5830
      XXYZ       1.3730   XYYZ     -47.2976   YYYZ       2.5723
      XXZZ   -3037.8512   XYZZ      12.4529   YYZZ    -565.8272
      XZZZ     -17.7861   YZZZ      -6.8910   ZZZZ    -909.9058
 -----------------------------------------------------------------
 Calculating analytic gradient of the SCF energy
 Gradient of SCF Energy
            1           2           3           4           5           6
    1  -0.0006969  -0.0086259   0.0001805  -0.0074464  -0.0030129  -0.0040524
    2   0.0037826   0.0232602  -0.0009740  -0.0112493  -0.0109825   0.0078197
    3  -0.0137414  -0.0076167   0.0190441  -0.0008734  -0.0069929   0.0137527
            7           8           9          10          11          12
    1   0.0120417  -0.0099042   0.0036278   0.0012347   0.0056954   0.0071314
    2   0.0065071  -0.0101148   0.0066672  -0.0083577  -0.0047480   0.0098730
    3  -0.0053086   0.0125072   0.0194628  -0.0219972   0.0073285   0.0115257
           13          14          15          16          17          18
    1  -0.0207816  -0.0085141  -0.0006369   0.0415824  -0.0048569  -0.0236835
    2  -0.0115882  -0.0068467  -0.0375603   0.0104268  -0.0038901   0.0065873
    3   0.0001339  -0.0028190   0.0244424   0.0116712  -0.0060061  -0.0091695
           19          20          21          22          23          24
    1   0.0012285   0.0099313   0.0084105   0.0103208  -0.0064838  -0.0027514
    2  -0.0245817  -0.0084335   0.0028562   0.0217813   0.0023606   0.0065046
    3   0.0100717  -0.0027813   0.0025495   0.0080891  -0.0237219   0.0023560
           25          26          27          28          29          30
    1   0.0025260  -0.0055847   0.0005828  -0.0029883  -0.0016442   0.0011238
    2  -0.0013746   0.0055776  -0.0021951   0.0020946   0.0040680  -0.0024503
    3  -0.0015560  -0.0065079   0.0042796  -0.0001831   0.0033873  -0.0013543
           31          32          33          34          35          36
    1  -0.0048113   0.0050736   0.0115238  -0.0127117  -0.0118633  -0.0066706
    2  -0.0027236   0.0044622   0.0221138   0.0187619   0.0031909  -0.0085641
    3  -0.0061595  -0.0093028  -0.0065991   0.0086399  -0.0016394  -0.0001908
           37          38          39          40          41          42
    1   0.0027330   0.0074547   0.0000955   0.0004267   0.0002112   0.0079711
    2  -0.0248550   0.0019666  -0.0014744   0.0066829   0.0016374  -0.0015660
    3   0.0089445  -0.0229179  -0.0009759   0.0020891   0.0004248  -0.0060498
           43          44          45          46          47          48
    1  -0.0008981   0.0021051   0.0016777  -0.0002475   0.0042958   0.0011412
    2   0.0025763  -0.0013069  -0.0027814   0.0021043   0.0060916   0.0005527
    3   0.0040910  -0.0007055   0.0040197  -0.0010409  -0.0069228  -0.0012955
           49          50          51          52          53          54
    1  -0.0011281   0.0014272  -0.0015905  -0.0009325   0.0031617   0.0012817
    2  -0.0016549  -0.0010143   0.0004495   0.0001712   0.0035682  -0.0005178
    3  -0.0000022   0.0006237   0.0006087  -0.0013853  -0.0049413   0.0000991
           55          56
    1  -0.0038284   0.0001485
    2  -0.0023482  -0.0003429
    3  -0.0003821   0.0009976
 Max gradient component =       4.158E-02
 RMS gradient           =       9.500E-03
 Gradient time:  CPU 31.56 s  wall 0.68 s
 Geometry Optimization Parameters
   NAtoms,    NIC,     NZ,  NCons,   NDum,   NFix, NCnnct, MaxDiis
       56     458       0       9       0       0       0       0

 Cartesian Hessian Update
 Hessian Updated using BFGS Update


** CONSTRAINED OPTIMIZATION IN DELOCALIZED INTERNAL COORDINATES **
   Searching for a Minimum

   Optimization Cycle:   3

                       Coordinates (Angstroms)
     ATOM                X               Y               Z
      1  O         3.6095702258   -2.6693181855    0.4874614489
      2  C         3.5016335105   -1.6756131328   -0.2604984279
      3  C         4.5423249938   -0.5332154282   -0.4058128343
      4  C         4.0053882844    0.9446680129   -0.4075119832
      5  C         2.4932123692    1.1165809432   -0.0989053691
      6  O         1.7521244209    0.9116387247   -1.2798912988
      7  C         0.3449218510    0.6286459565   -0.9991875509
      8  C        -0.5609310227    1.8056583017   -1.4770937402
      9  O        -1.9558843859    1.3739872874   -1.5691657767
     10  C        -2.6429997039    1.5309846705   -0.3515118951
     11  C        -4.1051932652    1.0306425832   -0.5101138093
     12  C        -4.2820854018   -0.5218101948   -0.4565401817
     13  C        -3.0304741259   -1.2683093830    0.0718612193
     14  O        -1.9232024100   -0.7604952428    0.3453944956
     15  O         2.5265086548   -1.6220071961   -1.2641558467
     16  O        -3.2748734243   -2.6392481683    0.1934975831
     17  O        -2.1855408427    2.1243408472    0.6454627085
     18  C        -2.1549669789   -3.4055276363    0.6712839962
     19  C        -5.0350590766    1.4611223260    0.6913818060
     20  C        -6.5199002398    1.4475208038    0.1944741553
     21  C        -6.7642310987   -0.0811174181    0.0349383073
     22  C        -5.4234429401   -0.6458069151    0.6212353620
     23  O        -5.0095600624    0.3356685213    1.6165215863
     24  H        -4.5168595251    1.4741252784   -1.4371452985
     25  H        -4.5519705086   -0.9617434220   -1.4359819962
     26  H        -4.7606943082    2.4362540240    1.1404280781
     27  H        -7.1451880519    1.8263026902    1.0230844306
     28  H        -6.7208815893    2.0523488869   -0.7064128949
     29  H        -7.6242188984   -0.3837225778    0.6570451815
     30  H        -6.9217474783   -0.4186736910   -1.0038935853
     31  H        -5.5353452997   -1.6764144467    1.0139208351
     32  O         2.0039462871    1.5121748660    0.9772358060
     33  C         1.6122462798   -2.7327864716   -1.2598315705
     34  C         5.5358681100   -0.5026628017    0.8091937140
     35  C         6.8429182203    0.2427137122    0.3766205209
     36  C         6.3399567962    1.7130721755    0.3378658881
     37  C         4.8513845874    1.5267296109    0.7931248894
     38  O         4.9106059891    0.4242904359    1.7444079905
     39  H         5.0826326810   -0.7408942066   -1.3513555819
     40  H         4.2352696729    1.5017989542   -1.3358774860
     41  H         1.0385522530   -2.7874976509   -0.3093501881
     42  H         5.7514449155   -1.5074790505    1.2241427579
     43  H         7.5900087934    0.1357527838    1.1830291173
     44  H         7.2758399272   -0.1305613715   -0.5673558658
     45  H         6.8817218232    2.3021105518    1.0985637807
     46  H         6.4306480788    2.2130218136   -0.6416732257
     47  H         4.4307179688    2.4665663085    1.2032312892
     48  H         2.1400313236   -3.6997421300   -1.4094979675
     49  H         0.9060747029   -2.5781700924   -2.0980941802
     50  H        -2.4821319380   -4.4616733014    0.7260964037
     51  H        -1.8327729710   -3.0740986953    1.6820396634
     52  H        -1.2864249977   -3.3331381105   -0.0183189125
     53  H        -0.4188096404    2.7202035108   -0.8613759625
     54  H        -0.2617608598    2.0568032694   -2.5174470155
     55  H         0.1428913405    0.4068655556    0.0701277231
     56  H         0.0763792419   -0.2741281580   -1.5867005392
   Point Group: c1    Number of degrees of freedom:   162


   Energy is  -1510.260291221

              Constraints and their Current Values
                                        Value     Constraint
   Dihedral:        1   2   3   4     -134.906     -134.895
   Dihedral:        3   4   5   6      -83.242      -83.245
   Dihedral:        4   5   6   7      161.500      161.508
   Dihedral:        5   6   7   8      111.657      111.653
   Dihedral:        6   7   8   9      163.139      163.145
   Dihedral:        7   8   9  10       88.027       88.025
   Dihedral:        8   9  10  11     -178.925     -178.926
   Dihedral:        9  10  11  12       78.673       78.677
   Dihedral:       11  12  13  14       -5.528       -5.530
 Hessian Updated using BFGS Update

   Using Lagrange Multiplier Algorithm


162 Hessian modes will be used to form the next step
  Hessian Eigenvalues:
    -0.977754   -0.977753   -0.977753   -0.977753   -0.977753   -0.977753
    -0.977753   -0.977749   -0.977004    0.044984    0.045000    0.045000
     0.045005    0.045144    0.045250    0.045546    0.045611    0.045748
     0.048877    0.048894    0.054065    0.059043    0.060019    0.062629
     0.062749    0.066886    0.067111    0.067122    0.067329    0.069163
     0.070763    0.072001    0.073625    0.073812    0.075647    0.076132
     0.076646    0.076998    0.082416    0.082655    0.083703    0.084217
     0.084387    0.084511    0.085689    0.085933    0.086383    0.086569
     0.086836    0.087324    0.088436    0.088794    0.089078    0.089379
     0.089641    0.089984    0.093835    0.093965    0.096619    0.096670
     0.111546    0.111618    0.114656    0.114715    0.115787    0.115918
     0.116561    0.117510    0.117864    0.118154    0.119114    0.122699
     0.124436    0.130695    0.130757    0.131130    0.139006    0.141014
     0.159893    0.160011    0.161701    0.171507    0.171964    0.172554
     0.173040    0.219522    0.220411    0.238405    0.239779    0.246135
     0.246938    0.247387    0.248578    0.249980    0.253785    0.256120
     0.258685    0.260161    0.267070    0.267510    0.279754    0.281416
     0.282557    0.288331    0.295705    0.297575    0.302232    0.308494
     0.310567    0.312375    0.318069    0.321920    0.322074    0.322328
     0.322461    0.322700    0.322850    0.322901    0.323347    0.323460
     0.323620    0.323937    0.324049    0.324175    0.324242    0.324321
     0.324570    0.324579    0.324714    0.324959    0.324995    0.325290
     0.325636    0.326811    0.327002    0.327012    0.331353    0.369885
     0.369948    0.383632    0.386677    0.403231    0.406882    0.460095
     0.491745    0.514656    0.524653    0.531669    0.536357    0.925834
     0.930923    0.942390    0.994555    1.022753    1.022753    1.022753
     1.022753    1.022753    1.022753    1.022753    1.022778    1.030307

 Minimum Search - Taking P-RFO Step
 Searching for Lamda that Maximizes Along the Constraint modes Only
 Value Taken    Lamda =   0.00000439
 Searching for Lamda that Minimizes Along All other modes
 Value Taken    Lamda =  -0.02792315
 Calculated Step too Large.  Step scaled by  0.777453
 Step Taken.  Stepsize is  0.300000

                             Maximum     Tolerance    Cnvgd?
         Gradient            0.030142       0.000300      NO
         Displacement        0.086351       0.001200      NO
         Energy change     -0.036343       0.000001      NO


 New Cartesian Coordinates Obtained by Inverse Iteration

 Displacement from previous Coordinates is:  0.721222
 Adding empirical dispersion correction 
 ----------------------------------------------------------------
 Doing -D3(op) with
 s6 =   1.00000
 s8 =   0.78311
 a1 =   0.30000
 a2 =   4.25000
 n  =  10.00000
 -D3 energy without 3body term =     -0.0678929719 hartrees
 ----------------------------------------------------------------
             Standard Nuclear Orientation (Angstroms)
    I     Atom           X                Y                Z
 ----------------------------------------------------------------
    1      O       3.6648267325    -2.6887307442     0.4813659850
    2      C       3.5401796978    -1.6894164763    -0.2613217338
    3      C       4.5802476627    -0.5302755338    -0.4232897507
    4      C       4.0379460070     0.9571272033    -0.4100805800
    5      C       2.5129321658     1.1183685248    -0.0940903657
    6      O       1.7661761040     0.9181338033    -1.2928213803
    7      C       0.3485315355     0.6209294673    -1.0076489438
    8      C      -0.5699319959     1.8055171641    -1.4759099979
    9      O      -1.9787803458     1.3766776032    -1.5731969732
   10      C      -2.6567665983     1.5343393607    -0.3253558090
   11      C      -4.1325905540     1.0332699615    -0.5042913893
   12      C      -4.3240686717    -0.5283328873    -0.4738444713
   13      C      -3.0570037003    -1.2796982679     0.0458174003
   14      O      -1.9440328065    -0.7803242333     0.3241264340
   15      O       2.5232715694    -1.5940534850    -1.2506272149
   16      O      -3.3377410206    -2.6661310918     0.1536989965
   17      O      -2.1837503327     2.1222372532     0.6701374062
   18      C      -2.1673820876    -3.4043398988     0.6429802588
   19      C      -5.0659747522     1.4636705388     0.7051261112
   20      C      -6.5565920437     1.4642638233     0.1961320428
   21      C      -6.8109612498    -0.0722087626     0.0147584226
   22      C      -5.4734337186    -0.6636685401     0.6082144978
   23      O      -5.0500028503     0.3134953095     1.6286558163
   24      H      -4.5270705438     1.4733357478    -1.4381883392
   25      H      -4.6007229613    -0.9548689638    -1.4555402320
   26      H      -4.7638532305     2.4155860962     1.1831401885
   27      H      -7.1945650680     1.8464868527     1.0107672783
   28      H      -6.7316139715     2.0742121987    -0.7047409615
   29      H      -7.6784714698    -0.3892801396     0.6156668747
   30      H      -6.9597757422    -0.3857248864    -1.0311356727
   31      H      -5.5749396165    -1.6930919481     1.0044896516
   32      O       2.0108136722     1.4640459164     0.9966864789
   33      C       1.6125096840    -2.7417289241    -1.1719201720
[...]
     15  O         2.1179812471   -1.3564044565   -0.3211650686
     16  O        -3.3105631037   -2.7345988263   -0.3659528008
     17  O        -2.1027704887    2.0348310320    0.7561528572
     18  C        -2.1657838851   -3.6155039514   -0.0432008142
     19  C        -4.9966375372    1.3506339046    0.7244286822
     20  C        -6.4904777244    1.3350304121    0.2182705857
     21  C        -6.7047687525   -0.2054762984   -0.0270769252
     22  C        -5.3214676078   -0.7912303288    0.4634586800
     23  O        -4.9081516102    0.1234400309    1.5507431810
     24  H        -4.4455712680    1.5315761629   -1.4329777470
     25  H        -4.5716447766   -0.8115053597   -1.6552072610
     26  H        -4.6927280101    2.2356062028    1.3162865646
     27  H        -7.1653016629    1.7146708581    1.0020559033
     28  H        -6.6312092248    1.9373277785   -0.6935537807
     29  H        -7.5300283774   -0.6041002764    0.5838906366
     30  H        -6.9013366402   -0.4441575744   -1.0845909733
     31  H        -5.3486250676   -1.8400052322    0.8178551166
     32  O         1.9523006065    1.2589738873    1.0693719224
     33  C         1.1412707457   -2.2781340578    0.3055719053
     34  C         5.7421631397   -0.6370442765    0.4318590797
     35  C         6.8908647495    0.2504335832   -0.1905033599
     36  C         6.4003345498    1.7003420633    0.1799021048
     37  C         4.9991122654    1.3788727288    0.8305808847
     38  O         5.2714056819    0.1443449694    1.6023832093
     39  H         4.6882109900   -0.8500631349   -1.5590952647
     40  H         4.2532525949    1.4521781174   -1.2728525622
     41  H         1.3348939501   -2.3912383093    1.3908290776
     42  H         6.0350703891   -1.6582127317    0.7448992798
     43  H         7.8590168948    0.0170510313    0.2797024844
     44  H         6.9826079870    0.1000887707   -1.2783860006
     45  H         7.0662723291    2.1713368515    0.9206418818
     46  H         6.3194253006    2.3634369353   -0.6961055935
     47  H         4.5776062794    2.1628764874    1.4890764915
     48  H         1.1836570701   -3.2817430661   -0.1651853710
     49  H         0.1390996014   -1.8260313709    0.1459213439
     50  H        -2.5774284579   -4.6402335699    0.0105287791
     51  H        -1.7048156402   -3.3494394723    0.9293097217
     52  H        -1.3864216902   -3.5749541894   -0.8312127898
     53  H        -0.4644806596    2.8291114517   -0.6310804523
     54  H        -0.2508129699    2.4973032072   -2.4068886897
     55  H         0.1946219210    0.5376311555   -0.0317786801
     56  H         0.0936276617   -0.0129987037   -1.7544884157
   Point Group: c1    Number of degrees of freedom:   162


   Energy is  -1510.285101340

              Constraints and their Current Values
                                        Value     Constraint
   Dihedral:        1   2   3   4     -134.895     -134.895
   Dihedral:        3   4   5   6      -83.245      -83.245
   Dihedral:        4   5   6   7      161.508      161.508
   Dihedral:        5   6   7   8      111.653      111.653
   Dihedral:        6   7   8   9      163.145      163.145
   Dihedral:        7   8   9  10       88.025       88.025
   Dihedral:        8   9  10  11     -178.926     -178.926
   Dihedral:        9  10  11  12       78.677       78.677
   Dihedral:       11  12  13  14       -5.530       -5.530
 Hessian Updated using BFGS Update

153 Hessian modes will be used to form the next step
  Hessian Eigenvalues:
     0.005339    0.009023    0.011031    0.023126    0.033517    0.041140
     0.045219    0.045530    0.045571    0.046384    0.047657    0.048911
     0.052413    0.054006    0.059685    0.060196    0.063655    0.064766
     0.065603    0.067254    0.067741    0.069245    0.070506    0.071949
     0.073912    0.075508    0.075618    0.076337    0.078124    0.079978
     0.082277    0.083073    0.083156    0.083847    0.084327    0.085007
     0.085170    0.085868    0.086336    0.087227    0.087860    0.088702
     0.089035    0.089261    0.089711    0.090499    0.092437    0.093197
     0.093759    0.094206    0.096654    0.096799    0.111525    0.111602
     0.114490    0.115866    0.115990    0.117073    0.117181    0.118601
     0.120062    0.121102    0.123329    0.124128    0.125714    0.131061
     0.131616    0.151242    0.154810    0.159576    0.160171    0.160316
     0.160613    0.160809    0.162446    0.167871    0.172070    0.173606
     0.192242    0.204874    0.221978    0.236013    0.238545    0.241205
     0.245138    0.247578    0.248737    0.249325    0.252926    0.257796
     0.259720    0.266641    0.267181    0.271864    0.273593    0.280021
     0.281304    0.282858    0.293790    0.295547    0.297110    0.300335
     0.305432    0.308353    0.312981    0.316663    0.319412    0.321094
     0.321926    0.322278    0.322455    0.322677    0.322833    0.323010
     0.323375    0.323525    0.323627    0.323973    0.324086    0.324204
     0.324366    0.324516    0.324581    0.324699    0.324919    0.325110
     0.325330    0.326426    0.326679    0.327345    0.329707    0.330253
     0.339670    0.351554    0.367981    0.370455    0.378027    0.386829
     0.406179    0.419250    0.444094    0.465122    0.494596    0.518047
     0.526583    0.559136    0.577019    0.902710    0.926974    0.930677
     0.943456    1.007661    1.020309

 Minimum Search - Taking Simple RFO Step
 Searching for Lamda that Minimizes Along All modes
 Value Taken    Lamda =   0.00000000
 Step Taken.  Stepsize is  0.004540

                             Maximum     Tolerance    Cnvgd?
         Gradient           0.000104      0.000300     YES
         Displacement       0.002916      0.001200      NO
         Energy change     -0.000001      0.000001     YES

 Final energy is   -1510.28510134002     


 ******************************
 **  OPTIMIZATION CONVERGED  **
 ******************************

                       Coordinates (Angstroms)
     ATOM                X               Y               Z
      1  O         3.7509696474   -2.6798849508    0.7584223969
      2  C         3.4528896066   -1.6824848114    0.0661804131
      3  C         4.4642880402   -0.6113580026   -0.5029110946
      4  C         4.0290690397    0.9103626968   -0.3361395716
      5  C         2.5061195115    1.1139097942   -0.0408675014
      6  O         1.8149709034    1.0854321781   -1.3027620050
      7  C         0.3752503553    0.8272178098   -1.0862914632
      8  C        -0.5343722210    2.0596856475   -1.4282733668
      9  O        -1.9328283544    1.5819626133   -1.5737786265
     10  C        -2.5965439641    1.5887464222   -0.3008746874
     11  C        -4.0554938714    1.0490270584   -0.5185352665
     12  C        -4.2165546455   -0.5204502734   -0.6497032202
     13  C        -2.9289834811   -1.3577680217   -0.3250553281
     14  O        -1.7728791084   -0.9516822688   -0.0688587477
     15  O         2.1179812471   -1.3564044565   -0.3211650686
     16  O        -3.3105631037   -2.7345988263   -0.3659528008
     17  O        -2.1027704887    2.0348310320    0.7561528572
     18  C        -2.1657838851   -3.6155039514   -0.0432008142
     19  C        -4.9966375372    1.3506339046    0.7244286822
     20  C        -6.4904777244    1.3350304121    0.2182705857
     21  C        -6.7047687525   -0.2054762984   -0.0270769252
     22  C        -5.3214676078   -0.7912303288    0.4634586800
     23  O        -4.9081516102    0.1234400309    1.5507431810
     24  H        -4.4455712680    1.5315761629   -1.4329777470
     25  H        -4.5716447766   -0.8115053597   -1.6552072610
     26  H        -4.6927280101    2.2356062028    1.3162865646
     27  H        -7.1653016629    1.7146708581    1.0020559033
     28  H        -6.6312092248    1.9373277785   -0.6935537807
     29  H        -7.5300283774   -0.6041002764    0.5838906366
     30  H        -6.9013366402   -0.4441575744   -1.0845909733
     31  H        -5.3486250676   -1.8400052322    0.8178551166
     32  O         1.9523006065    1.2589738873    1.0693719224
     33  C         1.1412707457   -2.2781340578    0.3055719053
     34  C         5.7421631397   -0.6370442765    0.4318590797
     35  C         6.8908647495    0.2504335832   -0.1905033599
     36  C         6.4003345498    1.7003420633    0.1799021048
     37  C         4.9991122654    1.3788727288    0.8305808847
     38  O         5.2714056819    0.1443449694    1.6023832093
     39  H         4.6882109900   -0.8500631349   -1.5590952647
     40  H         4.2532525949    1.4521781174   -1.2728525622
     41  H         1.3348939501   -2.3912383093    1.3908290776
     42  H         6.0350703891   -1.6582127317    0.7448992798
     43  H         7.8590168948    0.0170510313    0.2797024844
     44  H         6.9826079870    0.1000887707   -1.2783860006
     45  H         7.0662723291    2.1713368515    0.9206418818
     46  H         6.3194253006    2.3634369353   -0.6961055935
     47  H         4.5776062794    2.1628764874    1.4890764915
     48  H         1.1836570701   -3.2817430661   -0.1651853710
     49  H         0.1390996014   -1.8260313709    0.1459213439
     50  H        -2.5774284579   -4.6402335699    0.0105287791
     51  H        -1.7048156402   -3.3494394723    0.9293097217
     52  H        -1.3864216902   -3.5749541894   -0.8312127898
     53  H        -0.4644806596    2.8291114517   -0.6310804523
     54  H        -0.2508129699    2.4973032072   -2.4068886897
     55  H         0.1946219210    0.5376311555   -0.0317786801
     56  H         0.0936276617   -0.0129987037   -1.7544884157

Z-matrix Print:
$molecule
0 1
O 
C  1 1.251846
O  2 1.429314 1 124.394174
C  3 1.480095 2 111.136359 1 0.968980 0
H  4 1.105626 3 105.917226 2 173.918185 0
H  4 1.108629 3 111.718795 2 54.699780 0
H  4 1.109059 3 111.519809 2 -67.306243 0
C  2 1.569821 1 128.812411 3 179.727072 0
H  8 1.105369 2 108.129101 1 120.265384 0
C  8 1.583163 2 115.353203 1 -5.529953 0
H  10 1.105088 8 109.172773 2 130.375109 0
C  10 1.570735 8 116.526622 2 9.065685 0
O  12 1.249044 10 127.385427 8 -105.770164 0
O  12 1.435566 10 107.754511 8 78.677007 0
C  14 1.484948 12 110.304167 10 -178.926011 0
H  15 1.108875 14 106.338423 12 -152.913543 0
H  15 1.110143 14 110.648124 12 -33.330520 0
C  15 1.569504 14 108.332330 12 88.024977 0
H  18 1.108370 15 108.543298 14 -74.247133 0
H  18 1.109848 15 108.435566 14 44.620039 0
O  18 1.478624 15 113.283538 14 163.145045 0
C  21 1.439054 18 110.042820 15 111.653005 0
O  22 1.249156 21 124.662278 18 -17.621204 0
C  22 1.564606 21 107.423464 18 161.507950 0
H  24 1.105103 22 107.076066 21 37.449922 0
C  10 1.587979 8 101.118927 2 -112.754121 0
H  26 1.107173 10 114.051301 8 151.308002 0
O  26 1.482103 10 104.107812 8 31.013929 0
C  28 1.479743 26 94.903557 10 -55.462625 0
H  29 1.107368 28 110.923218 26 -179.799303 0
C  26 1.577339 10 107.953247 8 -78.118629 0
H  31 1.101741 26 110.388776 10 -169.908408 0
H  31 1.101813 26 112.403043 10 -48.244068 0
C  31 1.574572 26 100.869335 10 72.221951 0
H  34 1.101470 31 111.691515 26 120.669483 0
H  34 1.101791 31 112.692210 26 -116.647435 0
C  24 1.587993 22 114.680642 21 160.744147 0
H  37 1.107224 24 114.413169 22 -25.389630 0
O  37 1.481176 24 104.432260 22 95.540763 0
C  39 1.484018 37 94.943521 24 54.334317 0
H  40 1.107508 39 110.269791 37 179.528138 0
C  37 1.578021 24 107.432001 22 -155.769574 0
H  42 1.101649 37 112.661555 24 49.914091 0
H  42 1.101819 37 110.276779 24 171.641232 0
C  42 1.574819 37 100.720090 24 -70.696160 0
H  45 1.101308 42 111.623579 37 -122.653752 0
H  45 1.102048 42 112.563973 37 114.884136 0
C  40 1.583483 39 101.600356 37 -60.078433 0
H  48 1.105734 40 113.387234 39 161.273323 0
C  48 1.579273 40 107.043330 39 -78.345128 0
O  50 1.250143 48 126.012144 40 -24.350678 0
O  50 1.427706 48 110.250333 40 155.614604 0
C  52 1.482008 50 111.064886 48 -174.792951 0
H  53 1.108181 52 111.252409 50 47.937696 0
H  53 1.109342 52 110.979084 50 -72.920473 0
H  53 1.110960 52 106.298243 50 167.519506 0
$end

 
 --------------------------------------------------------------
 
                    Orbital Energies (a.u.)
 --------------------------------------------------------------
 
 Alpha MOs
 -- Occupied --
-18.948 -18.933 -18.925 -18.917 -18.894 -18.889 -18.880 -18.872
-18.871 -18.866 -10.115 -10.096 -10.096 -10.092 -10.075 -10.063
-10.061 -10.059 -10.053 -10.053 -10.053 -10.053 -10.045 -10.037
-10.035 -10.031 -10.023 -10.021 -10.017 -10.015  -1.025  -1.011
 -1.005  -0.996  -0.973  -0.964  -0.951  -0.933  -0.932  -0.925
 -0.766  -0.758  -0.727  -0.720  -0.712  -0.701  -0.689  -0.673
 -0.656  -0.614  -0.597  -0.577  -0.546  -0.540  -0.538  -0.533
 -0.517  -0.503  -0.481  -0.475  -0.467  -0.456  -0.454  -0.445
 -0.435  -0.429  -0.423  -0.422  -0.415  -0.408  -0.407  -0.390
 -0.389  -0.382  -0.372  -0.368  -0.361  -0.359  -0.349  -0.346
 -0.342  -0.338  -0.335  -0.329  -0.327  -0.324  -0.323  -0.316
 -0.310  -0.305  -0.303  -0.301  -0.291  -0.285  -0.279  -0.277
 -0.268  -0.263  -0.247  -0.242  -0.237  -0.237  -0.229  -0.191
 -0.178  -0.174  -0.169  -0.156  -0.153  -0.149  -0.147  -0.144
 -0.139
 -- Virtual --
  0.086   0.099   0.105   0.114   0.218   0.235   0.240   0.249
  0.263   0.279   0.284   0.291   0.303   0.313   0.326   0.330
  0.336   0.339   0.349   0.351   0.358   0.365   0.368   0.376
  0.382   0.385   0.388   0.401   0.403   0.407   0.409   0.413
  0.414   0.415   0.418   0.420   0.422   0.424   0.428   0.431
  0.435   0.438   0.441   0.443   0.445   0.450   0.455   0.465
  0.470   0.483   0.487   0.492   0.502   0.504   0.510   0.538
  0.545   0.550   0.557   0.635   0.640   0.651   0.660
 --------------------------------------------------------------
 
          Ground-State Mulliken Net Atomic Charges

     Atom                 Charge (a.u.)
  ----------------------------------------
      1 O                    -0.212373
      2 C                     0.211223
      3 C                    -0.076291
      4 C                    -0.080582
      5 C                     0.216252
      6 O                    -0.177060
      7 C                    -0.051597
      8 C                    -0.053060
      9 O                    -0.176226
     10 C                     0.213221
     11 C                    -0.081529
     12 C                    -0.076370
     13 C                     0.218406
     14 O                    -0.211139
     15 O                    -0.171526
     16 O                    -0.168799
     17 O                    -0.209926
     18 C                    -0.129013
     19 C                     0.024689
     20 C                    -0.143369
     21 C                    -0.144434
     22 C                     0.024751
     23 O                    -0.189449
     24 H                     0.084509
     25 H                     0.088108
     26 H                     0.090374
     27 H                     0.078774
     28 H                     0.073491
     29 H                     0.078843
     30 H                     0.073523
     31 H                     0.087507
     32 O                    -0.212228
     33 C                    -0.137762
     34 C                     0.023273
     35 C                    -0.145430
     36 C                    -0.142595
     37 C                     0.023633
     38 O                    -0.189643
     39 H                     0.084584
     40 H                     0.083512
     41 H                     0.091387
     42 H                     0.090175
     43 H                     0.077802
     44 H                     0.072285
     45 H                     0.077508
     46 H                     0.072406
     47 H                     0.087371
     48 H                     0.078816
     49 H                     0.105963
     50 H                     0.094315
     51 H                     0.093189
     52 H                     0.088328
     53 H                     0.095255
     54 H                     0.085435
     55 H                     0.107020
     56 H                     0.084471
  ----------------------------------------
  Sum of atomic charges =    -0.000000

 -----------------------------------------------------------------
                    Cartesian Multipole Moments
 -----------------------------------------------------------------
    Charge (ESU x 10^10)
                 0.0000
    Dipole Moment (Debye)
         X      -1.9320      Y      -0.7863      Z      -3.9951
       Tot       4.5069
    Quadrupole Moments (Debye-Ang)
        XX    -140.5218     XY       6.9853     YY    -152.7837
        XZ      -3.3890     YZ      -1.3442     ZZ    -167.1594
    Octopole Moments (Debye-Ang^2)
       XXX     -35.2819    XXY      42.4055    XYY     -23.8790
       YYY      -6.9499    XXZ     -61.8191    XYZ      12.9482
       YYZ      -1.1976    XZZ      -7.6039    YZZ      -2.6357
       ZZZ       2.9234
    Hexadecapole Moments (Debye-Ang^3)
      XXXX  -15773.4590   XXXY     -29.6005   XXYY   -3213.4564
      XYYY      28.2828   YYYY   -2504.5790   XXXZ    -212.3001
      XXYZ      55.3358   XYYZ     -72.3657   YYYZ      76.5513
      XXZZ   -3023.1851   XYZZ     -15.5235   YYZZ    -555.3381
      XZZZ    -127.4571   YZZZ      71.8686   ZZZZ    -768.7800
 -----------------------------------------------------------------
Archival summary:
1\1\vega02.cac.cornell.edu\OPT\ProcedureUnspecified\STO-3G\102026\jj585\TueJan1618:22:352018TueJan1618:22:352018\0\\#,OPT,ProcedureUnspecified,STO-3G,\\0,1\O\C,1,1.25185\O,2,1.42931,1,124.394\C,3,1.4801,2,111.136,1,0.96898,0\H,4,1.10563,3,105.917,2,173.918,0\H,4,1.10863,3,111.719,2,54.6998,0\H,4,1.10906,3,111.52,2,-67.3062,0\C,2,1.56982,1,128.812,3,179.727,0\H,8,1.10537,2,108.129,1,120.265,0\C,8,1.58316,2,115.353,1,-5.52995,0\H,10,1.10509,8,109.173,2,130.375,0\C,10,1.57073,8,116.527,2,9.06568,0\O,12,1.24904,10,127.385,8,-105.77,0\O,12,1.43557,10,107.755,8,78.677,0\C,14,1.48495,12,110.304,10,-178.926,0\H,15,1.10887,14,106.338,12,-152.914,0\H,15,1.11014,14,110.648,12,-33.3305,0\C,15,1.5695,14,108.332,12,88.025,0\H,18,1.10837,15,108.543,14,-74.2471,0\H,18,1.10985,15,108.436,14,44.62,0\O,18,1.47862,15,113.284,14,163.145,0\C,21,1.43905,18,110.043,15,111.653,0\O,22,1.24916,21,124.662,18,-17.6212,0\C,22,1.56461,21,107.423,18,161.508,0\H,24,1.1051,22,107.076,21,37.4499,0\C,10,1.58798,8,101.119,2,-112.754,0\H,26,1.10717,10,114.051,8,151.308,0\O,26,1.4821,10,104.108,8,31.0139,0\C,28,1.47974,26,94.9036,10,-55.4626,0\H,29,1.10737,28,110.923,26,-179.799,0\C,26,1.57734,10,107.953,8,-78.1186,0\H,31,1.10174,26,110.389,10,-169.908,0\H,31,1.10181,26,112.403,10,-48.2441,0\C,31,1.57457,26,100.869,10,72.222,0\H,34,1.10147,31,111.692,26,120.669,0\H,34,1.10179,31,112.692,26,-116.647,0\C,24,1.58799,22,114.681,21,160.744,0\H,37,1.10722,24,114.413,22,-25.3896,0\O,37,1.48118,24,104.432,22,95.5408,0\C,39,1.48402,37,94.9435,24,54.3343,0\H,40,1.10751,39,110.27,37,179.528,0\C,37,1.57802,24,107.432,22,-155.77,0\H,42,1.10165,37,112.662,24,49.9141,0\H,42,1.10182,37,110.277,24,171.641,0\C,42,1.57482,37,100.72,24,-70.6962,0\H,45,1.10131,42,111.624,37,-122.654,0\H,45,1.10205,42,112.564,37,114.884,0\C,40,1.58348,39,101.6,37,-60.0784,0\H,48,1.10573,40,113.387,39,161.273,0\C,48,1.57927,40,107.043,39,-78.3451,0\O,50,1.25014,48,126.012,40,-24.3507,0\O,50,1.42771,48,110.25,40,155.615,0\C,52,1.48201,50,111.065,48,-174.793,0\H,53,1.10818,52,111.252,50,47.9377,0\H,53,1.10934,52,110.979,50,-72.9205,0\H,53,1.11096,52,106.298,50,167.52,0\\\@

 Total job time:  77.65s(wall), 3694.50s(cpu) 
 Tue Jan 16 18:22:35 2018

        *************************************************************
        *                                                           *
        *  Thank you very much for using Q-Chem.  Have a nice day.  *
        *                                                           *
        *************************************************************


0 sent ACK to 0 
now end server 0 ... 
