mFile = /opt/software/qchem/qchem-5.0.1//bin/mpi/machines
Process 0 of 1 is on vega02.cac.cornell.edu - thread support 0
initial socket setup ...start
initial socket setup ...done 
now start server 0 ... 
vega02.cac.cornell.edu 10.84.3
Q-Chem Developer Version! Running on 10.84.3.*
                  Welcome to Q-Chem
     A Quantum Leap Into The Future Of Chemistry


 Q-Chem 5.0, Q-Chem, Inc., Pleasanton, CA (2017)

 Yihan Shao,  Zhengting Gan,  E. Epifanovsky,  A. T. B. Gilbert,  M. Wormit,  
 J. Kussmann,  A. W. Lange,  A. Behn,  Jia Deng,  Xintian Feng,  D. Ghosh,  
 M. Goldey,  P. R. Horn,  L. D. Jacobson,  I. Kaliman,  T. Kus,  A. Landau,  
 Jie Liu,  E. I. Proynov,  R. M. Richard,  R. P. Steele,  E. J. Sundstrom,  
 H. L. Woodcock III,  P. M. Zimmerman,  D. Zuev,  B. Albrecht,  E. Alguire,  
 S. A. Baeppler,  Z. Benda,  Y. A. Bernard,  E. J. Berquist,  K. B. Bravaya,  
 D. Casanova,  Chun-Min Chang,  Yunqing Chen,  A. Chien,  K. D. Closser,  
 M. P. Coons,  S. Dasgupta,  M. Diedenhofen,  Hainam Do,  R. G. Edgar,  
 Po-Tung Fang,  S. Fatehi,  Qingguo Feng,  Qinghui Ge,  A. Ghysels,  
 J. Gomes,  J. Gonthier,  A. Gunina,  M. W. D. Hanson-Heine,  
 P. H. P. Harbach,  A. W. Hauser,  J. E. Herr,  E. G. Hohenstein,  
 Z. C. Holden,  Kerwin Hui,  T.-C. Jagau,  Hyunjun Ji,  B. Kaduk,  
 K. Khistyaev,  Jaehoon Kim,  P. Klunzinger,  K. Koh,  D. Kosenkov,  
 T. Kowalczyk,  C. M. Krauter,  A. Kunitsa,  Ka Un Lao,  A. Laurent,  
 K. V. Lawler,  Joonho Lee,  D. Lefrancois,  S. Lehtola,  D. S. Levine,  
 Yi-Pei Li,  You-Sheng Lin,  Fenglai Liu,  E. Livshits,  A. Luenser,  
 P. Manohar,  E. Mansoor,  S. F. Manzer,  Shan-Ping Mao,  Yuezhi Mao,  
 N. Mardirossian,  A. V. Marenich,  L. A. Martinez-Martinez,  S. A. Maurer,  
 N. J. Mayhall,  S. C. McKenzie,  J.-M. Mewes,  A. F. Morrison,  K. Nanda,  
 T. S. Nguyen-Beck,  R. Olivares-Amaya,  J. A. Parkhill,  T. M. Perrine,  
 F. Plasser,  S. Prager,  A. Prociuk,  D. R. Rehn,  F. Rob,  M. Schneider,  
 N. Sergueev,  S. M. Sharada,  S. Sharma,  D. W. Small,  T. Stauch,  
 T. Stein,  Yu-Chuan Su,  A. J. W. Thom,  T. Tsuchimochi,  L. Vogt,  
 O. Vydrov,  M. A. Watson,  J. Wenzel,  M. de Wergifosse,  T. A. Wesolowski,  
 A. White,  J. Witte,  A. Yamada,  Jun Yang,  K. Yao,  S. Yeganeh,  
 S. R. Yost,  Zhi-Qiang You,  A. Zech,  Igor Ying Zhang,  Xing Zhang,  
 Yan Zhao,  Ying Zhu,  B. R. Brooks,  G. K. L. Chan,  C. J. Cramer,  
 M. S. Gordon,  W. J. Hehre,  A. Klamt,  M. W. Schmidt,  C. D. Sherrill,  
 D. G. Truhlar,  A. Aspuru-Guzik,  R. Baer,  A. T. Bell,  N. A. Besley,  
 Jeng-Da Chai,  A. Dreuw,  B. D. Dunietz,  T. R. Furlani,  Chao-Ping Hsu,  
 Yousung Jung,  Jing Kong,  D. S. Lambrecht,  WanZhen Liang,  C. Ochsenfeld,  
 V. A. Rassolov,  L. V. Slipchenko,  J. E. Subotnik,  T. Van Voorhis,  
 J. M. Herbert,  A. I. Krylov,  P. M. W. Gill,  M. Head-Gordon

 Contributors to earlier versions of Q-Chem not listed above: 
 R. D. Adamson,  B. Austin,  J. Baker,  G. J. O. Beran,  K. Brandhorst,  
 S. T. Brown,  E. F. C. Byrd,  A. K. Chakraborty,  C.-L. Cheng,  
 Siu Hung Chien,  D. M. Chipman,  D. L. Crittenden,  H. Dachsel,  
 R. A. DiStasio Jr.,  R. J. Doerksen,  A. D. Dutoi,  L. Fusti-Molnar,  
 W. A. Goddard III,  A. Golubeva-Zadorozhnaya,  S. R. Gwaltney,  G. Hawkins,  
 A. Heyden,  S. Hirata,  G. Kedziora,  F. J. Keil,  C. Kelley,  Jihan Kim,  
 R. A. King,  R. Z. Khaliullin,  P. P. Korambath,  W. Kurlancheek,  
 A. M. Lee,  M. S. Lee,  S. V. Levchenko,  Ching Yeh Lin,  D. Liotard,  
 R. C. Lochan,  I. Lotan,  P. E. Maslen,  N. Nair,  D. P. O'Neill,  
 D. Neuhauser,  E. Neuscamman,  C. M. Oana,  R. Olson,  B. Peters,  
 R. Peverati,  P. A. Pieniazek,  Y. M. Rhee,  J. Ritchie,  M. A. Rohrdanz,  
 E. Rosta,  N. J. Russ,  H. F. Schaefer III,  N. E. Schultz,  N. Shenvi,  
 A. C. Simmonett,  A. Sodt,  D. Stuck,  K. S. Thanthiriwatte,  V. Vanovschi,  
 Tao Wang,  A. Warshel,  C. F. Williams,  Q. Wu,  X. Xu,  W. Zhang

 Please cite Q-Chem as follows:
 Y. Shao et al., Mol. Phys. 113, 184-215 (2015)
 DOI: 10.1080/00268976.2014.952696

 Q-Chem 5.0.1 for Intel X86 EM64T Linux

 Parts of Q-Chem use Armadillo 5.200.1 (Boston Tea Smuggler).
 http://arma.sourceforge.net/

 Q-Chem begins on Tue Jan 16 18:40:09 2018  

Host: vega02.cac.cornell.edu
0

     Scratch files written to /scratch/jj585/SOT1001/1234c.save//
 Parallel job on  1  processors

Checking the input file for inconsistencies... 	...done.

--------------------------------------------------------------
User input:
--------------------------------------------------------------
$molecule
0  1
O -3.94934 -3.66094 2.70899
C -3.26408 -4.56952 2.26188
C -3.36658 -6.02376 2.66595
C -2.06761 -6.72831 3.09038
C -0.84188 -5.85364 3.234
O -0.2692 -5.65283 2.01042
C 0.53757 -4.47168 1.95329
C 2.01607 -4.84549 1.93273
O 2.79998 -3.71856 1.51037
C 2.90369 -2.70998 2.41101
C 3.72892 -1.55118 1.90423
C 3.00346 -0.62091 0.92108
C 1.4958 -0.76439 0.86567
O 0.79325 -1.21386 1.75952
O -2.49916 -4.32086 1.1699
O 0.90401 -0.11451 -0.17132
O 2.52485 -2.79652 3.57383
C -0.45525 -0.00288 -0.36246
C 4.11099 -0.52201 2.99709
C 5.35688 0.24987 2.56311
C 4.7887 1.09659 1.44297
C 3.30214 0.7429 1.56202
O 3.11758 0.47061 2.92934
H 4.67758 -1.97498 1.50299
H 3.38744 -0.74231 -0.1159
H 4.28192 -0.97646 3.99724
H 5.62914 0.91989 3.41037
H 6.24018 -0.36678 2.29059
H 4.96775 2.16731 1.68649
H 5.1765 0.86379 0.42745
H 2.67157 1.55592 1.13833
O -0.35083 -5.4891 4.29688
C -2.39766 -3.09236 0.55649
C -4.23718 -6.22635 3.92054
C -4.75212 -7.66464 3.9774
C -3.48805 -8.39877 4.36365
C -2.51154 -7.22595 4.48678
O -3.31201 -6.17783 4.97565
H -3.82877 -6.54066 1.79533
H -1.79201 -7.60443 2.46099
H -1.98161 -2.34614 1.26669
H -5.09364 -5.52041 3.98452
H -5.47593 -7.73995 4.82019
H -5.23724 -8.01209 3.03984
H -3.64134 -8.85654 5.36669
H -3.14707 -9.17449 3.64454
H -1.65317 -7.52444 5.12856
H -3.39466 -2.75793 0.19835
H -1.72141 -3.18629 -0.31693
H -0.64481 0.60323 -1.27184
H -0.92756 0.49947 0.50859
H -0.89817 -1.00426 -0.51315
H 2.3633 -5.27033 2.9008
H 2.14549 -5.62983 1.15677
H 0.3214 -3.73538 2.7603
H 0.29405 -3.96385 0.99715
$end

$opt
CONSTRAINT
tors           1           2           3           4    -128.202
tors           3           4           5           6     -82.361
tors           4           5           6           7    +157.067
tors           5           6           7           8    +106.626
tors           6           7           8           9    +164.218
tors           7           8           9          10     +71.907
tors           8           9          10          11    -179.503
tors           9          10          11          12     +77.904
tors          11          12          13          14     +23.559
ENDCONSTRAINT
$end

$rem
JOBTYPE                   OPT
METHOD                    B3LYP
DFT_D                     d3_op
BASIS                     STO-3G
GEOM_OPT_MAX_CYCLES       100
GEOM_OPT_TOL_GRADIENT     300
GEOM_OPT_TOL_DISPLACEMENT 1200
GEOM_OPT_TOL_ENERGY       100
SYMMETRY                  False
THRESH                    12
SCF_CONVERGENCE           8
MAX_SUB_FILE_NUM          128
MEM_STATIC                400
MEM_TOTAL                 4000
$end
--------------------------------------------------------------
 Adding empirical dispersion correction 
 ----------------------------------------------------------------
 Doing -D3(op) with
 s6 =   1.00000
 s8 =   0.78311
 a1 =   0.30000
 a2 =   4.25000
 n  =  10.00000
 -D3 energy without 3body term =     -0.0700743951 hartrees
 ----------------------------------------------------------------
             Standard Nuclear Orientation (Angstroms)
    I     Atom           X                Y                Z
 ----------------------------------------------------------------
    1      O      -3.1549241743     2.2686575022     1.2478078707
    2      C      -3.1882716294     1.6054919732     0.2211113895
    3      C      -4.3196169517     0.6909772623    -0.1939951001
    4      C      -3.9518109036    -0.7510550333    -0.5801507135
    5      C      -2.5184579404    -1.1693478857    -0.3380376853
    6      O      -1.7315066720    -0.7492872606    -1.3722967569
    7      C      -0.3507872765    -0.6255934784    -1.0151262214
    8      C       0.4560056909    -1.7626356730    -1.6334619193
    9      O       1.8567016754    -1.4476281479    -1.5922903213
   10      C       2.4294405908    -1.4962004795    -0.3639773914
   11      C       3.8978340692    -1.1440350247    -0.3851444916
   12      C       4.2019225625     0.3578546905    -0.4858215923
   13      C       3.0416521852     1.2880005287    -0.1937653896
   14      O       2.0605810937     1.0076082449     0.4796195570
   15      O      -2.2583026429     1.8524906569    -0.7346626721
   16      O       3.2632276993     2.5883223169    -0.5223612164
   17      O       1.8696131958    -1.9481082056     0.6287622343
   18      C       2.4073141134     3.6310236750    -0.2452884543
   19      C       4.6445860077    -1.4693880246     0.9324359884
   20      C       6.1382179277    -1.6303250036     0.6504036442
   21      C       6.5255354287    -0.1965577439     0.3524548418
   22      C       5.2042245519     0.5131683261     0.6679807906
   23      O       4.6172834444    -0.2751312171     1.6738894279
   24      H       4.3690916520    -1.7515490952    -1.1909972809
   25      H       4.6005396602     0.6280721689    -1.4886142152
   26      H       4.2617138423    -2.3759488406     1.4497350138
   27      H       6.6141061358    -1.9334160106     1.6109077153
   28      H       6.4075775769    -2.3677940735    -0.1359347137
   29      H       7.3246233440     0.1067014281     1.0647009998
   30      H       6.8476988866     0.0013879708    -0.6929607459
   31      H       5.3857158487     1.5794523794     0.9291942823
   32      O      -2.1349287959    -1.8929881492     0.5746416521
   33      C      -1.2377669487     2.7678822635    -0.6067899559
   34      C      -5.3263314104     0.4449854814     0.9457404739
   35      C      -6.6718442086    -0.0003634855     0.3727361156
   36      C      -6.3412049275    -1.4138064688    -0.0501887984
   37      C      -4.8809728184    -1.5050536257     0.4010712966
   38      O      -4.8442516450    -0.7185239425     1.5665429802
   39      H      -4.8233016277     1.2092165488    -1.0404667060
   40      H      -4.2190863748    -1.0307134514    -1.6241949550
   41      H      -0.5808397447     2.4882749628     0.2444399407
   42      H      -5.4749915436     1.3283007296     1.6042408859
   43      H      -7.4063249808    -0.0443512912     1.2084816298
   44      H      -7.0646104595     0.6580824012    -0.4317919181
   45      H      -6.9580256721    -2.1143565654     0.5563605976
   46      H      -6.4764963544    -1.6333287066    -1.1312226960
   47      H      -4.5975305762    -2.5737807108     0.5246019339
   48      H      -1.6523578235     3.7858132216    -0.4453970951
   49      H      -0.6448869696     2.7719666848    -1.5435268729
   50      H       2.8608028025     4.5774069453    -0.6044277373
   51      H       2.2349124651     3.7084132683     0.8494484472
   52      H       1.4482470319     3.4820902785    -0.7741142134
   53      H       0.2251177009    -2.7497000332    -1.1745371886
   54      H       0.1754152503    -1.8181635774    -2.7068855775
   55      H      -0.1705265380    -0.5563671326     0.0816171753
   56      H       0.0074623635     0.3308624724    -1.4489997149
 ----------------------------------------------------------------
 Molecular Point Group                 C1    NOp =  1
 Largest Abelian Subgroup              C1    NOp =  1
 Nuclear Repulsion Energy =  3206.6107233131 hartrees
 There are      113 alpha and      113 beta electrons
 Requested basis set is STO-3G
 There are 86 shells and 176 basis functions

 Total QAlloc Memory Limit   4000 MB
 Mega-Array Size       392 MB
 MEM_STATIC part       400 MB
 A cutoff of  1.0D-12 yielded   2185 shell pairs
 There are     10372 function pairs
 
 -------------------------------------------------------
 OpenMP Integral Computing Module                       
 Release: version 1.0, May 2013, Q-Chem Inc. Pittsburgh 
 -------------------------------------------------------
 Integral Job Info:
 Integral job number is                      11
 Integral operator is                         1
 short-range coefficients                     0
 long-range coefficients              100000000
 Omega coefficients                           0
 if combine SR and LR in K                    0
 Integral screening is                        0
 Integral computing path is                   2
 max size of driver memory is            800000
 size of driver memory is                 45569
 size of scratch memory is              1046100
 max col of scratch BK array                289
 max len of scratch array in speh3           22
 max len of scratch index in speh4            8
 max int batch size is                      520
 min int batch size is                       52
 fixed nKL is                                52
 max L of basis functions is                  1
 order of int derivative is                   0
 number of shells is                         86
 number of basis is                         176
 number of cartesian basis is               176
 number of contracted shell pairs          2185
 number of primitive shell pairs          11278
 maxK2 (contraction) of shell pair            9
 max number of K2 of shell pair               1
 max number of CS2 of shell pair            315
 max number of PS2 of shell pair           1290
 mem total for path MDJ                   49782
 -------------------------------------------------------
 Smallest overlap matrix eigenvalue = 1.93E-01

 Scale SEOQF with 1.000000e-02/1.000000e-01/1.000000e-01

 Standard Electronic Orientation quadrupole field applied
 Nucleus-field energy     =     0.0000000356 hartrees
 Guess from superposition of atomic densities
 Warning:  Energy on first SCF cycle will be non-variational
 A restricted hybrid HF-DFT SCF calculation will be
 performed using Pulay DIIS extrapolation
 Exchange:     0.2000 Hartree-Fock + 0.0800 Slater + 0.7200 B88
 Correlation:  0.1900 VWN1RPA + 0.8100 LYP
 Using SG-1 standard quadrature grid
 Dispersion:   Grimme D3
 SCF converges when DIIS error is below 1.0E-08
 using 48 threads for integral computing
 -------------------------------------------------------
 OpenMP Integral computing Module                
 Release: version 1.0, May 2013, Q-Chem Inc. Pittsburgh 
 -------------------------------------------------------
 -------------------------------------------------------
 OpenMP BLAS3 based DFT computing Module                
 Release: version 1.0, May 2013, Q-Chem Inc. Pittsburgh 
 -------------------------------------------------------
 ---------------------------------------
  Cycle       Energy         DIIS Error
 ---------------------------------------
    1   -1509.4806499504      8.30E-02
    2   -1509.5883442526      1.06E-02
    3   -1507.3013981720      2.70E-02
    4   -1510.0878887779      3.82E-03
    5   -1510.1438289936      1.37E-03
    6   -1510.1515048468      3.76E-04
    7   -1510.1520641025      1.34E-04
    8   -1510.1521380795      3.24E-05
    9   -1510.1521420057      1.30E-05
   10   -1510.1521427004      3.65E-06
   11   -1510.1521427590      7.36E-07
   12   -1510.1521427612      2.19E-07
   13   -1510.1521427614      1.22E-07
   14   -1510.1521427613      3.52E-08
   15   -1510.1521427613      6.53E-09 Convergence criterion met
 ---------------------------------------
 SCF time:  CPU 111.97 s  wall 2.39 s
 SCF   energy in the final basis set = -1510.15214276
 Total energy in the final basis set = -1510.15214276
 
 --------------------------------------------------------------
 
                    Orbital Energies (a.u.)
 --------------------------------------------------------------
 
 Alpha MOs
 -- Occupied --
-18.940 -18.938 -18.937 -18.930 -18.899 -18.894 -18.869 -18.865
-18.856 -18.853 -10.117 -10.110 -10.107 -10.105 -10.089 -10.083
-10.079 -10.073 -10.071 -10.064 -10.063 -10.059 -10.044 -10.040
-10.036 -10.033 -10.018 -10.015 -10.012 -10.011  -1.051  -1.046
 -1.041  -1.036  -1.025  -1.019  -0.955  -0.950  -0.946  -0.942
 -0.784  -0.780  -0.746  -0.742  -0.732  -0.721  -0.712  -0.688
 -0.683  -0.634  -0.607  -0.593  -0.556  -0.552  -0.538  -0.534
 -0.526  -0.518  -0.497  -0.493  -0.489  -0.480  -0.466  -0.464
 -0.452  -0.442  -0.438  -0.435  -0.432  -0.426  -0.421  -0.410
 -0.405  -0.395  -0.390  -0.380  -0.376  -0.372  -0.364  -0.362
 -0.357  -0.347  -0.344  -0.341  -0.335  -0.328  -0.326  -0.316
 -0.311  -0.309  -0.306  -0.302  -0.295  -0.292  -0.286  -0.277
 -0.272  -0.250  -0.240  -0.234  -0.231  -0.230  -0.224  -0.187
 -0.179  -0.172  -0.164  -0.155  -0.152  -0.149  -0.148  -0.139
 -0.138
 -- Virtual --
  0.107   0.109   0.118   0.123   0.229   0.244   0.263   0.273
  0.292   0.319   0.327   0.338   0.342   0.342   0.353   0.357
  0.362   0.373   0.383   0.386   0.389   0.396   0.398   0.398
  0.402   0.405   0.406   0.408   0.417   0.419   0.422   0.424
  0.425   0.427   0.437   0.443   0.446   0.449   0.452   0.456
  0.462   0.469   0.472   0.477   0.478   0.488   0.489   0.492
  0.500   0.502   0.503   0.508   0.525   0.549   0.549   0.560
  0.565   0.577   0.586   0.679   0.689   0.695   0.700
 --------------------------------------------------------------
 
          Ground-State Mulliken Net Atomic Charges

     Atom                 Charge (a.u.)
  ----------------------------------------
      1 O                    -0.232823
      2 C                     0.235418
      3 C                    -0.080535
      4 C                    -0.082949
      5 C                     0.233345
      6 O                    -0.188901
      7 C                    -0.041210
      8 C                    -0.036063
      9 O                    -0.196296
     10 C                     0.234167
     11 C                    -0.083093
     12 C                    -0.079629
     13 C                     0.238485
     14 O                    -0.233004
     15 O                    -0.212790
     16 O                    -0.214563
     17 O                    -0.226756
     18 C                    -0.099366
     19 C                     0.041818
     20 C                    -0.142525
     21 C                    -0.143431
     22 C                     0.039968
     23 O                    -0.208036
     24 H                     0.085271
     25 H                     0.087439
     26 H                     0.092448
     27 H                     0.076104
     28 H                     0.071730
     29 H                     0.076383
     30 H                     0.072051
     31 H                     0.084694
     32 O                    -0.215620
     33 C                    -0.099686
     34 C                     0.040305
     35 C                    -0.142900
     36 C                    -0.144485
     37 C                     0.041211
     38 O                    -0.208224
     39 H                     0.087778
     40 H                     0.085083
     41 H                     0.093806
     42 H                     0.092316
     43 H                     0.075606
     44 H                     0.070515
     45 H                     0.075095
     46 H                     0.069904
     47 H                     0.086502
     48 H                     0.085400
     49 H                     0.088598
     50 H                     0.095461
     51 H                     0.090050
     52 H                     0.083754
     53 H                     0.095421
     54 H                     0.091244
     55 H                     0.109045
     56 H                     0.086468
  ----------------------------------------
  Sum of atomic charges =    -0.000000

 -----------------------------------------------------------------
                    Cartesian Multipole Moments
 -----------------------------------------------------------------
    Charge (ESU x 10^10)
                 0.0000
    Dipole Moment (Debye)
         X       1.3497      Y       1.6970      Z      -4.8219
       Tot       5.2869
    Quadrupole Moments (Debye-Ang)
        XX    -137.1750     XY       1.2242     YY    -151.9971
        XZ       4.4934     YZ       1.9017     ZZ    -168.6096
    Octopole Moments (Debye-Ang^2)
       XXX       2.6551    XXY     -14.4903    XYY      20.1021
       YYY      33.0807    XXZ     -35.6687    XYZ       3.6214
       YYZ     -14.1766    XZZ       6.3767    YZZ       0.6293
       ZZZ      -4.2437
    Hexadecapole Moments (Debye-Ang^3)
      XXXX  -14751.6067   XXXY     -61.6270   XXYY   -2984.8748
      XYYY      65.3533   YYYY   -2489.9790   XXXZ      60.1333
      XXYZ      12.3351   XYYZ      37.9288   YYYZ     -16.8517
      XXZZ   -2832.2486   XYZZ       5.8287   YYZZ    -591.7311
      XZZZ      -1.7200   YZZZ       2.0646   ZZZZ    -878.3603
 -----------------------------------------------------------------
 Calculating analytic gradient of the SCF energy
 Gradient of SCF Energy
            1           2           3           4           5           6
    1   0.0055510  -0.0036879   0.0096703   0.0227283   0.0159037   0.0027236
    2  -0.0273772  -0.0221404  -0.0175034   0.0174365   0.0085760  -0.0275738
    3  -0.0675276  -0.0188065   0.0483057   0.0336780  -0.0083464   0.0444174
            7           8           9          10          11          12
    1  -0.0175713   0.0108287  -0.0159975  -0.0091633  -0.0187317  -0.0196907
    2  -0.0230237   0.0244315  -0.0165958   0.0121095   0.0139906  -0.0165453
    3  -0.0189637   0.0110295   0.0706116  -0.0369922   0.0319515   0.0615902
           13          14          15          16          17          18
    1   0.0201466   0.0607320   0.0233443  -0.1074514   0.0314467   0.0462919
    2  -0.0007262   0.0301798   0.0751221  -0.0007319   0.0183380  -0.0262317
    3  -0.0189838  -0.0303511   0.0970220   0.0625552  -0.0454172  -0.0221394
           19          20          21          22          23          24
    1   0.0169261  -0.0309271  -0.0423639  -0.0317709   0.0299459   0.0024779
    2   0.0724124   0.0412582  -0.0169200  -0.0653441  -0.0191515  -0.0120000
    3   0.0018005  -0.0023127   0.0166985   0.0123814  -0.0787466   0.0018293
           25          26          27          28          29          30
    1  -0.0042587   0.0087478   0.0019256   0.0039300   0.0052446  -0.0012388
    2   0.0011947  -0.0111507   0.0035310  -0.0050819  -0.0056273   0.0034271
    3  -0.0072558  -0.0053131   0.0107028  -0.0053191   0.0108201  -0.0084550
           31          32          33          34          35          36
    1   0.0083556  -0.0196279  -0.0316920   0.0194469   0.0457924   0.0291724
    2   0.0045340   0.0233321  -0.0407540  -0.0680544  -0.0254220   0.0340271
    3  -0.0080357  -0.0417149  -0.0283798  -0.0091648   0.0034785   0.0220614
           37          38          39          40          41          42
    1  -0.0091177  -0.0246476  -0.0021315  -0.0026075  -0.0063326  -0.0121848
    2   0.0687948   0.0190405   0.0044111  -0.0096579  -0.0071307   0.0063823
    3   0.0271393  -0.0809253  -0.0013808  -0.0035104  -0.0017334  -0.0058575
           43          44          45          46          47          48
    1  -0.0030653  -0.0027990  -0.0062405   0.0005686  -0.0072958  -0.0061389
    2  -0.0072290   0.0046996   0.0002128  -0.0016471  -0.0074669  -0.0055895
    3   0.0091864  -0.0061517   0.0110095  -0.0081703  -0.0105851  -0.0036390
           49          50          51          52          53          54
    1   0.0013416  -0.0027884   0.0079454   0.0093955  -0.0002074  -0.0039763
    2   0.0023012   0.0021481  -0.0047019  -0.0053513  -0.0021904   0.0020120
    3   0.0005432   0.0003761  -0.0016202  -0.0028278  -0.0046108   0.0005915
           55          56
    1   0.0041123  -0.0009893
    2   0.0051502  -0.0001332
    3   0.0011576   0.0023005
 Max gradient component =       1.075E-01
 RMS gradient           =       2.770E-02
 Gradient time:  CPU 31.32 s  wall 0.67 s
 Geometry Optimization Parameters
   NAtoms,    NIC,     NZ,  NCons,   NDum,   NFix, NCnnct, MaxDiis
       56     458       0       9       0       0       0       0


** CONSTRAINED OPTIMIZATION IN DELOCALIZED INTERNAL COORDINATES **
   Searching for a Minimum

   Optimization Cycle:   1

                       Coordinates (Angstroms)
     ATOM                X               Y               Z
      1  O        -3.1549241743    2.2686575022    1.2478078707
      2  C        -3.1882716294    1.6054919732    0.2211113895
      3  C        -4.3196169517    0.6909772623   -0.1939951001
      4  C        -3.9518109036   -0.7510550333   -0.5801507135
      5  C        -2.5184579404   -1.1693478857   -0.3380376853
      6  O        -1.7315066720   -0.7492872606   -1.3722967569
      7  C        -0.3507872765   -0.6255934784   -1.0151262214
      8  C         0.4560056909   -1.7626356730   -1.6334619193
      9  O         1.8567016754   -1.4476281479   -1.5922903213
     10  C         2.4294405908   -1.4962004795   -0.3639773914
     11  C         3.8978340692   -1.1440350247   -0.3851444916
     12  C         4.2019225625    0.3578546905   -0.4858215923
     13  C         3.0416521852    1.2880005287   -0.1937653896
     14  O         2.0605810937    1.0076082449    0.4796195570
     15  O        -2.2583026429    1.8524906569   -0.7346626721
     16  O         3.2632276993    2.5883223169   -0.5223612164
     17  O         1.8696131958   -1.9481082056    0.6287622343
     18  C         2.4073141134    3.6310236750   -0.2452884543
     19  C         4.6445860077   -1.4693880246    0.9324359884
     20  C         6.1382179277   -1.6303250036    0.6504036442
     21  C         6.5255354287   -0.1965577439    0.3524548418
     22  C         5.2042245519    0.5131683261    0.6679807906
     23  O         4.6172834444   -0.2751312171    1.6738894279
     24  H         4.3690916520   -1.7515490952   -1.1909972809
     25  H         4.6005396602    0.6280721689   -1.4886142152
     26  H         4.2617138423   -2.3759488406    1.4497350138
     27  H         6.6141061358   -1.9334160106    1.6109077153
     28  H         6.4075775769   -2.3677940735   -0.1359347137
     29  H         7.3246233440    0.1067014281    1.0647009998
     30  H         6.8476988866    0.0013879708   -0.6929607459
     31  H         5.3857158487    1.5794523794    0.9291942823
     32  O        -2.1349287959   -1.8929881492    0.5746416521
     33  C        -1.2377669487    2.7678822635   -0.6067899559
     34  C        -5.3263314104    0.4449854814    0.9457404739
     35  C        -6.6718442086   -0.0003634855    0.3727361156
     36  C        -6.3412049275   -1.4138064688   -0.0501887984
     37  C        -4.8809728184   -1.5050536257    0.4010712966
     38  O        -4.8442516450   -0.7185239425    1.5665429802
     39  H        -4.8233016277    1.2092165488   -1.0404667060
     40  H        -4.2190863748   -1.0307134514   -1.6241949550
     41  H        -0.5808397447    2.4882749628    0.2444399407
     42  H        -5.4749915436    1.3283007296    1.6042408859
     43  H        -7.4063249808   -0.0443512912    1.2084816298
     44  H        -7.0646104595    0.6580824012   -0.4317919181
     45  H        -6.9580256721   -2.1143565654    0.5563605976
     46  H        -6.4764963544   -1.6333287066   -1.1312226960
     47  H        -4.5975305762   -2.5737807108    0.5246019339
     48  H        -1.6523578235    3.7858132216   -0.4453970951
     49  H        -0.6448869696    2.7719666848   -1.5435268729
     50  H         2.8608028025    4.5774069453   -0.6044277373
     51  H         2.2349124651    3.7084132683    0.8494484472
     52  H         1.4482470319    3.4820902785   -0.7741142134
     53  H         0.2251177009   -2.7497000332   -1.1745371886
     54  H         0.1754152503   -1.8181635774   -2.7068855775
     55  H        -0.1705265380   -0.5563671326    0.0816171753
     56  H         0.0074623635    0.3308624724   -1.4489997149
   Point Group: c1    Number of degrees of freedom:   162


   Energy is  -1510.152142761

              Constraints and their Current Values
                                        Value     Constraint
   Dihedral:        1   2   3   4     -128.202     -128.202
   Dihedral:        3   4   5   6      -82.362      -82.361
   Dihedral:        4   5   6   7      157.067      157.067
   Dihedral:        5   6   7   8      106.626      106.626
   Dihedral:        6   7   8   9      164.219      164.218
   Dihedral:        7   8   9  10       71.906       71.907
   Dihedral:        8   9  10  11     -179.503     -179.503
   Dihedral:        9  10  11  12       77.905       77.904
   Dihedral:       11  12  13  14       23.559       23.559

 Attempting to Generate Delocalized Internal Coordinates

   Using Lagrange Multiplier Algorithm


171 Hessian modes will be used to form the next step
  Hessian Eigenvalues:
    -0.977753   -0.977753   -0.977753   -0.977753   -0.977753   -0.977753
    -0.977753   -0.977753   -0.977753    0.045000    0.045000    0.045000
     0.045000    0.045217    0.045374    0.045520    0.045552    0.045602
     0.045652    0.048883    0.048888    0.054231    0.059954    0.060077
     0.062694    0.062724    0.066882    0.067101    0.067116    0.067614
     0.069390    0.070910    0.071995    0.073575    0.073992    0.075610
     0.076187    0.076815    0.076970    0.082435    0.082631    0.083451
     0.084276    0.084477    0.084492    0.085518    0.085877    0.086086
     0.086415    0.086869    0.087191    0.088545    0.088786    0.089034
     0.089312    0.089619    0.089937    0.093932    0.093947    0.096614
     0.096649    0.111552    0.111567    0.114503    0.114716    0.116110
     0.116285    0.116659    0.117460    0.117985    0.118183    0.118910
     0.123169    0.124640    0.130623    0.130741    0.130823    0.139048
     0.140684    0.160000    0.160000    0.160000    0.160000    0.160000
     0.160000    0.171211    0.171910    0.172158    0.172770    0.219975
     0.220479    0.238706    0.239743    0.246816    0.247350    0.247777
     0.248104    0.250000    0.250000    0.250000    0.250000    0.250000
     0.250000    0.250000    0.250000    0.258387    0.258697    0.266993
     0.267493    0.278934    0.280604    0.282230    0.283584    0.295154
     0.296274    0.298748    0.308056    0.310698    0.310863    0.313322
     0.321846    0.322007    0.322205    0.322329    0.322420    0.322670
     0.322837    0.323104    0.323143    0.323299    0.323311    0.323438
     0.324129    0.324164    0.324212    0.324561    0.324583    0.324744
     0.324941    0.325020    0.325041    0.325071    0.326336    0.326873
     0.327484    0.331047    0.369464    0.370111    0.384789    0.386044
     0.401013    0.407713    0.496242    0.496779    0.517904    0.530735
     0.537173    0.537335    0.926591    0.927590    0.941950    0.942732
     1.022753    1.022753    1.022753    1.022753    1.022753    1.022753
     1.022753    1.022753    1.022753

 Minimum Search - Taking P-RFO Step
 Searching for Lamda that Maximizes Along the Constraint modes Only
 Value Taken    Lamda =   0.00063019
 Searching for Lamda that Minimizes Along All other modes
 Value Taken    Lamda =  -0.16549788
 Calculated Step too Large.  Step scaled by  0.528625
 Step Taken.  Stepsize is  0.300000

                             Maximum     Tolerance    Cnvgd?
         Gradient            0.139717       0.000300      NO
         Displacement        0.127660       0.001200      NO
         Energy change     *********       0.000001      NO


 New Cartesian Coordinates Obtained by Inverse Iteration

 Displacement from previous Coordinates is:  0.962484
 Adding empirical dispersion correction 
 ----------------------------------------------------------------
 Doing -D3(op) with
 s6 =   1.00000
 s8 =   0.78311
 a1 =   0.30000
 a2 =   4.25000
 n  =  10.00000
 -D3 energy without 3body term =     -0.0694595108 hartrees
 ----------------------------------------------------------------
             Standard Nuclear Orientation (Angstroms)
    I     Atom           X                Y                Z
 ----------------------------------------------------------------
    1      O      -3.2092300786     2.2859443649     1.2918435796
    2      C      -3.2392765660     1.6171903973     0.2471903180
    3      C      -4.3856118636     0.6955420877    -0.1856358162
    4      C      -4.0127328586    -0.7648441593    -0.5811893842
    5      C      -2.5553572442    -1.1821549181    -0.3303764940
    6      O      -1.7544805481    -0.7476203462    -1.3812102077
    7      C      -0.3564941884    -0.6113966281    -1.0224538226
    8      C       0.4777975381    -1.7529347385    -1.6476545413
    9      O       1.8946570705    -1.4398818219    -1.6166092999
   10      C       2.4574973504    -1.4982188136    -0.3562582111
   11      C       3.9499635541    -1.1460618509    -0.3868203817
   12      C       4.2725196010     0.3706978760    -0.4912609650
   13      C       3.0907576977     1.3089851996    -0.2128248578
   14      O       2.0832688153     1.0316094121     0.4562028719
   15      O      -2.3094621411     1.8289100764    -0.7471495788
   16      O       3.3689179583     2.6098087157    -0.5776970336
   17      O       1.8745202139    -1.9503147970     0.6414664817
   18      C       2.4685895937     3.6532410580    -0.2977782263
   19      C       4.6928728208    -1.4842438933     0.9514173477
   20      C       6.2065365257    -1.6587553655     0.6589599777
   21      C       6.6141641840    -0.2046935429     0.3570063432
   22      C       5.2837868277     0.5291584487     0.6842192870
   23      O       4.6740424413    -0.2672444755     1.7101782993
   24      H       4.4186179868    -1.7498024874    -1.1920624950
   25      H       4.6805395890     0.6362629824    -1.4881368104
   26      H       4.2916035565    -2.3799327854     1.4692811157
   27      H       6.6824702643    -1.9718888693     1.6101358104
   28      H       6.4619757617    -2.3942805859    -0.1273348345
   29      H       7.4160535288     0.0964010134     1.0587746330
   30      H       6.9341452396    -0.0121377826    -0.6851119712
   31      H       5.4650482139     1.5921232400     0.9497793791
   32      O      -2.1602941570    -1.9062502793     0.5945706796
   33      C      -1.2755907583     2.7644910576    -0.5668781399
   34      C      -5.4075885353     0.4479986588     0.9654262233
   35      C      -6.7659598202     0.0023265583     0.3629178648
   36      C      -6.4283791323    -1.4344799940    -0.0706465007
   37      C      -4.9536415238    -1.5374861047     0.4060709226
   38      O      -4.9227101018    -0.7422724400     1.5995119856
   39      H      -4.8821496577     1.2147992011    -1.0326428006
   40      H      -4.2733245209    -1.0352493795    -1.6254867909
   41      H      -0.6254624666     2.4837045787     0.2915932878
   42      H      -5.5466280221     1.3262561845     1.6296561113
   43      H      -7.5106712237    -0.0371897486     1.1826686464
   44      H      -7.1427522675     0.6639442740    -0.4401696191
   45      H      -7.0511839676    -2.1387194887     0.5153925626
   46      H      -6.5495220707    -1.6449839389    -1.1503440525
   47      H      -4.6634652110    -2.6015112236     0.5332051706
   48      H      -1.6816298140     3.7861909408    -0.3947232547
   49      H      -0.6657251107     2.7811836208    -1.4923240487
   50      H       2.9169992372     4.6028995731    -0.6536358325
   51      H       2.2748774234     3.7385975477     0.7946259810
   52      H       1.5072527997     3.5038343798    -0.8295143117
   53      H       0.2511023421    -2.7373452064    -1.1811164473
   54      H       0.2032874653    -1.8163451304    -2.7220163055
   55      H      -0.1803780418    -0.5454928288     0.0739306735
   56      H      -0.0069565222     0.3486382216    -1.4574659441
 ----------------------------------------------------------------
 Molecular Point Group                 C1    NOp =  1
 Largest Abelian Subgroup              C1    NOp =  1
 Nuclear Repulsion Energy =  3168.1485069072 hartrees
 There are      113 alpha and      113 beta electrons
 Applying Cartesian multipole field
    Component          Value
    ---------          -----
     (2,0,0)        1.00000E-12
     (0,2,0)        2.00000E-11
     (0,0,2)       -3.00000E-11
 Nucleus-field energy     =     0.0000000359 hartrees
 Requested basis set is STO-3G
 There are 86 shells and 176 basis functions
 A cutoff of  1.0D-12 yielded   2161 shell pairs
 There are     10231 function pairs
 Smallest overlap matrix eigenvalue = 2.02E-01
 Guess MOs from SCF MO coefficient file
 Reading MOs from coefficient file
 Reading MOs from coefficient file
 A restricted hybrid HF-DFT SCF calculation will be
 performed using Pulay DIIS extrapolation
 Exchange:     0.2000 Hartree-Fock + 0.0800 Slater + 0.7200 B88
 Correlation:  0.1900 VWN1RPA + 0.8100 LYP
 Using SG-1 standard quadrature grid
 Dispersion:   Grimme D3
 SCF converges when DIIS error is below 1.0E-08
 Geometry optimization detected.  Setting ReadMinima to 0
 Setting SaveMinima to 0
 using 48 threads for integral computing
 -------------------------------------------------------
 OpenMP Integral computing Module                
 Release: version 1.0, May 2013, Q-Chem Inc. Pittsburgh 
 -------------------------------------------------------
 -------------------------------------------------------
 OpenMP BLAS3 based DFT computing Module                
 Release: version 1.0, May 2013, Q-Chem Inc. Pittsburgh 
 -------------------------------------------------------
 ---------------------------------------
  Cycle       Energy         DIIS Error
 ---------------------------------------
    1   -1510.0448744689      3.06E-03
    2   -1510.2174890174      9.41E-04
    3   -1510.2115509572      1.53E-03
    4   -1510.2209718146      3.48E-04
    5   -1510.2215110236      5.67E-05
    6   -1510.2215250713      1.81E-05
    7   -1510.2215260167      1.15E-05
    8   -1510.2215266000      2.14E-06
    9   -1510.2215266211      7.67E-07
   10   -1510.2215266230      4.25E-07
   11   -1510.2215266238      9.99E-08
   12   -1510.2215266238      2.07E-08
   13   -1510.2215266238      1.46E-08
   14   -1510.2215266239      6.01E-09 Convergence criterion met
 ---------------------------------------
 SCF time:  CPU 98.76 s  wall 2.06 s
 SCF   energy in the final basis set = -1510.22152662
 Total energy in the final basis set = -1510.22152662
 
 --------------------------------------------------------------
 
                    Orbital Energies (a.u.)
 --------------------------------------------------------------
 
 Alpha MOs
 -- Occupied --
-18.941 -18.938 -18.934 -18.933 -18.897 -18.891 -18.870 -18.868
-18.859 -18.857 -10.111 -10.104 -10.102 -10.100 -10.084 -10.078
-10.075 -10.070 -10.068 -10.061 -10.060 -10.057 -10.043 -10.039
-10.036 -10.034 -10.019 -10.015 -10.013 -10.012  -1.039  -1.033
 -1.028  -1.022  -1.004  -0.998  -0.948  -0.942  -0.939  -0.935
 -0.776  -0.772  -0.737  -0.733  -0.724  -0.713  -0.704  -0.682
 -0.676  -0.627  -0.603  -0.589  -0.552  -0.549  -0.537  -0.533
 -0.522  -0.514  -0.490  -0.487  -0.480  -0.471  -0.460  -0.458
 -0.445  -0.436  -0.432  -0.430  -0.425  -0.421  -0.416  -0.402
 -0.399  -0.388  -0.383  -0.377  -0.371  -0.363  -0.359  -0.357
 -0.353  -0.345  -0.342  -0.339  -0.334  -0.328  -0.325  -0.312
 -0.309  -0.308  -0.303  -0.301  -0.293  -0.289  -0.282  -0.274
 -0.270  -0.250  -0.241  -0.238  -0.235  -0.232  -0.230  -0.186
 -0.181  -0.174  -0.162  -0.153  -0.152  -0.151  -0.146  -0.141
 -0.140
 -- Virtual --
  0.100   0.104   0.111   0.116   0.223   0.242   0.257   0.266
  0.283   0.305   0.312   0.323   0.328   0.336   0.349   0.352
  0.358   0.361   0.372   0.373   0.377   0.384   0.384   0.389
  0.390   0.394   0.404   0.405   0.405   0.410   0.413   0.417
  0.419   0.420   0.425   0.431   0.433   0.436   0.443   0.446
  0.448   0.458   0.462   0.467   0.469   0.473   0.479   0.479
  0.481   0.489   0.491   0.494   0.500   0.530   0.531   0.547
  0.554   0.561   0.568   0.655   0.665   0.671   0.675
 --------------------------------------------------------------
 
          Ground-State Mulliken Net Atomic Charges

     Atom                 Charge (a.u.)
  ----------------------------------------
      1 O                    -0.224033
      2 C                     0.222738
      3 C                    -0.078955
      4 C                    -0.080590
      5 C                     0.222798
      6 O                    -0.183510
      7 C                    -0.044063
      8 C                    -0.040429
      9 O                    -0.189006
     10 C                     0.223751
     11 C                    -0.082012
     12 C                    -0.078136
     13 C                     0.225973
     14 O                    -0.224080
     15 O                    -0.197928
     16 O                    -0.200294
     17 O                    -0.218852
     18 C                    -0.107373
     19 C                     0.036219
     20 C                    -0.143522
     21 C                    -0.144265
     22 C                     0.034746
     23 O                    -0.198805
     24 H                     0.084998
     25 H                     0.087141
     26 H                     0.091889
     27 H                     0.076338
     28 H                     0.072355
     29 H                     0.076813
     30 H                     0.072913
     31 H                     0.084647
     32 O                    -0.209543
     33 C                    -0.107760
     34 C                     0.034741
     35 C                    -0.143889
     36 C                    -0.145301
     37 C                     0.035696
     38 O                    -0.198701
     39 H                     0.086853
     40 H                     0.085221
     41 H                     0.093751
     42 H                     0.091720
     43 H                     0.075844
     44 H                     0.071238
     45 H                     0.075577
     46 H                     0.070766
     47 H                     0.086535
     48 H                     0.085636
     49 H                     0.088088
     50 H                     0.095102
     51 H                     0.090237
     52 H                     0.083432
     53 H                     0.094230
     54 H                     0.089934
     55 H                     0.107370
     56 H                     0.085763
  ----------------------------------------
  Sum of atomic charges =    -0.000000

 -----------------------------------------------------------------
                    Cartesian Multipole Moments
 -----------------------------------------------------------------
    Charge (ESU x 10^10)
                 0.0000
    Dipole Moment (Debye)
         X       1.3597      Y       1.7771      Z      -4.7076
       Tot       5.2123
    Quadrupole Moments (Debye-Ang)
        XX    -136.5980     XY       1.1178     YY    -151.4370
        XZ       4.6287     YZ       1.9305     ZZ    -168.9476
    Octopole Moments (Debye-Ang^2)
       XXX       3.3157    XXY     -15.1899    XYY      20.4015
       YYY      34.2200    XXZ     -38.5658    XYZ       2.8516
       YYZ     -13.9010    XZZ       6.7196    YZZ       0.6416
       ZZZ      -5.0712
    Hexadecapole Moments (Debye-Ang^3)
      XXXX  -15119.5401   XXXY     -74.7815   XXYY   -3056.0074
      XYYY      57.2306   YYYY   -2509.3863   XXXZ      75.8760
      XXYZ      18.1968   XYYZ      41.9053   YYYZ     -13.9564
      XXZZ   -2922.0207   XYZZ       1.1636   YYZZ    -600.5976
      XZZZ       6.8387   YZZZ       6.4790   ZZZZ    -899.9645
 -----------------------------------------------------------------
 Calculating analytic gradient of the SCF energy
 Gradient of SCF Energy
            1           2           3           4           5           6
    1   0.0012349  -0.0001674   0.0050917   0.0150236   0.0061532   0.0038218
    2  -0.0086983  -0.0255610  -0.0096206   0.0139847   0.0111249  -0.0196954
    3  -0.0297569  -0.0262090   0.0316772   0.0160798  -0.0091915   0.0270733
            7           8           9          10          11          12
    1  -0.0128940   0.0100058  -0.0115757  -0.0026522  -0.0116837  -0.0116357
    2  -0.0134119   0.0158241  -0.0133565   0.0137844   0.0079487  -0.0090667
    3  -0.0123203   0.0074026   0.0441503  -0.0341957   0.0153958   0.0407033
           13          14          15          16          17          18
    1   0.0247286   0.0285044   0.0158884  -0.0736139   0.0158290   0.0356328
    2   0.0042563   0.0140400   0.0511941  -0.0007812   0.0065312  -0.0180864
    3  -0.0261063  -0.0077841   0.0662524   0.0431388  -0.0189892  -0.0166006
           19          20          21          22          23          24
    1   0.0064192  -0.0174301  -0.0210934  -0.0215246   0.0175869   0.0020221
    2   0.0455872   0.0206175  -0.0063228  -0.0380945  -0.0116562  -0.0092574
    3   0.0061745  -0.0036602   0.0078331   0.0111907  -0.0464579   0.0029161
           25          26          27          28          29          30
    1  -0.0044235   0.0075136   0.0002312   0.0033765   0.0027085  -0.0008604
    2   0.0008677  -0.0092309   0.0030351  -0.0034700  -0.0047899   0.0030072
    3  -0.0050997  -0.0057024   0.0067896  -0.0018901   0.0068553  -0.0045591
           31          32          33          34          35          36
    1   0.0071909  -0.0105626  -0.0230418   0.0146763   0.0243985   0.0159326
    2   0.0030641   0.0077417  -0.0304460  -0.0408507  -0.0110991   0.0161893
    3  -0.0075578  -0.0210515  -0.0231393  -0.0004975   0.0005251   0.0098453
           37          38          39          40          41          42
    1  -0.0035217  -0.0139685  -0.0011889  -0.0017657  -0.0025672  -0.0101533
    2   0.0410467   0.0115258   0.0034736  -0.0085278  -0.0040193   0.0054336
    3   0.0214769  -0.0479916  -0.0004161  -0.0012047  -0.0001039  -0.0060724
           43          44          45          46          47          48
    1  -0.0009337  -0.0024583  -0.0036162   0.0002672  -0.0062249  -0.0032628
    2  -0.0051645   0.0029263   0.0011791  -0.0018869  -0.0053692  -0.0014858
    3   0.0057307  -0.0026315   0.0073074  -0.0042602  -0.0099065  -0.0023739
           49          50          51          52          53          54
    1   0.0018813  -0.0025026   0.0043166   0.0046264  -0.0005711  -0.0028884
    2   0.0023109   0.0026053  -0.0016334  -0.0021940  -0.0021669   0.0013765
    3   0.0001139   0.0002697   0.0004414  -0.0021737  -0.0040267   0.0002045
           55          56
    1   0.0035778   0.0001425
    2   0.0049394   0.0003277
    3   0.0005094   0.0018730
 Max gradient component =       7.361E-02
 RMS gradient           =       1.758E-02
 Gradient time:  CPU 30.11 s  wall 0.63 s
 Geometry Optimization Parameters
   NAtoms,    NIC,     NZ,  NCons,   NDum,   NFix, NCnnct, MaxDiis
       56     458       0       9       0       0       0       0

 Cartesian Hessian Update
 Hessian Updated using BFGS Update


** CONSTRAINED OPTIMIZATION IN DELOCALIZED INTERNAL COORDINATES **
   Searching for a Minimum

   Optimization Cycle:   2

                       Coordinates (Angstroms)
     ATOM                X               Y               Z
      1  O        -3.2092300786    2.2859443649    1.2918435796
      2  C        -3.2392765660    1.6171903973    0.2471903180
      3  C        -4.3856118636    0.6955420877   -0.1856358162
      4  C        -4.0127328586   -0.7648441593   -0.5811893842
      5  C        -2.5553572442   -1.1821549181   -0.3303764940
      6  O        -1.7544805481   -0.7476203462   -1.3812102077
      7  C        -0.3564941884   -0.6113966281   -1.0224538226
      8  C         0.4777975381   -1.7529347385   -1.6476545413
      9  O         1.8946570705   -1.4398818219   -1.6166092999
     10  C         2.4574973504   -1.4982188136   -0.3562582111
     11  C         3.9499635541   -1.1460618509   -0.3868203817
     12  C         4.2725196010    0.3706978760   -0.4912609650
     13  C         3.0907576977    1.3089851996   -0.2128248578
     14  O         2.0832688153    1.0316094121    0.4562028719
     15  O        -2.3094621411    1.8289100764   -0.7471495788
     16  O         3.3689179583    2.6098087157   -0.5776970336
     17  O         1.8745202139   -1.9503147970    0.6414664817
     18  C         2.4685895937    3.6532410580   -0.2977782263
     19  C         4.6928728208   -1.4842438933    0.9514173477
     20  C         6.2065365257   -1.6587553655    0.6589599777
     21  C         6.6141641840   -0.2046935429    0.3570063432
     22  C         5.2837868277    0.5291584487    0.6842192870
     23  O         4.6740424413   -0.2672444755    1.7101782993
     24  H         4.4186179868   -1.7498024874   -1.1920624950
     25  H         4.6805395890    0.6362629824   -1.4881368104
     26  H         4.2916035565   -2.3799327854    1.4692811157
     27  H         6.6824702643   -1.9718888693    1.6101358104
     28  H         6.4619757617   -2.3942805859   -0.1273348345
     29  H         7.4160535288    0.0964010134    1.0587746330
     30  H         6.9341452396   -0.0121377826   -0.6851119712
     31  H         5.4650482139    1.5921232400    0.9497793791
     32  O        -2.1602941570   -1.9062502793    0.5945706796
     33  C        -1.2755907583    2.7644910576   -0.5668781399
     34  C        -5.4075885353    0.4479986588    0.9654262233
     35  C        -6.7659598202    0.0023265583    0.3629178648
     36  C        -6.4283791323   -1.4344799940   -0.0706465007
     37  C        -4.9536415238   -1.5374861047    0.4060709226
     38  O        -4.9227101018   -0.7422724400    1.5995119856
     39  H        -4.8821496577    1.2147992011   -1.0326428006
     40  H        -4.2733245209   -1.0352493795   -1.6254867909
     41  H        -0.6254624666    2.4837045787    0.2915932878
     42  H        -5.5466280221    1.3262561845    1.6296561113
     43  H        -7.5106712237   -0.0371897486    1.1826686464
     44  H        -7.1427522675    0.6639442740   -0.4401696191
     45  H        -7.0511839676   -2.1387194887    0.5153925626
     46  H        -6.5495220707   -1.6449839389   -1.1503440525
     47  H        -4.6634652110   -2.6015112236    0.5332051706
     48  H        -1.6816298140    3.7861909408   -0.3947232547
     49  H        -0.6657251107    2.7811836208   -1.4923240487
     50  H         2.9169992372    4.6028995731   -0.6536358325
     51  H         2.2748774234    3.7385975477    0.7946259810
     52  H         1.5072527997    3.5038343798   -0.8295143117
     53  H         0.2511023421   -2.7373452064   -1.1811164473
     54  H         0.2032874653   -1.8163451304   -2.7220163055
     55  H        -0.1803780418   -0.5454928288    0.0739306735
     56  H        -0.0069565222    0.3486382216   -1.4574659441
   Point Group: c1    Number of degrees of freedom:   162


   Energy is  -1510.221526624

              Constraints and their Current Values
                                        Value     Constraint
   Dihedral:        1   2   3   4     -128.223     -128.202
   Dihedral:        3   4   5   6      -82.388      -82.361
   Dihedral:        4   5   6   7      157.037      157.067
   Dihedral:        5   6   7   8      106.640      106.626
   Dihedral:        6   7   8   9      164.205      164.218
   Dihedral:        7   8   9  10       71.925       71.907
   Dihedral:        8   9  10  11     -179.490     -179.503
   Dihedral:        9  10  11  12       77.949       77.904
   Dihedral:       11  12  13  14       23.585       23.559
 Hessian Updated using BFGS Update

   Using Lagrange Multiplier Algorithm


159 Hessian modes will be used to form the next step
  Hessian Eigenvalues:
    -0.977753   -0.977753   -0.977753   -0.977753   -0.977753   -0.977753
    -0.977753   -0.977753   -0.977143    0.044996    0.045002    0.045207
     0.045374    0.045534    0.045554    0.045599    0.045624    0.048881
     0.048883    0.054220    0.059878    0.060027    0.062693    0.062754
     0.066871    0.067090    0.067117    0.067582    0.069389    0.070885
     0.071908    0.073570    0.073994    0.075529    0.076185    0.076769
     0.076944    0.082433    0.082619    0.083455    0.084265    0.084488
     0.084544    0.085448    0.085886    0.086086    0.086415    0.086859
     0.087166    0.088486    0.088764    0.089006    0.089349    0.089651
     0.089951    0.093938    0.093959    0.096615    0.096648    0.111558
     0.111621    0.114514    0.114735    0.116108    0.116284    0.116714
     0.117465    0.117971    0.118154    0.118761    0.123206    0.124630
     0.130623    0.130753    0.130826    0.139078    0.140734    0.159620
     0.161703    0.170927    0.171762    0.172242    0.172892    0.219024
     0.220464    0.228632    0.238712    0.239759    0.246850    0.247479
     0.248007    0.248248    0.254227    0.258522    0.260460    0.267097
     0.267496    0.279481    0.281428    0.282980    0.288023    0.295663
     0.297466    0.301918    0.308424    0.310449    0.312204    0.319949
     0.321933    0.322059    0.322205    0.322389    0.322522    0.322817
     0.322962    0.323102    0.323155    0.323309    0.323416    0.323687
     0.324135    0.324164    0.324285    0.324571    0.324634    0.324745
     0.324972    0.325031    0.325070    0.326313    0.326818    0.327414
     0.329121    0.331766    0.369474    0.370158    0.385410    0.400237
     0.404495    0.426574    0.479531    0.496523    0.521389    0.526899
     0.534604    0.537576    0.926769    0.930868    0.942343    0.987400
     1.022753    1.022753    1.022753    1.022753    1.022753    1.022753
     1.022753    1.022753    1.029280

 Minimum Search - Taking P-RFO Step
 Searching for Lamda that Maximizes Along the Constraint modes Only
 Value Taken    Lamda =   0.00005766
 Searching for Lamda that Minimizes Along All other modes
 Value Taken    Lamda =  -0.07671850
 Calculated Step too Large.  Step scaled by  0.623141
 Step Taken.  Stepsize is  0.300000

                             Maximum     Tolerance    Cnvgd?
         Gradient            0.081560       0.000300      NO
         Displacement        0.122029       0.001200      NO
         Energy change     -0.069384       0.000001      NO


 New Cartesian Coordinates Obtained by Inverse Iteration

 Displacement from previous Coordinates is:  1.329119
 Adding empirical dispersion correction 
 ----------------------------------------------------------------
 Doing -D3(op) with
 s6 =   1.00000
 s8 =   0.78311
 a1 =   0.30000
 a2 =   4.25000
 n  =  10.00000
 -D3 energy without 3body term =     -0.0700979488 hartrees
 ----------------------------------------------------------------
             Standard Nuclear Orientation (Angstroms)
    I     Atom           X                Y                Z
 ----------------------------------------------------------------
    1      O      -3.1082092076     2.3057369347     1.2992717375
    2      C      -3.1746345610     1.6344262190     0.2492543976
    3      C      -4.3540037402     0.7198418893    -0.1773028240
    4      C      -4.0036144493    -0.7560766199    -0.5885988142
    5      C      -2.5273512252    -1.1801213298    -0.3642766160
    6      O      -1.7460608590    -0.7349320190    -1.4502888969
    7      C      -0.3343469168    -0.6063079743    -1.0922000114
    8      C       0.5101713852    -1.7535676282    -1.7282365395
    9      O       1.9380472805    -1.4306701517    -1.6909377571
   10      C       2.4571110472    -1.5084727466    -0.3879796894
   11      C       3.9638599920    -1.1481945128    -0.3938851536
   12      C       4.2757516687     0.3807773872    -0.4836689896
   13      C       3.0379734814     1.2851651055    -0.2502549873
   14      O       1.9983569177     0.9845781882     0.3722113506
   15      O      -2.2583925510     1.8043765924    -0.7941226345
   16      O       3.3249709706     2.5986504054    -0.6391404028
   17      O       1.8301069687    -1.9669372941     0.5882561524
   18      C       2.2906761926     3.5556484678    -0.3604241751
   19      C       4.6722419781    -1.4963940047     0.9736965624
   20      C       6.2070933235    -1.6533329980     0.7067451659
   21      C       6.6099718621    -0.1773171840     0.4219049794
   22      C       5.2577394469     0.5529084827     0.7338681447
   23      O       4.6207138617    -0.2676316218     1.7560377595
   24      H       4.4568821846    -1.7319224972    -1.1951146309
   25      H       4.7148124482     0.6585480163    -1.4610314422
   26      H       4.2495969270    -2.3861752005     1.4812591652
   27      H       6.6724516743    -1.9757022937     1.6557562810
   28      H       6.4764937499    -2.3753067515    -0.0830329188
   29      H       7.3954315019     0.1331970432     1.1325195035
   30      H       6.9455620299     0.0205386932    -0.6107501846
   31      H       5.4053280754     1.6136264152     1.0206541274
   32      O      -2.0985070352    -1.8969324197     0.5606919661
   33      C      -1.2117190170     2.7511380827    -0.5244219392
   34      C      -5.3610189833     0.4792352879     1.0047287186
   35      C      -6.7431933284     0.0468890314     0.4096592076
   36      C      -6.4246381998    -1.4062238591    -0.0406068728
   37      C      -4.9328585278    -1.5362894013     0.4223372327
   38      O      -4.8710377179    -0.7374757179     1.6391431704
   39      H      -4.8573172032     1.2443435285    -1.0143664150
   40      H      -4.2838915159    -1.0092624188    -1.6291942780
   41      H      -0.5845119431     2.4375763994     0.3385292173
   42      H      -5.4589699532     1.3504258413     1.6828491906
   43      H      -7.4824136925     0.0184330741     1.2299773701
   44      H      -7.1139763691     0.7152173890    -0.3862622360
   45      H      -7.0482635247    -2.1102264176     0.5378042423
   46      H      -6.5579784069    -1.6023281883    -1.1183277143
   47      H      -4.6372732648    -2.5966299277     0.5518944157
   48      H      -1.6187718543     3.7647659062    -0.3171751576
   49      H      -0.5803706312     2.7997588919    -1.4322744308
   50      H       2.6648294859     4.5451611338    -0.6870673433
   51      H       2.0521081012     3.5996764751     0.7244202937
   52      H       1.3605356116     3.3263619470    -0.9208849877
   53      H       0.2831407359    -2.7348896661    -1.2567432899
   54      H       0.2473491571    -1.8190149981    -2.8047884106
   55      H      -0.1625679081    -0.5576330643     0.0045725538
   56      H       0.0137917138     0.3559721221    -1.5231865890
 ----------------------------------------------------------------
 Molecular Point Group                 C1    NOp =  1
 Largest Abelian Subgroup              C1    NOp =  1
 Nuclear Repulsion Energy =  3165.6044094682 hartrees
 There are      113 alpha and      113 beta electrons
 Applying Cartesian multipole field
    Component          Value
    ---------          -----
     (2,0,0)        1.00000E-12
     (0,2,0)        2.00000E-11
     (0,0,2)       -3.00000E-11
 Nucleus-field energy     =     0.0000000338 hartrees
 Requested basis set is STO-3G
 There are 86 shells and 176 basis functions
 A cutoff of  1.0D-12 yielded   2182 shell pairs
 There are     10330 function pairs
 Smallest overlap matrix eigenvalue = 2.07E-01
 Guess MOs from SCF MO coefficient file
 Reading MOs from coefficient file
 Reading MOs from coefficient file
 A restricted hybrid HF-DFT SCF calculation will be
 performed using Pulay DIIS extrapolation
 Exchange:     0.2000 Hartree-Fock + 0.0800 Slater + 0.7200 B88
 Correlation:  0.1900 VWN1RPA + 0.8100 LYP
 Using SG-1 standard quadrature grid
 Dispersion:   Grimme D3
 SCF converges when DIIS error is below 1.0E-08
 Geometry optimization detected.  Setting ReadMinima to 0
 Setting SaveMinima to 0
 using 48 threads for integral computing
 -------------------------------------------------------
 OpenMP Integral computing Module                
 Release: version 1.0, May 2013, Q-Chem Inc. Pittsburgh 
 -------------------------------------------------------
 -------------------------------------------------------
 OpenMP BLAS3 based DFT computing Module                
 Release: version 1.0, May 2013, Q-Chem Inc. Pittsburgh 
 -------------------------------------------------------
 ---------------------------------------
  Cycle       Energy         DIIS Error
 ---------------------------------------
    1   -1510.1008015945      3.25E-03
    2   -1510.2537558507      9.09E-04
    3   -1510.2465247367      1.61E-03
    4   -1510.2570696458      3.31E-04
    5   -1510.2575496532      6.53E-05
    6   -1510.2575672107      2.47E-05
    7   -1510.2575691409      1.46E-05
    8   -1510.2575700881      2.68E-06
    9   -1510.2575701215      1.06E-06
   10   -1510.2575701254      5.28E-07
   11   -1510.2575701266      1.07E-07
   12   -1510.2575701267      2.88E-08
   13   -1510.2575701268      1.52E-08
   14   -1510.2575701268      8.16E-09 Convergence criterion met
 ---------------------------------------
 SCF time:  CPU 105.44 s  wall 2.20 s
 SCF   energy in the final basis set = -1510.25757013
 Total energy in the final basis set = -1510.25757013
 
 --------------------------------------------------------------
 
                    Orbital Energies (a.u.)
 --------------------------------------------------------------
 
 Alpha MOs
 -- Occupied --
-18.945 -18.938 -18.934 -18.929 -18.895 -18.889 -18.875 -18.872
-18.866 -18.861 -10.108 -10.101 -10.098 -10.097 -10.078 -10.072
-10.070 -10.066 -10.065 -10.059 -10.057 -10.055 -10.043 -10.038
-10.035 -10.034 -10.020 -10.016 -10.014 -10.013  -1.032  -1.025
 -1.018  -1.012  -0.988  -0.982  -0.946  -0.939  -0.936  -0.932
 -0.771  -0.766  -0.731  -0.727  -0.717  -0.708  -0.698  -0.678
 -0.670  -0.621  -0.600  -0.585  -0.550  -0.546  -0.536  -0.532
 -0.518  -0.511  -0.485  -0.480  -0.474  -0.464  -0.458  -0.454
 -0.440  -0.432  -0.429  -0.426  -0.421  -0.417  -0.411  -0.398
 -0.394  -0.383  -0.377  -0.374  -0.366  -0.357  -0.357  -0.352
 -0.349  -0.344  -0.341  -0.337  -0.334  -0.328  -0.325  -0.310
 -0.309  -0.306  -0.302  -0.300  -0.291  -0.287  -0.280  -0.273
 -0.269  -0.254  -0.249  -0.245  -0.238  -0.236  -0.231  -0.186
 -0.183  -0.176  -0.160  -0.156  -0.153  -0.150  -0.145  -0.143
 -0.142
 -- Virtual --
  0.094   0.101   0.106   0.112   0.221   0.240   0.254   0.261
  0.274   0.295   0.300   0.309   0.318   0.327   0.340   0.346
  0.353   0.355   0.358   0.360   0.365   0.369   0.373   0.381
  0.384   0.385   0.395   0.401   0.405   0.405   0.409   0.413
  0.415   0.417   0.419   0.424   0.426   0.429   0.438   0.440
  0.445   0.447   0.449   0.457   0.458   0.463   0.469   0.471
  0.476   0.487   0.488   0.494   0.496   0.521   0.523   0.542
  0.549   0.554   0.560   0.642   0.650   0.658   0.662
 --------------------------------------------------------------
 
          Ground-State Mulliken Net Atomic Charges

     Atom                 Charge (a.u.)
  ----------------------------------------
      1 O                    -0.217806
      2 C                     0.214127
      3 C                    -0.078389
      4 C                    -0.079483
      5 C                     0.215902
      6 O                    -0.178592
      7 C                    -0.047566
      8 C                    -0.045162
      9 O                    -0.183229
     10 C                     0.217475
     11 C                    -0.082238
     12 C                    -0.077673
     13 C                     0.218127
     14 O                    -0.217925
     15 O                    -0.182474
     16 O                    -0.184693
     17 O                    -0.213256
     18 C                    -0.117604
     19 C                     0.031319
     20 C                    -0.144123
     21 C                    -0.144730
     22 C                     0.030294
     23 O                    -0.192042
     24 H                     0.085037
     25 H                     0.087157
     26 H                     0.091327
     27 H                     0.076831
     28 H                     0.073046
     29 H                     0.077436
     30 H                     0.073634
     31 H                     0.084575
     32 O                    -0.205518
     33 C                    -0.117515
     34 C                     0.029685
     35 C                    -0.144517
     36 C                    -0.145797
     37 C                     0.030977
     38 O                    -0.191426
     39 H                     0.086088
     40 H                     0.085408
     41 H                     0.095506
     42 H                     0.090782
     43 H                     0.076295
     44 H                     0.071832
     45 H                     0.076070
     46 H                     0.071463
     47 H                     0.086519
     48 H                     0.086892
     49 H                     0.085849
     50 H                     0.093495
     51 H                     0.090808
     52 H                     0.084143
     53 H                     0.093470
     54 H                     0.088194
     55 H                     0.107640
     56 H                     0.084353
  ----------------------------------------
  Sum of atomic charges =    -0.000000

 -----------------------------------------------------------------
                    Cartesian Multipole Moments
 -----------------------------------------------------------------
    Charge (ESU x 10^10)
                -0.0000
    Dipole Moment (Debye)
         X       1.2758      Y       1.7682      Z      -4.4183
       Tot       4.9270
    Quadrupole Moments (Debye-Ang)
        XX    -135.8418     XY       0.3719     YY    -151.9556
        XZ       4.5425     YZ       2.0991     ZZ    -168.9622
    Octopole Moments (Debye-Ang^2)
       XXX       1.1185    XXY     -16.7561    XYY      15.4623
       YYY      30.0142    XXZ     -35.0396    XYZ       2.2023
       YYZ     -11.3876    XZZ       5.8004    YZZ       0.2501
       ZZZ      -1.1800
    Hexadecapole Moments (Debye-Ang^3)
      XXXX  -14879.4555   XXXY     -54.5452   XXYY   -3022.2267
      XYYY      70.4314   YYYY   -2486.6385   XXXZ      80.0969
      XXYZ      22.2146   XYYZ      42.4070   YYYZ     -14.3300
      XXZZ   -2894.3383   XYZZ      10.4668   YYZZ    -601.8471
      XZZZ      11.9943   YZZZ       5.8119   ZZZZ    -950.8554
 -----------------------------------------------------------------
 Calculating analytic gradient of the SCF energy
 Gradient of SCF Energy
            1           2           3           4           5           6
    1  -0.0006196   0.0043129   0.0016377   0.0089235   0.0031597   0.0036191
    2  -0.0003802  -0.0178906  -0.0056797   0.0116159   0.0105993  -0.0126515
    3  -0.0127071  -0.0178148   0.0176037   0.0037022  -0.0053011   0.0123367
            7           8           9          10          11          12
    1  -0.0100386   0.0084595  -0.0065320  -0.0013116  -0.0072697  -0.0038440
    2  -0.0072502   0.0076690  -0.0081003   0.0129927   0.0053427  -0.0055780
    3  -0.0043750   0.0065126   0.0219920  -0.0229132   0.0029731   0.0250207
           13          14          15          16          17          18
    1   0.0125746   0.0125373   0.0081089  -0.0399857   0.0066785   0.0220571
    2   0.0045793   0.0070634   0.0268919  -0.0028656   0.0015068  -0.0116828
    3  -0.0211859   0.0017681   0.0364226   0.0232349  -0.0060580  -0.0080777
           19          20          21          22          23          24
    1  -0.0004864  -0.0089051  -0.0087652  -0.0117891   0.0097227   0.0022667
    2   0.0257975   0.0083665  -0.0017051  -0.0199603  -0.0055498  -0.0061241
    3   0.0071516  -0.0053348   0.0020450   0.0081736  -0.0224223   0.0033127
           25          26          27          28          29          30
    1  -0.0038255   0.0059227  -0.0009046   0.0026675   0.0007417  -0.0007306
    2   0.0003295  -0.0067474   0.0027457  -0.0023305  -0.0038017   0.0023641
    3  -0.0033520  -0.0050592   0.0038894   0.0004398   0.0040717  -0.0018050
           31          32          33          34          35          36
    1   0.0051406  -0.0051379  -0.0134803   0.0096898   0.0115577   0.0080008
    2   0.0019871  -0.0005457  -0.0174342  -0.0223278  -0.0038009   0.0071843
    3  -0.0062674  -0.0095572  -0.0134375   0.0028971  -0.0024794   0.0021859
           37          38          39          40          41          42
    1   0.0001838  -0.0072239  -0.0004777  -0.0012770  -0.0005935  -0.0074863
    2   0.0218770   0.0054077   0.0022316  -0.0069439  -0.0013828   0.0043045
    3   0.0155467  -0.0230435   0.0000275   0.0002909   0.0004097  -0.0053545
           43          44          45          46          47          48
    1   0.0005260  -0.0019564  -0.0014323  -0.0000482  -0.0048348  -0.0013887
    2  -0.0037411   0.0017008   0.0017763  -0.0017892  -0.0034235  -0.0000497
    3   0.0032414  -0.0002685   0.0047230  -0.0016388  -0.0081336  -0.0012573
           49          50          51          52          53          54
    1   0.0018838  -0.0014833   0.0019525  -0.0004309  -0.0013198  -0.0016656
    2   0.0014907   0.0012415  -0.0000894  -0.0009437  -0.0018292   0.0008910
    3   0.0003970   0.0000184   0.0007302  -0.0016318  -0.0033994   0.0000168
           55          56
    1   0.0028919   0.0000276
    2   0.0041000   0.0005419
    3   0.0005477   0.0011923
 Max gradient component =       3.999E-02
 RMS gradient           =       9.779E-03
 Gradient time:  CPU 32.81 s  wall 0.69 s
 Geometry Optimization Parameters
   NAtoms,    NIC,     NZ,  NCons,   NDum,   NFix, NCnnct, MaxDiis
       56     458       0       9       0       0       0       0

 Cartesian Hessian Update
 Hessian Updated using BFGS Update


** CONSTRAINED OPTIMIZATION IN DELOCALIZED INTERNAL COORDINATES **
   Searching for a Minimum

   Optimization Cycle:   3

                       Coordinates (Angstroms)
     ATOM                X               Y               Z
      1  O        -3.1082092076    2.3057369347    1.2992717375
      2  C        -3.1746345610    1.6344262190    0.2492543976
      3  C        -4.3540037402    0.7198418893   -0.1773028240
      4  C        -4.0036144493   -0.7560766199   -0.5885988142
      5  C        -2.5273512252   -1.1801213298   -0.3642766160
      6  O        -1.7460608590   -0.7349320190   -1.4502888969
      7  C        -0.3343469168   -0.6063079743   -1.0922000114
      8  C         0.5101713852   -1.7535676282   -1.7282365395
      9  O         1.9380472805   -1.4306701517   -1.6909377571
     10  C         2.4571110472   -1.5084727466   -0.3879796894
     11  C         3.9638599920   -1.1481945128   -0.3938851536
     12  C         4.2757516687    0.3807773872   -0.4836689896
     13  C         3.0379734814    1.2851651055   -0.2502549873
     14  O         1.9983569177    0.9845781882    0.3722113506
     15  O        -2.2583925510    1.8043765924   -0.7941226345
     16  O         3.3249709706    2.5986504054   -0.6391404028
     17  O         1.8301069687   -1.9669372941    0.5882561524
     18  C         2.2906761926    3.5556484678   -0.3604241751
     19  C         4.6722419781   -1.4963940047    0.9736965624
     20  C         6.2070933235   -1.6533329980    0.7067451659
     21  C         6.6099718621   -0.1773171840    0.4219049794
     22  C         5.2577394469    0.5529084827    0.7338681447
     23  O         4.6207138617   -0.2676316218    1.7560377595
     24  H         4.4568821846   -1.7319224972   -1.1951146309
     25  H         4.7148124482    0.6585480163   -1.4610314422
     26  H         4.2495969270   -2.3861752005    1.4812591652
     27  H         6.6724516743   -1.9757022937    1.6557562810
     28  H         6.4764937499   -2.3753067515   -0.0830329188
     29  H         7.3954315019    0.1331970432    1.1325195035
     30  H         6.9455620299    0.0205386932   -0.6107501846
     31  H         5.4053280754    1.6136264152    1.0206541274
     32  O        -2.0985070352   -1.8969324197    0.5606919661
     33  C        -1.2117190170    2.7511380827   -0.5244219392
     34  C        -5.3610189833    0.4792352879    1.0047287186
     35  C        -6.7431933284    0.0468890314    0.4096592076
     36  C        -6.4246381998   -1.4062238591   -0.0406068728
     37  C        -4.9328585278   -1.5362894013    0.4223372327
     38  O        -4.8710377179   -0.7374757179    1.6391431704
     39  H        -4.8573172032    1.2443435285   -1.0143664150
     40  H        -4.2838915159   -1.0092624188   -1.6291942780
     41  H        -0.5845119431    2.4375763994    0.3385292173
     42  H        -5.4589699532    1.3504258413    1.6828491906
     43  H        -7.4824136925    0.0184330741    1.2299773701
     44  H        -7.1139763691    0.7152173890   -0.3862622360
     45  H        -7.0482635247   -2.1102264176    0.5378042423
     46  H        -6.5579784069   -1.6023281883   -1.1183277143
     47  H        -4.6372732648   -2.5966299277    0.5518944157
     48  H        -1.6187718543    3.7647659062   -0.3171751576
     49  H        -0.5803706312    2.7997588919   -1.4322744308
     50  H         2.6648294859    4.5451611338   -0.6870673433
     51  H         2.0521081012    3.5996764751    0.7244202937
     52  H         1.3605356116    3.3263619470   -0.9208849877
     53  H         0.2831407359   -2.7348896661   -1.2567432899
     54  H         0.2473491571   -1.8190149981   -2.8047884106
     55  H        -0.1625679081   -0.5576330643    0.0045725538
     56  H         0.0137917138    0.3559721221   -1.5231865890
   Point Group: c1    Number of degrees of freedom:   162


   Energy is  -1510.257570127

              Constraints and their Current Values
                                        Value     Constraint
   Dihedral:        1   2   3   4     -128.213     -128.202
   Dihedral:        3   4   5   6      -82.359      -82.361
   Dihedral:        4   5   6   7      157.065      157.067
   Dihedral:        5   6   7   8      106.629      106.626
   Dihedral:        6   7   8   9      164.218      164.218
   Dihedral:        7   8   9  10       71.909       71.907
   Dihedral:        8   9  10  11     -179.518     -179.503
   Dihedral:        9  10  11  12       77.910       77.904
   Dihedral:       11  12  13  14       23.571       23.559
 Hessian Updated using BFGS Update

   Using Lagrange Multiplier Algorithm


160 Hessian modes will be used to form the next step
  Hessian Eigenvalues:
    -0.977754   -0.977753   -0.977753   -0.977753   -0.977753   -0.977753
    -0.977700   -0.968826    0.044792    0.045001    0.045014    0.045083
     0.045374    0.045548    0.045560    0.045587    0.045996    0.048860
     0.048899    0.054120    0.058119    0.060037    0.062582    0.062760
     0.066881    0.067077    0.067136    0.067520    0.069395    0.070911
     0.071918    0.073496    0.073951    0.075919    0.076174    0.076863
     0.077209    0.082439    0.082673    0.083319    0.084240    0.084425
     0.084580    0.085320    0.085848    0.085984    0.086418    0.086900
     0.087355    0.088477    0.088877    0.089306    0.089494    0.089693
     0.090428    0.093744    0.093949    0.096611    0.096617    0.111559
     0.111620    0.114483    0.114731    0.115756    0.116116    0.116290
     0.117468    0.117914    0.118273    0.119896    0.123067    0.124640
     0.130130    0.130738    0.130858    0.138266    0.140627    0.158798
     0.160068    0.161710    0.171427    0.171818    0.172688    0.173810
     0.194716    0.220383    0.238505    0.239756    0.242626    0.246851
     0.247557    0.248036    0.248499    0.253228    0.258385    0.259435
     0.267013    0.267490    0.278917    0.281318    0.282922    0.286591
     0.295076    0.295664    0.298102    0.302352    0.309079    0.311754
     0.315077    0.320142    0.321938    0.322076    0.322180    0.322389
     0.322532    0.322818    0.322994    0.323100    0.323179    0.323310
     0.323417    0.323838    0.324139    0.324176    0.324388    0.324572
     0.324698    0.324928    0.325029    0.325070    0.325142    0.326320
     0.326931    0.327453    0.329125    0.335802    0.369471    0.370132
     0.384944    0.390565    0.406394    0.418432    0.465358    0.496720
     0.514730    0.525677    0.534361    0.537360    0.926794    0.931307
     0.942343    0.985419    1.022753    1.022753    1.022753    1.022753
     1.022753    1.022753    1.023346    1.055061

 Minimum Search - Taking P-RFO Step
 Searching for Lamda that Maximizes Along the Constraint modes Only
 Value Taken    Lamda =   0.00060820
 Searching for Lamda that Minimizes Along All other modes
 Value Taken    Lamda =  -0.04147672
 Calculated Step too Large.  Step scaled by  0.623984
 Step Taken.  Stepsize is  0.300000

                             Maximum     Tolerance    Cnvgd?
         Gradient            0.039488       0.000300      NO
         Displacement        0.121387       0.001200      NO
         Energy change     -0.036044       0.000001      NO


 New Cartesian Coordinates Obtained by Inverse Iteration

 Displacement from previous Coordinates is:  4.163463
 Adding empirical dispersion correction 
 ----------------------------------------------------------------
 Doing -D3(op) with
 s6 =   1.00000
 s8 =   0.78311
 a1 =   0.30000
 a2 =   4.25000
 n  =  10.00000
 -D3 energy without 3body term =     -0.0673701401 hartrees
 ----------------------------------------------------------------
             Standard Nuclear Orientation (Angstroms)
    I     Atom           X                Y                Z
 ----------------------------------------------------------------
    1      O      -3.4265821222     2.3716297279     1.2759589448
    2      C      -3.4522460916     1.6788270519     0.2343919446
    3      C      -4.5644516587     0.6656560245    -0.1883272340
    4      C      -4.1036835390    -0.7958177441    -0.5879598589
    5      C      -2.5886289812    -1.1320942739    -0.3612846019
    6      O      -1.8040116247    -0.6512286090    -1.4533921103
    7      C      -0.3971822698    -0.4528257753    -1.0474446429
    8      C       0.4822332790    -1.5936350138    -1.6769276943
    9      O       1.9400732026    -1.3334969805    -1.6691174044
   10      C       2.4739938575    -1.4323752842    -0.3499670463
   11      C       4.0120692514    -1.1374615835    -0.3853818643
   12      C       4.4632069860     0.3706759878    -0.4908672181
   13      C       3.3169823847     1.4099234019    -0.2903519428
   14      O       2.2310496596     1.2618123665     0.3146026639
   15      O      -2.5613226459     1.8813852080    -0.8498391410
   16      O       3.8135854239     2.6666480670    -0.7296668806
   17      O       1.8265906893    -1.8517866788     0.6339745323
   18      C       2.8643569598     3.7498104050    -0.4710177285
   19      C       4.6861067695    -1.5351902717     0.9966440913
   20      C       6.2120816932    -1.8241255731     0.7359439303
   21      C       6.7420101229    -0.3828336042     0.4367650085
   22      C       5.4529121093     0.4734688654     0.7411915985
   23      O       4.7306532200    -0.2848072816     1.7797748570
   24      H       4.4558446086    -1.7504771140    -1.1904259963
   25      H       4.9394423745     0.5959461583    -1.4622533515
   26      H       4.1738722512    -2.3679974363     1.5163396138
   27      H       6.6530960392    -2.1851079927     1.6801530328
   28      H       6.4111970827    -2.5671341988    -0.0526877994
   29      H       7.5527702207    -0.1253085661     1.1370321031
   30      H       7.0919332482    -0.2316250810    -0.5970361150
   31      H       5.6790441464     1.5189972268     1.0283333314
   32      O      -2.1164933163    -1.7968285593     0.5858469750
[...]
     15  O        -1.8698194328    1.4252728444    0.1059588323
     16  O         3.2659251997    2.5325931079   -1.2538094567
     17  O         1.8190299541   -1.8983126438    0.6273155284
     18  C         2.0737446109    3.4139061422   -1.2282909566
     19  C         4.7017468330   -1.4180671608    0.9619396731
     20  C         6.2621274494   -1.4537406342    0.7279275963
     21  C         6.5688922128    0.0751121504    0.5119316693
     22  C         5.1336250845    0.7063189095    0.7085953585
     23  O         4.4965213787   -0.1616729787    1.7211554826
     24  H         4.4578990770   -1.7010888509   -1.2519963366
     25  H         4.8488438710    0.6354573993   -1.5191379405
     26  H         4.2735431744   -2.2752054484    1.5167674314
     27  H         6.7756355262   -1.8450251808    1.6205072948
     28  H         6.5403255584   -2.0718724918   -0.1404893173
     29  H         7.2660676275    0.4606915867    1.2727868593
     30  H         6.9805633619    0.2907555620   -0.4869186908
     31  H         5.1241817518    1.7640730263    1.0366155530
     32  O        -2.0163694611   -1.6967535550    0.7068363051
     33  C        -0.8268820473    2.0776711382    0.9362970478
     34  C        -5.5506977197    0.7001564206    0.7511280235
     35  C        -6.7709053430    0.2191224327   -0.1296949463
     36  C        -6.4524364463   -1.3143716197   -0.2916558205
     37  C        -5.0496273360   -1.4008876390    0.4273586007
     38  O        -5.2108442193   -0.4831767816    1.5776603113
     39  H        -4.4381581202    1.4393399709   -1.0723156707
     40  H        -4.2350550576   -0.8442089803   -1.5734323590
     41  H        -0.9206007525    1.7822086745    1.9999500293
     42  H        -5.7364252763    1.5784460494    1.3994712457
     43  H        -7.7218980175    0.3835234286    0.4011948272
     44  H        -6.8115227744    0.7463411837   -1.0964817980
     45  H        -7.1923522519   -1.9358692984    0.2376852156
     46  H        -6.4082250837   -1.6349084726   -1.3448279305
     47  H        -4.7448373520   -2.4073584749    0.7742244865
     48  H        -0.9057980234    3.1822818302    0.8721473496
     49  H         0.1527623639    1.7401988699    0.5337179150
     50  H         2.3554348901    4.3225254272   -1.7911797175
     51  H         1.7958349381    3.6919672903   -0.1912225209
     52  H         1.1995189433    2.9320351217   -1.7118109134
     53  H         0.3237484062   -2.7785862964   -1.1636013871
     54  H         0.2708086113   -2.0121500754   -2.8061286897
     55  H        -0.1748457129   -0.6439912040   -0.0475541741
     56  H         0.0350516773    0.2899631625   -1.5861614849
   Point Group: c1    Number of degrees of freedom:   162


   Energy is  -1510.286297458

              Constraints and their Current Values
                                        Value     Constraint
   Dihedral:        1   2   3   4     -128.202     -128.202
   Dihedral:        3   4   5   6      -82.361      -82.361
   Dihedral:        4   5   6   7      157.067      157.067
   Dihedral:        5   6   7   8      106.626      106.626
   Dihedral:        6   7   8   9      164.218      164.218
   Dihedral:        7   8   9  10       71.907       71.907
   Dihedral:        8   9  10  11     -179.503     -179.503
   Dihedral:        9  10  11  12       77.904       77.904
   Dihedral:       11  12  13  14       23.559       23.559
 Hessian Updated using BFGS Update

153 Hessian modes will be used to form the next step
  Hessian Eigenvalues:
     0.003511    0.007366    0.013342    0.017892    0.022938    0.037062
     0.045499    0.045748    0.045766    0.046705    0.048561    0.049990
     0.053616    0.054270    0.057848    0.060281    0.062634    0.066332
     0.066884    0.067089    0.067715    0.069687    0.070251    0.072891
     0.074099    0.075051    0.076087    0.077038    0.077186    0.079459
     0.082240    0.082481    0.083432    0.084047    0.084768    0.085201
     0.085379    0.086287    0.086909    0.087720    0.087732    0.087831
     0.088974    0.089320    0.089707    0.089955    0.091575    0.093052
     0.094213    0.094319    0.096610    0.096729    0.111543    0.111705
     0.114584    0.115126    0.116315    0.117611    0.117899    0.118678
     0.119421    0.121745    0.122996    0.124411    0.125388    0.131081
     0.131167    0.138469    0.156455    0.159280    0.160082    0.160400
     0.160538    0.160987    0.162395    0.165183    0.172446    0.172856
     0.194471    0.209323    0.223994    0.238115    0.239496    0.244960
     0.246891    0.248562    0.249930    0.251311    0.253222    0.256602
     0.259044    0.265780    0.266935    0.268711    0.274758    0.278282
     0.281413    0.284826    0.290346    0.295336    0.296265    0.299541
     0.306901    0.309876    0.311676    0.317598    0.319478    0.321959
     0.322017    0.322426    0.322591    0.322927    0.323042    0.323092
     0.323190    0.323309    0.323536    0.323754    0.324178    0.324232
     0.324321    0.324551    0.324703    0.324729    0.325060    0.325208
     0.325287    0.326453    0.326876    0.328988    0.329869    0.334105
     0.335171    0.366082    0.368328    0.370154    0.379096    0.395356
     0.411255    0.451316    0.457833    0.486350    0.499194    0.513726
     0.530073    0.539716    0.556266    0.788855    0.927288    0.936058
     0.944863    1.010396    1.423100

 Minimum Search - Taking Simple RFO Step
 Searching for Lamda that Minimizes Along All modes
 Value Taken    Lamda =   0.00000000
 Step Taken.  Stepsize is  0.005894

                             Maximum     Tolerance    Cnvgd?
         Gradient           0.000075      0.000300     YES
         Displacement       0.002461      0.001200      NO
         Energy change     -0.000001      0.000001     YES

 Final energy is   -1510.28629745815     


 ******************************
 **  OPTIMIZATION CONVERGED  **
 ******************************

                       Coordinates (Angstroms)
     ATOM                X               Y               Z
      1  O        -3.3560513809    2.2214421794    1.7621555533
      2  C        -3.1539196764    1.5772705112    0.7093488996
      3  C        -4.2588574516    0.8504049606   -0.1535480043
      4  C        -3.9893728430   -0.6784298381   -0.5087680440
      5  C        -2.5119185300   -1.1482865124   -0.3000928786
      6  O        -1.7651712645   -0.7622469547   -1.4665914756
      7  C        -0.3255819089   -0.6615578193   -1.1451359945
      8  C         0.5203738394   -1.8483943663   -1.7385167988
      9  O         1.9646361608   -1.5007332083   -1.7149859125
     10  C         2.4693540705   -1.5215805816   -0.3699256423
     11  C         3.9917506928   -1.1329421161   -0.4270349388
     12  C         4.2738198719    0.4170640548   -0.6019338903
     13  C         2.9809511405    1.2959827619   -0.6018797484
     14  O         1.8726623932    1.0062990311   -0.0940570757
     15  O        -1.8698194328    1.4252728444    0.1059588323
     16  O         3.2659251997    2.5325931079   -1.2538094567
     17  O         1.8190299541   -1.8983126438    0.6273155284
     18  C         2.0737446109    3.4139061422   -1.2282909566
     19  C         4.7017468330   -1.4180671608    0.9619396731
     20  C         6.2621274494   -1.4537406342    0.7279275963
     21  C         6.5688922128    0.0751121504    0.5119316693
     22  C         5.1336250845    0.7063189095    0.7085953585
     23  O         4.4965213787   -0.1616729787    1.7211554826
     24  H         4.4578990770   -1.7010888509   -1.2519963366
     25  H         4.8488438710    0.6354573993   -1.5191379405
     26  H         4.2735431744   -2.2752054484    1.5167674314
     27  H         6.7756355262   -1.8450251808    1.6205072948
     28  H         6.5403255584   -2.0718724918   -0.1404893173
     29  H         7.2660676275    0.4606915867    1.2727868593
     30  H         6.9805633619    0.2907555620   -0.4869186908
     31  H         5.1241817518    1.7640730263    1.0366155530
     32  O        -2.0163694611   -1.6967535550    0.7068363051
     33  C        -0.8268820473    2.0776711382    0.9362970478
     34  C        -5.5506977197    0.7001564206    0.7511280235
     35  C        -6.7709053430    0.2191224327   -0.1296949463
     36  C        -6.4524364463   -1.3143716197   -0.2916558205
     37  C        -5.0496273360   -1.4008876390    0.4273586007
     38  O        -5.2108442193   -0.4831767816    1.5776603113
     39  H        -4.4381581202    1.4393399709   -1.0723156707
     40  H        -4.2350550576   -0.8442089803   -1.5734323590
     41  H        -0.9206007525    1.7822086745    1.9999500293
     42  H        -5.7364252763    1.5784460494    1.3994712457
     43  H        -7.7218980175    0.3835234286    0.4011948272
     44  H        -6.8115227744    0.7463411837   -1.0964817980
     45  H        -7.1923522519   -1.9358692984    0.2376852156
     46  H        -6.4082250837   -1.6349084726   -1.3448279305
     47  H        -4.7448373520   -2.4073584749    0.7742244865
     48  H        -0.9057980234    3.1822818302    0.8721473496
     49  H         0.1527623639    1.7401988699    0.5337179150
     50  H         2.3554348901    4.3225254272   -1.7911797175
     51  H         1.7958349381    3.6919672903   -0.1912225209
     52  H         1.1995189433    2.9320351217   -1.7118109134
     53  H         0.3237484062   -2.7785862964   -1.1636013871
     54  H         0.2708086113   -2.0121500754   -2.8061286897
     55  H        -0.1748457129   -0.6439912040   -0.0475541741
     56  H         0.0350516773    0.2899631625   -1.5861614849

Z-matrix Print:
$molecule
0 1
O 
C  1 1.253038
O  2 1.426684 1 124.211375
C  3 1.482787 2 110.286494 1 0.517808 0
H  4 1.105343 3 105.957162 2 -177.257651 0
H  4 1.109082 3 111.504442 2 63.666118 0
H  4 1.109172 3 111.591574 2 -57.983434 0
C  2 1.563332 1 126.977536 3 178.143525 0
H  8 1.104360 2 108.629861 1 149.266731 0
C  8 1.585141 2 113.739749 1 23.558981 0
H  10 1.104829 8 110.204744 2 125.513347 0
C  10 1.572257 8 114.709429 2 3.422554 0
O  12 1.248735 10 127.434355 8 -107.898981 0
O  12 1.436789 10 107.610890 8 77.903956 0
C  14 1.485704 12 110.665724 10 -179.502995 0
H  15 1.108555 14 105.584987 12 -168.674514 0
H  15 1.111056 14 111.084936 12 -49.983241 0
C  15 1.573634 14 109.884643 12 71.906956 0
H  18 1.108023 15 108.200768 14 -73.221300 0
H  18 1.109032 15 108.803550 14 45.835791 0
O  18 1.478475 15 112.960281 14 164.217961 0
C  21 1.437838 18 110.339767 15 106.626043 0
O  22 1.249116 21 124.460566 18 -19.595899 0
C  22 1.564347 21 107.556412 18 157.067018 0
H  24 1.105148 22 107.062330 21 38.395918 0
C  10 1.585762 8 101.115649 2 -115.997518 0
H  26 1.107194 10 113.888742 8 153.516470 0
O  26 1.482246 10 103.547184 8 33.784898 0
C  28 1.478036 26 95.002535 10 -56.603259 0
H  29 1.107488 28 110.750897 26 -179.722944 0
C  26 1.578234 10 108.472949 8 -75.611016 0
H  31 1.101586 26 110.411897 10 -168.732490 0
H  31 1.101648 26 112.286507 10 -47.165780 0
C  31 1.574214 26 101.014455 10 73.264052 0
H  34 1.101647 31 111.621662 26 119.185199 0
H  34 1.101670 31 112.788040 26 -118.043718 0
C  24 1.588212 22 114.534672 21 161.346274 0
H  37 1.107338 24 114.477538 22 -25.581476 0
O  37 1.480330 24 104.401563 22 95.347917 0
C  39 1.482880 37 94.965054 24 54.520784 0
H  40 1.107356 39 110.183163 37 179.701915 0
C  37 1.578715 24 107.446626 22 -155.855332 0
H  42 1.101758 37 112.566676 24 49.431475 0
H  42 1.101788 37 110.304367 24 171.144766 0
C  42 1.574566 37 100.733836 24 -71.125755 0
H  45 1.101480 42 111.688674 37 -122.238904 0
H  45 1.101947 42 112.530432 37 115.254898 0
C  40 1.584255 39 101.951704 37 -59.704944 0
H  48 1.105951 40 113.122355 39 159.695484 0
C  48 1.579181 40 107.587861 39 -80.108877 0
O  50 1.250686 48 125.729228 40 -16.984907 0
O  50 1.426918 48 110.460955 40 164.242481 0
C  52 1.484184 50 110.424418 48 -178.492648 0
H  53 1.107898 52 111.127558 50 48.477733 0
H  53 1.109283 52 110.816188 50 -72.071027 0
H  53 1.111603 52 106.452537 50 168.187913 0
$end

 
 --------------------------------------------------------------
 
                    Orbital Energies (a.u.)
 --------------------------------------------------------------
 
 Alpha MOs
 -- Occupied --
-18.953 -18.927 -18.926 -18.919 -18.894 -18.892 -18.879 -18.872
-18.870 -18.867 -10.116 -10.097 -10.092 -10.092 -10.077 -10.066
-10.064 -10.060 -10.055 -10.053 -10.051 -10.046 -10.044 -10.039
-10.034 -10.031 -10.024 -10.022 -10.016 -10.014  -1.028  -1.007
 -1.005  -0.997  -0.974  -0.963  -0.952  -0.933  -0.928  -0.926
 -0.768  -0.757  -0.728  -0.719  -0.713  -0.701  -0.689  -0.674
 -0.651  -0.615  -0.597  -0.579  -0.549  -0.541  -0.538  -0.532
 -0.517  -0.503  -0.481  -0.473  -0.466  -0.458  -0.453  -0.443
 -0.437  -0.430  -0.424  -0.422  -0.416  -0.410  -0.403  -0.388
 -0.387  -0.383  -0.372  -0.369  -0.360  -0.357  -0.351  -0.350
 -0.344  -0.337  -0.334  -0.331  -0.326  -0.324  -0.323  -0.315
 -0.309  -0.305  -0.304  -0.300  -0.288  -0.284  -0.279  -0.277
 -0.268  -0.264  -0.250  -0.242  -0.238  -0.237  -0.227  -0.194
 -0.181  -0.171  -0.168  -0.157  -0.151  -0.149  -0.148  -0.143
 -0.137
 -- Virtual --
  0.081   0.101   0.107   0.112   0.216   0.234   0.242   0.249
  0.266   0.278   0.283   0.292   0.302   0.314   0.324   0.330
  0.339   0.342   0.352   0.353   0.359   0.366   0.368   0.376
  0.379   0.383   0.388   0.394   0.399   0.407   0.411   0.413
  0.414   0.416   0.417   0.420   0.421   0.424   0.424   0.433
  0.436   0.437   0.442   0.444   0.446   0.454   0.462   0.464
  0.471   0.482   0.489   0.493   0.500   0.502   0.509   0.538
  0.547   0.548   0.558   0.636   0.644   0.652   0.659
 --------------------------------------------------------------
 
          Ground-State Mulliken Net Atomic Charges

     Atom                 Charge (a.u.)
  ----------------------------------------
      1 O                    -0.212779
      2 C                     0.208528
      3 C                    -0.076503
      4 C                    -0.079881
      5 C                     0.213380
      6 O                    -0.176582
      7 C                    -0.051743
      8 C                    -0.052130
      9 O                    -0.178400
     10 C                     0.212834
     11 C                    -0.080298
     12 C                    -0.077925
     13 C                     0.217883
     14 O                    -0.212005
     15 O                    -0.174014
     16 O                    -0.165247
     17 O                    -0.207057
     18 C                    -0.129020
     19 C                     0.025499
     20 C                    -0.143917
     21 C                    -0.143605
     22 C                     0.025892
     23 O                    -0.186662
     24 H                     0.085402
     25 H                     0.088606
     26 H                     0.091490
     27 H                     0.079383
     28 H                     0.074008
     29 H                     0.079201
     30 H                     0.074210
     31 H                     0.083283
     32 O                    -0.207388
     33 C                    -0.142817
     34 C                     0.023680
     35 C                    -0.145433
     36 C                    -0.142794
     37 C                     0.023872
     38 O                    -0.188645
     39 H                     0.083440
     40 H                     0.083029
     41 H                     0.091259
     42 H                     0.090457
     43 H                     0.077521
     44 H                     0.071799
     45 H                     0.077288
     46 H                     0.071921
     47 H                     0.086621
     48 H                     0.076295
     49 H                     0.108924
     50 H                     0.094771
     51 H                     0.090903
     52 H                     0.091945
     53 H                     0.090975
     54 H                     0.086630
     55 H                     0.109135
     56 H                     0.084781
  ----------------------------------------
  Sum of atomic charges =    -0.000000

 -----------------------------------------------------------------
                    Cartesian Multipole Moments
 -----------------------------------------------------------------
    Charge (ESU x 10^10)
                -0.0000
    Dipole Moment (Debye)
         X       2.4069      Y       1.3910      Z      -4.3620
       Tot       5.1725
    Quadrupole Moments (Debye-Ang)
        XX    -137.8025     XY       1.5352     YY    -152.5506
        XZ       7.3276     YZ       0.6716     ZZ    -168.3881
    Octopole Moments (Debye-Ang^2)
       XXX      44.5946    XXY     -22.1389    XYY      17.8639
       YYY      13.4979    XXZ     -49.8689    XYZ       5.1861
       YYZ     -11.6721    XZZ      14.0235    YZZ      -1.3770
       ZZZ      -4.6993
    Hexadecapole Moments (Debye-Ang^3)
      XXXX  -14905.9606   XXXY     -45.1829   XXYY   -2989.4665
      XYYY      77.8637   YYYY   -2230.1052   XXXZ     266.8339
      XXYZ     -15.6037   XYYZ      64.2928   YYYZ     -77.1487
      XXZZ   -2957.3961   XYZZ      18.0974   YYZZ    -569.9070
      XZZZ     127.4053   YZZZ     -54.5938   ZZZZ   -1104.2803
 -----------------------------------------------------------------
Archival summary:
1\1\vega02.cac.cornell.edu\OPT\ProcedureUnspecified\STO-3G\102026\jj585\TueJan1618:41:242018TueJan1618:41:242018\0\\#,OPT,ProcedureUnspecified,STO-3G,\\0,1\O\C,1,1.25304\O,2,1.42668,1,124.211\C,3,1.48279,2,110.286,1,0.517808,0\H,4,1.10534,3,105.957,2,-177.258,0\H,4,1.10908,3,111.504,2,63.6661,0\H,4,1.10917,3,111.592,2,-57.9834,0\C,2,1.56333,1,126.978,3,178.144,0\H,8,1.10436,2,108.63,1,149.267,0\C,8,1.58514,2,113.74,1,23.559,0\H,10,1.10483,8,110.205,2,125.513,0\C,10,1.57226,8,114.709,2,3.42255,0\O,12,1.24873,10,127.434,8,-107.899,0\O,12,1.43679,10,107.611,8,77.904,0\C,14,1.4857,12,110.666,10,-179.503,0\H,15,1.10855,14,105.585,12,-168.675,0\H,15,1.11106,14,111.085,12,-49.9832,0\C,15,1.57363,14,109.885,12,71.907,0\H,18,1.10802,15,108.201,14,-73.2213,0\H,18,1.10903,15,108.804,14,45.8358,0\O,18,1.47848,15,112.96,14,164.218,0\C,21,1.43784,18,110.34,15,106.626,0\O,22,1.24912,21,124.461,18,-19.5959,0\C,22,1.56435,21,107.556,18,157.067,0\H,24,1.10515,22,107.062,21,38.3959,0\C,10,1.58576,8,101.116,2,-115.998,0\H,26,1.10719,10,113.889,8,153.516,0\O,26,1.48225,10,103.547,8,33.7849,0\C,28,1.47804,26,95.0025,10,-56.6033,0\H,29,1.10749,28,110.751,26,-179.723,0\C,26,1.57823,10,108.473,8,-75.611,0\H,31,1.10159,26,110.412,10,-168.732,0\H,31,1.10165,26,112.287,10,-47.1658,0\C,31,1.57421,26,101.014,10,73.2641,0\H,34,1.10165,31,111.622,26,119.185,0\H,34,1.10167,31,112.788,26,-118.044,0\C,24,1.58821,22,114.535,21,161.346,0\H,37,1.10734,24,114.478,22,-25.5815,0\O,37,1.48033,24,104.402,22,95.3479,0\C,39,1.48288,37,94.9651,24,54.5208,0\H,40,1.10736,39,110.183,37,179.702,0\C,37,1.57871,24,107.447,22,-155.855,0\H,42,1.10176,37,112.567,24,49.4315,0\H,42,1.10179,37,110.304,24,171.145,0\C,42,1.57457,37,100.734,24,-71.1258,0\H,45,1.10148,42,111.689,37,-122.239,0\H,45,1.10195,42,112.53,37,115.255,0\C,40,1.58426,39,101.952,37,-59.7049,0\H,48,1.10595,40,113.122,39,159.695,0\C,48,1.57918,40,107.588,39,-80.1089,0\O,50,1.25069,48,125.729,40,-16.9849,0\O,50,1.42692,48,110.461,40,164.242,0\C,52,1.48418,50,110.424,48,-178.493,0\H,53,1.1079,52,111.128,50,48.4777,0\H,53,1.10928,52,110.816,50,-72.071,0\H,53,1.1116,52,106.453,50,168.188,0\\\@

 Total job time:  75.01s(wall), 3573.10s(cpu) 
 Tue Jan 16 18:41:24 2018

        *************************************************************
        *                                                           *
        *  Thank you very much for using Q-Chem.  Have a nice day.  *
        *                                                           *
        *************************************************************


0 sent ACK to 0 
now end server 0 ... 
