mFile = /opt/software/qchem/qchem-5.0.1//bin/mpi/machines
Process 0 of 1 is on vega02.cac.cornell.edu - thread support 0
initial socket setup ...start
initial socket setup ...done 
now start server 0 ... 
vega02.cac.cornell.edu 10.84.3
Q-Chem Developer Version! Running on 10.84.3.*
                  Welcome to Q-Chem
     A Quantum Leap Into The Future Of Chemistry


 Q-Chem 5.0, Q-Chem, Inc., Pleasanton, CA (2017)

 Yihan Shao,  Zhengting Gan,  E. Epifanovsky,  A. T. B. Gilbert,  M. Wormit,  
 J. Kussmann,  A. W. Lange,  A. Behn,  Jia Deng,  Xintian Feng,  D. Ghosh,  
 M. Goldey,  P. R. Horn,  L. D. Jacobson,  I. Kaliman,  T. Kus,  A. Landau,  
 Jie Liu,  E. I. Proynov,  R. M. Richard,  R. P. Steele,  E. J. Sundstrom,  
 H. L. Woodcock III,  P. M. Zimmerman,  D. Zuev,  B. Albrecht,  E. Alguire,  
 S. A. Baeppler,  Z. Benda,  Y. A. Bernard,  E. J. Berquist,  K. B. Bravaya,  
 D. Casanova,  Chun-Min Chang,  Yunqing Chen,  A. Chien,  K. D. Closser,  
 M. P. Coons,  S. Dasgupta,  M. Diedenhofen,  Hainam Do,  R. G. Edgar,  
 Po-Tung Fang,  S. Fatehi,  Qingguo Feng,  Qinghui Ge,  A. Ghysels,  
 J. Gomes,  J. Gonthier,  A. Gunina,  M. W. D. Hanson-Heine,  
 P. H. P. Harbach,  A. W. Hauser,  J. E. Herr,  E. G. Hohenstein,  
 Z. C. Holden,  Kerwin Hui,  T.-C. Jagau,  Hyunjun Ji,  B. Kaduk,  
 K. Khistyaev,  Jaehoon Kim,  P. Klunzinger,  K. Koh,  D. Kosenkov,  
 T. Kowalczyk,  C. M. Krauter,  A. Kunitsa,  Ka Un Lao,  A. Laurent,  
 K. V. Lawler,  Joonho Lee,  D. Lefrancois,  S. Lehtola,  D. S. Levine,  
 Yi-Pei Li,  You-Sheng Lin,  Fenglai Liu,  E. Livshits,  A. Luenser,  
 P. Manohar,  E. Mansoor,  S. F. Manzer,  Shan-Ping Mao,  Yuezhi Mao,  
 N. Mardirossian,  A. V. Marenich,  L. A. Martinez-Martinez,  S. A. Maurer,  
 N. J. Mayhall,  S. C. McKenzie,  J.-M. Mewes,  A. F. Morrison,  K. Nanda,  
 T. S. Nguyen-Beck,  R. Olivares-Amaya,  J. A. Parkhill,  T. M. Perrine,  
 F. Plasser,  S. Prager,  A. Prociuk,  D. R. Rehn,  F. Rob,  M. Schneider,  
 N. Sergueev,  S. M. Sharada,  S. Sharma,  D. W. Small,  T. Stauch,  
 T. Stein,  Yu-Chuan Su,  A. J. W. Thom,  T. Tsuchimochi,  L. Vogt,  
 O. Vydrov,  M. A. Watson,  J. Wenzel,  M. de Wergifosse,  T. A. Wesolowski,  
 A. White,  J. Witte,  A. Yamada,  Jun Yang,  K. Yao,  S. Yeganeh,  
 S. R. Yost,  Zhi-Qiang You,  A. Zech,  Igor Ying Zhang,  Xing Zhang,  
 Yan Zhao,  Ying Zhu,  B. R. Brooks,  G. K. L. Chan,  C. J. Cramer,  
 M. S. Gordon,  W. J. Hehre,  A. Klamt,  M. W. Schmidt,  C. D. Sherrill,  
 D. G. Truhlar,  A. Aspuru-Guzik,  R. Baer,  A. T. Bell,  N. A. Besley,  
 Jeng-Da Chai,  A. Dreuw,  B. D. Dunietz,  T. R. Furlani,  Chao-Ping Hsu,  
 Yousung Jung,  Jing Kong,  D. S. Lambrecht,  WanZhen Liang,  C. Ochsenfeld,  
 V. A. Rassolov,  L. V. Slipchenko,  J. E. Subotnik,  T. Van Voorhis,  
 J. M. Herbert,  A. I. Krylov,  P. M. W. Gill,  M. Head-Gordon

 Contributors to earlier versions of Q-Chem not listed above: 
 R. D. Adamson,  B. Austin,  J. Baker,  G. J. O. Beran,  K. Brandhorst,  
 S. T. Brown,  E. F. C. Byrd,  A. K. Chakraborty,  C.-L. Cheng,  
 Siu Hung Chien,  D. M. Chipman,  D. L. Crittenden,  H. Dachsel,  
 R. A. DiStasio Jr.,  R. J. Doerksen,  A. D. Dutoi,  L. Fusti-Molnar,  
 W. A. Goddard III,  A. Golubeva-Zadorozhnaya,  S. R. Gwaltney,  G. Hawkins,  
 A. Heyden,  S. Hirata,  G. Kedziora,  F. J. Keil,  C. Kelley,  Jihan Kim,  
 R. A. King,  R. Z. Khaliullin,  P. P. Korambath,  W. Kurlancheek,  
 A. M. Lee,  M. S. Lee,  S. V. Levchenko,  Ching Yeh Lin,  D. Liotard,  
 R. C. Lochan,  I. Lotan,  P. E. Maslen,  N. Nair,  D. P. O'Neill,  
 D. Neuhauser,  E. Neuscamman,  C. M. Oana,  R. Olson,  B. Peters,  
 R. Peverati,  P. A. Pieniazek,  Y. M. Rhee,  J. Ritchie,  M. A. Rohrdanz,  
 E. Rosta,  N. J. Russ,  H. F. Schaefer III,  N. E. Schultz,  N. Shenvi,  
 A. C. Simmonett,  A. Sodt,  D. Stuck,  K. S. Thanthiriwatte,  V. Vanovschi,  
 Tao Wang,  A. Warshel,  C. F. Williams,  Q. Wu,  X. Xu,  W. Zhang

 Please cite Q-Chem as follows:
 Y. Shao et al., Mol. Phys. 113, 184-215 (2015)
 DOI: 10.1080/00268976.2014.952696

 Q-Chem 5.0.1 for Intel X86 EM64T Linux

 Parts of Q-Chem use Armadillo 5.200.1 (Boston Tea Smuggler).
 http://arma.sourceforge.net/

 Q-Chem begins on Tue Jan 16 18:55:08 2018  

Host: vega02.cac.cornell.edu
0

     Scratch files written to /scratch/jj585/SOT1001/1238r.save//
 Parallel job on  1  processors

Checking the input file for inconsistencies... 	...done.

--------------------------------------------------------------
User input:
--------------------------------------------------------------
$molecule
0  1
O -3.3868320169 2.2772873378 1.8319192966
C -2.9885319366 1.5619050801 0.8863716478
C -3.8956584523 0.9699499757 -0.2596807691
C -3.706856936 -0.5634067686 -0.6510380114
C -2.5590446715 -1.3105439109 0.110528894
O -1.3320959794 -1.0172851105 -0.5595175358
C -0.1647725458 -1.4184193774 0.2597376639
C 0.7008377112 -2.5018265463 -0.496352074
O 1.9853847815 -1.9003073673 -0.931917244
C 2.8550697134 -1.6692861556 0.1826142654
C 4.1577987717 -1.0257522293 -0.4124556418
C 3.9216404403 0.467994386 -0.9069450562
C 2.478977141 0.9925398155 -0.5938622576
O 1.8285823353 0.7951362902 0.4635098747
O -1.6133662771 1.2670220587 0.6417449375
O 1.9854836155 1.7103748945 -1.7176794664
O 2.6166824942 -2.0042702627 1.3611004385
C 0.611070919 2.21748919 -1.4698244788
C 5.2766450391 -0.8117180833 0.6872537523
C 6.6506771596 -0.5619980949 -0.0477363417
C 6.4385421153 0.8989962804 -0.5938631581
C 5.0032627233 1.2351092522 -0.0248706054
O 4.9510655981 0.5140646886 1.264971034
H 4.5082081931 -1.6597256604 -1.2463978199
H 4.1097489115 0.5848113178 -1.9883287035
H 5.2844552992 -1.5839105377 1.4810450377
H 7.4843902231 -0.6062082835 0.67105878
H 6.8350114016 -1.2952485056 -0.8490187021
H 7.1868086061 1.5973422106 -0.1866577726
H 6.4689531777 0.9507233235 -1.6940623425
H 4.7956882142 2.3128773956 0.1226431406
O -2.6574988562 -2.0019646521 1.14788454
C -0.7604223492 1.8415359623 1.7122050416
C -5.4076583405 0.9685281174 0.2175348521
C -6.3478325316 0.8323610989 -1.043005175
C -6.1602254404 -0.6899379761 -1.3984330159
C -5.1386571828 -1.1394863748 -0.2806558184
O -5.5416919333 -0.3401514212 0.8985421514
H -3.751812804 1.6046504939 -1.154324836
H -3.5032712238 -0.6468055271 -1.733821064
H -1.0048668832 1.4001745759 2.6988648956
H -5.6453130669 1.7948426175 0.9158092265
H -7.391188202 1.0578411429 -0.771044087
H -6.0442222091 1.5022699088 -1.8633898479
H -7.1057268718 -1.2472542336 -1.3026443065
H -5.7607142008 -0.8446952235 -2.4136172634
H -5.1429353867 -2.2188648181 -0.0341175462
H -0.882667096 2.9414448909 1.7776080289
H 0.2794476992 1.5819457246 1.4221708267
H 0.2342269952 2.5524812837 -2.4534591381
H 0.6301965593 3.0803501753 -0.7734101324
H -0.0649216289 1.441448356 -1.0512158225
H 0.8793564727 -3.3844521074 0.1540174095
H 0.1888852378 -2.8222386445 -1.4261116775
H -0.5306717244 -1.8176935585 1.2287768907
H 0.4606735625 -0.5128808259 0.4300082295
$end

$rem
JOBTYPE                   OPT
METHOD                    B3LYP
DFT_D                     d3_op
BASIS                     STO-3G
GEOM_OPT_MAX_CYCLES       100
GEOM_OPT_TOL_GRADIENT     300
GEOM_OPT_TOL_DISPLACEMENT 1200
GEOM_OPT_TOL_ENERGY       100
SYMMETRY                  False
THRESH                    12
SCF_CONVERGENCE           8
MAX_SUB_FILE_NUM          128
MEM_STATIC                400
MEM_TOTAL                 4000
$end
--------------------------------------------------------------
 Adding empirical dispersion correction 
 ----------------------------------------------------------------
 Doing -D3(op) with
 s6 =   1.00000
 s8 =   0.78311
 a1 =   0.30000
 a2 =   4.25000
 n  =  10.00000
 -D3 energy without 3body term =     -0.0725070327 hartrees
 ----------------------------------------------------------------
             Standard Nuclear Orientation (Angstroms)
    I     Atom           X                Y                Z
 ----------------------------------------------------------------
    1      O      -3.4368760961     2.2381320219     1.7650350042
    2      C      -3.0198650864     1.5093869144     0.8379387465
    3      C      -3.9098675518     0.8712682323    -0.2967090678
    4      C      -3.6868762960    -0.6664770602    -0.6511152248
    5      C      -2.5261891842    -1.3706625059     0.1315720321
    6      O      -1.3033109733    -1.0670059010    -0.5412783098
    7      C      -0.1307285544    -1.4235865404     0.2909671464
    8      C       0.7606470259    -2.5056780697    -0.4365295199
    9      O       2.0336492396    -1.8871579993    -0.8820649307
   10      C       2.8940522505    -1.6113359378     0.2294799472
   11      C       4.1849261917    -0.9541896413    -0.3764493566
   12      C       3.9187252166     0.5220818919    -0.9068538157
   13      C       2.4640250420     1.0227760719    -0.6108827331
   14      O       1.8140775810     0.8364231248     0.4487673309
   15      O      -1.6378107070     1.2384025737     0.6047607152
   16      O       1.9594740821     1.7031828624    -1.7529261243
   17      O       2.6585069630    -1.9235047633     1.4147822379
   18      C       0.5736232850     2.1863829001    -1.5215334805
   19      C       5.2948500693    -0.6903480977     0.7214782198
   20      C       6.6659490143    -0.4285815841    -0.0147966978
   21      C       6.4246575976     1.0142534926    -0.5959728628
   22      C       4.9804178333     1.3327977128    -0.0396883395
   23      O       4.9388587904     0.6413833361     1.2666578102
   24      H       4.5519030183    -1.5999659789    -1.1940492348
   25      H       4.1083071722     0.6174027388    -1.9900870332
   26      H       5.3162195833    -1.4432818274     1.5333162173
   27      H       7.4977420636    -0.4379452802     0.7075128511
   28      H       6.8688909048    -1.1763791556    -0.7979327523
   29      H       7.1563062769     1.7378951279    -0.2029855868
   30      H       6.4580406687     1.0406900443    -1.6969839637
   31      H       4.7493032584     2.4090388021     0.0816493055
   32      O      -2.6136902362    -2.0394084841     1.1846555932
   33      C      -0.8013245301     1.8561454467     1.6640760708
   34      C      -5.4232529456     0.8486406521     0.1755547095
   35      C      -6.3556143461     0.6626724396    -1.0844247226
   36      C      -6.1341870374    -0.8632000607    -1.4031768270
   37      C      -5.1073988564    -1.2642660589    -0.2718177207
   38      O      -5.5318057565    -0.4462085130     0.8868633678
   39      H      -3.7763030079     1.4876586944    -1.2056357071
   40      H      -3.4775352074    -0.7709710417    -1.7309665806
   41      H      -1.0399392561     1.4330046160     2.6601009304
   42      H      -5.6811098834     1.6858842674     0.8533418828
   43      H      -7.4045546096     0.8720536956    -0.8212157718
   44      H      -6.0633511731     1.3194312034    -1.9194326369
   45      H      -7.0679068521    -1.4382675830    -1.2972783055
   46      H      -5.7276919965    -1.0332192779    -2.4131339252
   47      H      -5.0895157982    -2.3373805640     0.0001431251
   48      H      -0.9472978971     2.9544130367     1.7030768020
   49      H       0.2449272670     1.6121707778     1.3835939986
   50      H       0.1933586306     2.4899466819    -2.5140132091
   51      H       0.5717118484     3.0656212094    -0.8456458020
   52      H      -0.0871736911     1.4060901357    -1.0868737676
   53      H       0.9555782821    -3.3687038826     0.2350846149
   54      H       0.2591172482    -2.8588159914    -1.3600952503
   55      H      -0.4916036714    -1.8076830742     1.2679922773
   56      H       0.4745788979    -0.5010746278     0.4417969433
 ----------------------------------------------------------------
 Molecular Point Group                 C1    NOp =  1
 Largest Abelian Subgroup              C1    NOp =  1
 Nuclear Repulsion Energy =  3201.7969746776 hartrees
 There are      113 alpha and      113 beta electrons
 Requested basis set is STO-3G
 There are 86 shells and 176 basis functions

 Total QAlloc Memory Limit   4000 MB
 Mega-Array Size       392 MB
 MEM_STATIC part       400 MB
 A cutoff of  1.0D-12 yielded   2296 shell pairs
 There are     10762 function pairs
 
 -------------------------------------------------------
 OpenMP Integral Computing Module                       
 Release: version 1.0, May 2013, Q-Chem Inc. Pittsburgh 
 -------------------------------------------------------
 Integral Job Info:
 Integral job number is                      11
 Integral operator is                         1
 short-range coefficients                     0
 long-range coefficients              100000000
 Omega coefficients                           0
 if combine SR and LR in K                    0
 Integral screening is                        0
 Integral computing path is                   2
 max size of driver memory is            800000
 size of driver memory is                 45569
 size of scratch memory is              1046100
 max col of scratch BK array                289
 max len of scratch array in speh3           22
 max len of scratch index in speh4            8
 max int batch size is                      520
 min int batch size is                       52
 fixed nKL is                                52
 max L of basis functions is                  1
 order of int derivative is                   0
 number of shells is                         86
 number of basis is                         176
 number of cartesian basis is               176
 number of contracted shell pairs          2296
 number of primitive shell pairs          11676
 maxK2 (contraction) of shell pair            9
 max number of K2 of shell pair               1
 max number of CS2 of shell pair            361
 max number of PS2 of shell pair           1320
 mem total for path MDJ                   49782
 -------------------------------------------------------
 Smallest overlap matrix eigenvalue = 2.13E-01

 Scale SEOQF with 1.000000e-02/1.000000e-01/1.000000e-01

 Standard Electronic Orientation quadrupole field applied
 Nucleus-field energy     =     0.0000000214 hartrees
 Guess from superposition of atomic densities
 Warning:  Energy on first SCF cycle will be non-variational
 A restricted hybrid HF-DFT SCF calculation will be
 performed using Pulay DIIS extrapolation
 Exchange:     0.2000 Hartree-Fock + 0.0800 Slater + 0.7200 B88
 Correlation:  0.1900 VWN1RPA + 0.8100 LYP
 Using SG-1 standard quadrature grid
 Dispersion:   Grimme D3
 SCF converges when DIIS error is below 1.0E-08
 using 48 threads for integral computing
 -------------------------------------------------------
 OpenMP Integral computing Module                
 Release: version 1.0, May 2013, Q-Chem Inc. Pittsburgh 
 -------------------------------------------------------
 -------------------------------------------------------
 OpenMP BLAS3 based DFT computing Module                
 Release: version 1.0, May 2013, Q-Chem Inc. Pittsburgh 
 -------------------------------------------------------
 ---------------------------------------
  Cycle       Energy         DIIS Error
 ---------------------------------------
    1   -1507.6483320745      7.47E-02
    2   -1509.7503943233      1.04E-02
    3   -1507.3115451730      2.77E-02
    4   -1510.1819973122      4.93E-03
    5   -1510.2802608393      1.51E-03
    6   -1510.2895803385      4.20E-04
    7   -1510.2902791799      1.58E-04
    8   -1510.2903857666      3.78E-05
    9   -1510.2903909546      1.69E-05
   10   -1510.2903920488      6.14E-06
   11   -1510.2903922096      1.44E-06
   12   -1510.2903922192      2.68E-07
   13   -1510.2903922194      1.06E-07
   14   -1510.2903922194      5.43E-08
   15   -1510.2903922194      1.72E-08
   16   -1510.2903922195      5.79E-09 Convergence criterion met
 ---------------------------------------
 SCF time:  CPU 129.81 s  wall 2.76 s
 SCF   energy in the final basis set = -1510.29039222
 Total energy in the final basis set = -1510.29039222
 
 --------------------------------------------------------------
 
                    Orbital Energies (a.u.)
 --------------------------------------------------------------
 
 Alpha MOs
 -- Occupied --
-18.954 -18.932 -18.927 -18.923 -18.892 -18.892 -18.883 -18.876
-18.871 -18.871 -10.116 -10.099 -10.096 -10.095 -10.068 -10.068
-10.067 -10.062 -10.055 -10.054 -10.049 -10.047 -10.046 -10.040
-10.037 -10.035 -10.025 -10.023 -10.018 -10.017  -1.026  -1.011
 -1.009  -1.002  -0.975  -0.966  -0.950  -0.937  -0.933  -0.929
 -0.768  -0.760  -0.729  -0.721  -0.713  -0.704  -0.692  -0.671
 -0.654  -0.617  -0.598  -0.582  -0.550  -0.543  -0.539  -0.534
 -0.517  -0.507  -0.481  -0.476  -0.464  -0.459  -0.454  -0.448
 -0.436  -0.431  -0.422  -0.419  -0.415  -0.409  -0.407  -0.403
 -0.393  -0.381  -0.375  -0.371  -0.362  -0.359  -0.355  -0.349
 -0.346  -0.338  -0.335  -0.333  -0.329  -0.327  -0.326  -0.315
 -0.309  -0.308  -0.305  -0.302  -0.294  -0.286  -0.281  -0.277
 -0.270  -0.265  -0.250  -0.244  -0.239  -0.237  -0.230  -0.193
 -0.181  -0.174  -0.169  -0.158  -0.155  -0.153  -0.149  -0.147
 -0.140
 -- Virtual --
  0.078   0.101   0.105   0.106   0.223   0.230   0.245   0.253
  0.261   0.266   0.279   0.287   0.297   0.308   0.323   0.330
  0.337   0.339   0.348   0.350   0.355   0.357   0.367   0.373
  0.378   0.383   0.384   0.391   0.403   0.406   0.411   0.413
  0.414   0.416   0.417   0.420   0.421   0.427   0.429   0.431
  0.434   0.434   0.441   0.443   0.445   0.453   0.462   0.470
  0.474   0.484   0.492   0.498   0.501   0.506   0.514   0.536
  0.545   0.547   0.555   0.634   0.640   0.652   0.655
 --------------------------------------------------------------
 
          Ground-State Mulliken Net Atomic Charges

     Atom                 Charge (a.u.)
  ----------------------------------------
      1 O                    -0.212457
      2 C                     0.207253
      3 C                    -0.077870
      4 C                    -0.078944
      5 C                     0.211216
      6 O                    -0.176193
      7 C                    -0.067184
      8 C                    -0.052073
      9 O                    -0.180609
     10 C                     0.211208
     11 C                    -0.078878
     12 C                    -0.077463
     13 C                     0.221140
     14 O                    -0.217459
     15 O                    -0.174270
     16 O                    -0.161579
     17 O                    -0.207469
     18 C                    -0.134830
     19 C                     0.025056
     20 C                    -0.143627
     21 C                    -0.143770
     22 C                     0.025754
     23 O                    -0.185721
     24 H                     0.086557
     25 H                     0.088981
     26 H                     0.090828
     27 H                     0.079268
     28 H                     0.073994
     29 H                     0.079154
     30 H                     0.074371
     31 H                     0.082624
     32 O                    -0.212727
     33 C                    -0.141822
     34 C                     0.023331
     35 C                    -0.144527
     36 C                    -0.144002
     37 C                     0.024707
     38 O                    -0.188071
     39 H                     0.082133
     40 H                     0.082836
     41 H                     0.088079
     42 H                     0.091353
     43 H                     0.078067
     44 H                     0.071727
     45 H                     0.077622
     46 H                     0.071707
     47 H                     0.086354
     48 H                     0.081634
     49 H                     0.109859
     50 H                     0.091911
     51 H                     0.086274
     52 H                     0.110239
     53 H                     0.090475
     54 H                     0.091814
     55 H                     0.099041
     56 H                     0.104979
  ----------------------------------------
  Sum of atomic charges =    -0.000000

 -----------------------------------------------------------------
                    Cartesian Multipole Moments
 -----------------------------------------------------------------
    Charge (ESU x 10^10)
                -0.0000
    Dipole Moment (Debye)
         X       2.1772      Y       0.9086      Z      -5.0060
       Tot       5.5341
    Quadrupole Moments (Debye-Ang)
        XX    -149.1075     XY      -0.9468     YY    -155.4877
        XZ       6.4533     YZ       0.7185     ZZ    -167.5343
    Octopole Moments (Debye-Ang^2)
       XXX      88.8875    XXY      -4.5959    XYY      12.4871
       YYY      -2.0506    XXZ     -89.4197    XYZ       0.4859
       YYZ      -9.3128    XZZ      -2.5013    YZZ       1.5811
       ZZZ       7.8467
    Hexadecapole Moments (Debye-Ang^3)
      XXXX  -14856.7344   XXXY     -60.4672   XXYY   -2909.1929
      XYYY      30.0281   YYYY   -2034.5219   XXXZ     126.6972
      XXYZ      -8.5316   XYYZ      32.5595   YYYZ       0.7058
      XXZZ   -2885.4251   XYZZ      -7.0093   YYZZ    -553.0706
      XZZZ     -27.2294   YZZZ      -6.4220   ZZZZ   -1057.8737
 -----------------------------------------------------------------
 Calculating analytic gradient of the SCF energy
 Gradient of SCF Energy
            1           2           3           4           5           6
    1   0.0003018   0.0001324  -0.0002867  -0.0002377  -0.0000122  -0.0024744
    2   0.0019474  -0.0026690   0.0005941   0.0019465  -0.0061204  -0.0003870
    3  -0.0013646   0.0014432  -0.0003199   0.0021111  -0.0045302   0.0042003
            7           8           9          10          11          12
    1   0.0055236  -0.0022622   0.0001229  -0.0027338   0.0019547  -0.0002935
    2   0.0072174  -0.0065421   0.0026326   0.0064204  -0.0054081  -0.0006423
    3  -0.0022875  -0.0033585   0.0037811   0.0012422  -0.0016660  -0.0001043
           13          14          15          16          17          18
    1   0.0010523  -0.0005936   0.0000028  -0.0000202   0.0000242   0.0000245
    2   0.0021808  -0.0013533   0.0000740   0.0000773   0.0000108  -0.0000637
    3   0.0012458  -0.0006112   0.0000697   0.0000420   0.0000728  -0.0000626
           19          20          21          22          23          24
    1  -0.0000153  -0.0000863   0.0000405   0.0000194  -0.0000376   0.0000151
    2   0.0000854  -0.0001025   0.0001691  -0.0000008   0.0000150  -0.0000434
    3  -0.0000839  -0.0000690   0.0000199  -0.0000168   0.0000241   0.0000515
           25          26          27          28          29          30
    1   0.0000084   0.0000370  -0.0000065   0.0000868  -0.0000189  -0.0000492
    2  -0.0000078   0.0000008   0.0000353  -0.0000357  -0.0000072  -0.0000452
    3   0.0000020   0.0000406   0.0000261   0.0000730  -0.0000392   0.0000166
           31          32          33          34          35          36
    1   0.0000302   0.0000142  -0.0000433   0.0000811   0.0000227  -0.0000846
    2   0.0000172  -0.0000075  -0.0000461   0.0000617  -0.0000261   0.0000367
    3   0.0000244   0.0000349  -0.0000273   0.0002027  -0.0000534  -0.0000603
           37          38          39          40          41          42
    1   0.0000341  -0.0000525   0.0000029  -0.0000311   0.0000017  -0.0000142
    2  -0.0000698  -0.0000137   0.0000047  -0.0000164   0.0000038   0.0000095
    3   0.0000604  -0.0000902   0.0000591   0.0000041  -0.0000014  -0.0000688
           43          44          45          46          47          48
    1  -0.0000055  -0.0000188   0.0000120   0.0000217  -0.0000285  -0.0000152
    2  -0.0000323   0.0000365  -0.0000010   0.0000194  -0.0000070   0.0000163
    3   0.0000238  -0.0000155  -0.0000198  -0.0000021  -0.0000185  -0.0000021
           49          50          51          52          53          54
    1  -0.0000037  -0.0000246  -0.0000332   0.0000247  -0.0000337  -0.0000171
    2   0.0000044  -0.0000093   0.0000625  -0.0000204  -0.0000623   0.0000366
    3  -0.0000197  -0.0000032  -0.0000185   0.0000801   0.0000015   0.0000151
           55          56
    1  -0.0000089  -0.0000487
    2   0.0000162   0.0000080
    3  -0.0000049  -0.0000488
 Max gradient component =       7.217E-03
 RMS gradient           =       1.486E-03
 Gradient time:  CPU 32.35 s  wall 0.70 s
 Geometry Optimization Parameters
   NAtoms,    NIC,     NZ,  NCons,   NDum,   NFix, NCnnct, MaxDiis
       56     458       0       0       0       0       0       0


** GEOMETRY OPTIMIZATION IN DELOCALIZED INTERNAL COORDINATES **
   Searching for a Minimum

   Optimization Cycle:   1

                       Coordinates (Angstroms)
     ATOM                X               Y               Z
      1  O        -3.4368760961    2.2381320219    1.7650350042
      2  C        -3.0198650864    1.5093869144    0.8379387465
      3  C        -3.9098675518    0.8712682323   -0.2967090678
      4  C        -3.6868762960   -0.6664770602   -0.6511152248
      5  C        -2.5261891842   -1.3706625059    0.1315720321
      6  O        -1.3033109733   -1.0670059010   -0.5412783098
      7  C        -0.1307285544   -1.4235865404    0.2909671464
      8  C         0.7606470259   -2.5056780697   -0.4365295199
      9  O         2.0336492396   -1.8871579993   -0.8820649307
     10  C         2.8940522505   -1.6113359378    0.2294799472
     11  C         4.1849261917   -0.9541896413   -0.3764493566
     12  C         3.9187252166    0.5220818919   -0.9068538157
     13  C         2.4640250420    1.0227760719   -0.6108827331
     14  O         1.8140775810    0.8364231248    0.4487673309
     15  O        -1.6378107070    1.2384025737    0.6047607152
     16  O         1.9594740821    1.7031828624   -1.7529261243
     17  O         2.6585069630   -1.9235047633    1.4147822379
     18  C         0.5736232850    2.1863829001   -1.5215334805
     19  C         5.2948500693   -0.6903480977    0.7214782198
     20  C         6.6659490143   -0.4285815841   -0.0147966978
     21  C         6.4246575976    1.0142534926   -0.5959728628
     22  C         4.9804178333    1.3327977128   -0.0396883395
     23  O         4.9388587904    0.6413833361    1.2666578102
     24  H         4.5519030183   -1.5999659789   -1.1940492348
     25  H         4.1083071722    0.6174027388   -1.9900870332
     26  H         5.3162195833   -1.4432818274    1.5333162173
     27  H         7.4977420636   -0.4379452802    0.7075128511
     28  H         6.8688909048   -1.1763791556   -0.7979327523
     29  H         7.1563062769    1.7378951279   -0.2029855868
     30  H         6.4580406687    1.0406900443   -1.6969839637
     31  H         4.7493032584    2.4090388021    0.0816493055
     32  O        -2.6136902362   -2.0394084841    1.1846555932
     33  C        -0.8013245301    1.8561454467    1.6640760708
     34  C        -5.4232529456    0.8486406521    0.1755547095
     35  C        -6.3556143461    0.6626724396   -1.0844247226
     36  C        -6.1341870374   -0.8632000607   -1.4031768270
     37  C        -5.1073988564   -1.2642660589   -0.2718177207
     38  O        -5.5318057565   -0.4462085130    0.8868633678
     39  H        -3.7763030079    1.4876586944   -1.2056357071
     40  H        -3.4775352074   -0.7709710417   -1.7309665806
     41  H        -1.0399392561    1.4330046160    2.6601009304
     42  H        -5.6811098834    1.6858842674    0.8533418828
     43  H        -7.4045546096    0.8720536956   -0.8212157718
     44  H        -6.0633511731    1.3194312034   -1.9194326369
     45  H        -7.0679068521   -1.4382675830   -1.2972783055
     46  H        -5.7276919965   -1.0332192779   -2.4131339252
     47  H        -5.0895157982   -2.3373805640    0.0001431251
     48  H        -0.9472978971    2.9544130367    1.7030768020
     49  H         0.2449272670    1.6121707778    1.3835939986
     50  H         0.1933586306    2.4899466819   -2.5140132091
     51  H         0.5717118484    3.0656212094   -0.8456458020
     52  H        -0.0871736911    1.4060901357   -1.0868737676
     53  H         0.9555782821   -3.3687038826    0.2350846149
     54  H         0.2591172482   -2.8588159914   -1.3600952503
     55  H        -0.4916036714   -1.8076830742    1.2679922773
     56  H         0.4745788979   -0.5010746278    0.4417969433
   Point Group: c1    Number of degrees of freedom:   162


   Energy is  -1510.290392219


 Attempting to Generate Delocalized Internal Coordinates

162 Hessian modes will be used to form the next step
  Hessian Eigenvalues:
     0.002000    0.002000    0.002000    0.002000    0.002000    0.002687
     0.002688    0.004295    0.004356    0.004415    0.004480    0.004563
     0.004619    0.004681    0.004869    0.006836    0.006841    0.011353
     0.011887    0.012002    0.012749    0.021680    0.021730    0.026151
     0.026351    0.030594    0.030910    0.035469    0.035520    0.040683
     0.041291    0.041420    0.041836    0.044192    0.046657    0.046935
     0.048254    0.048784    0.049088    0.050762    0.051427    0.053235
     0.054317    0.054333    0.054547    0.055279    0.055786    0.056110
     0.056766    0.058297    0.059083    0.060493    0.060812    0.063820
     0.063944    0.063989    0.064175    0.069899    0.070280    0.072957
     0.072968    0.091559    0.092702    0.092798    0.093554    0.095178
     0.095804    0.095851    0.097435    0.102785    0.103598    0.109728
     0.110844    0.111638    0.112024    0.120607    0.121026    0.136326
     0.136928    0.157213    0.158069    0.160000    0.160000    0.160000
     0.160000    0.160000    0.160000    0.163117    0.163860    0.218919
     0.220564    0.221094    0.221882    0.224187    0.224937    0.238294
     0.238426    0.239718    0.239839    0.246701    0.247489    0.249369
     0.249506    0.249815    0.249933    0.250000    0.250000    0.250000
     0.250000    0.250000    0.250000    0.250000    0.250000    0.252900
     0.253479    0.253530    0.254823    0.260072    0.262503    0.262814
     0.292528    0.292949    0.306695    0.307308    0.322185    0.324888
     0.325154    0.325649    0.325886    0.327058    0.327382    0.327474
     0.327941    0.328514    0.328714    0.328722    0.329000    0.329937
     0.330988    0.331451    0.331771    0.332630    0.334741    0.334801
     0.334826    0.334945    0.334970    0.334975    0.335116    0.335121
     0.339137    0.340699    0.341404    0.344027    0.406398    0.412181
     0.413444    0.421761    0.807076    0.829457    0.830358    0.839250

 Minimum Search - Taking Simple RFO Step
 Searching for Lamda that Minimizes Along All modes
 Value Taken    Lamda =  -0.01244897
 Calculated Step too Large.  Step scaled by  0.380025
 Step Taken.  Stepsize is  0.300000

                             Maximum     Tolerance    Cnvgd?
         Gradient           0.005862      0.000300      NO
         Displacement       0.097777      0.001200      NO
         Energy change     *********      0.000001      NO


 New Cartesian Coordinates Obtained by Inverse Iteration

 Displacement from previous Coordinates is:  4.300753
 Adding empirical dispersion correction 
 ----------------------------------------------------------------
 Doing -D3(op) with
 s6 =   1.00000
 s8 =   0.78311
 a1 =   0.30000
 a2 =   4.25000
 n  =  10.00000
 -D3 energy without 3body term =     -0.0754782735 hartrees
 ----------------------------------------------------------------
             Standard Nuclear Orientation (Angstroms)
    I     Atom           X                Y                Z
 ----------------------------------------------------------------
    1      O      -3.2624821557     2.4043778461     1.6466686899
    2      C      -2.8433303561     1.6464254065     0.7442940964
    3      C      -3.7290253036     0.9761319190    -0.3750358618
    4      C      -3.5418589586    -0.5835055428    -0.6472475331
    5      C      -2.4167560786    -1.2781307544     0.1937840681
    6      O      -1.1827195489    -1.1036643081    -0.5042174547
    7      C      -0.0347052906    -1.5516865449     0.3179840072
    8      C       0.8016455683    -2.6524472070    -0.4460493580
    9      O       2.0785238195    -2.0674901936    -0.9245141092
   10      C       2.9860498071    -1.8458328024     0.1613522659
   11      C       4.1706465140    -1.0013102146    -0.4292366088
   12      C       3.7164410639     0.4634482731    -0.8517558785
   13      C       2.2231187171     0.7672831209    -0.4883188615
   14      O       1.6393364891     0.4571406134     0.5808083100
   15      O      -1.4638319374     1.3363892849     0.5472651227
   16      O       1.6051530246     1.4496791878    -1.5719419018
   17      O       2.8108538244    -2.2344115549     1.3344470440
   18      C       0.1835559472     1.7597435621    -1.2710721444
   19      C       5.2783509716    -0.6795350442     0.6551687163
   20      C       6.5839640408    -0.2095841453    -0.0965544953
   21      C       6.1565439907     1.2289481015    -0.5716173329
   22      C       4.7041410904     1.3371751285     0.0413143361
   23      O       4.7874364033     0.5627082827     1.2983297155
   24      H       4.5821068530    -1.5433339148    -1.2993424582
   25      H       3.8580886808     0.6484110179    -1.9307105904
   26      H       5.4145788016    -1.4755607654     1.4129269083
   27      H       7.4349938396    -0.1669839562     0.6017455409
   28      H       6.8462286626    -0.8756088458    -0.9340055521
   29      H       6.8113074590     2.0073636605    -0.1487659088
   30      H       6.1501938149     1.3304736268    -1.6687534806
   31      H       4.3529201604     2.3682427692     0.2412133715
   32      O      -2.5445338685    -1.8974956201     1.2726272145
   33      C      -0.6331472497     1.9698368906     1.6019164617
   34      C      -5.2502436530     1.0168014763     0.0702732914
   35      C      -6.1661569450     0.7913872530    -1.1952829108
   36      C      -5.9810433869    -0.7540550172    -1.4319943467
   37      C      -4.9844101371    -1.1230492916    -0.2634921621
   38      O      -5.4055899211    -0.2362904234     0.8444889446
   39      H      -3.5646087565     1.5436034723    -1.3104136541
   40      H      -3.3176925317    -0.7510463602    -1.7161331400
   41      H      -0.9005751673     1.5858757800     2.6064601567
   42      H      -5.4965843175     1.8939464085     0.7002189265
   43      H      -7.2132457316     1.0416159978    -0.9620962513
   44      H      -5.8421254189     1.3965144511    -2.0571311878
   45      H      -6.9316549646    -1.2982008891    -1.3136455288
   46      H      -5.5626657383    -0.9864207046    -2.4245281601
   47      H      -5.0001155304    -2.1808621373     0.0630653771
   48      H      -0.7537635284     3.0718582253     1.6017543648
   49      H       0.4121718376     1.6925647329     1.3503976222
   50      H      -0.2629663978     2.0759418239    -2.2314854418
   51      H       0.1087734150     2.5923125248    -0.5423253335
   52      H      -0.3712321244     0.8862091668    -0.8666653828
   53      H       0.9824401687    -3.5347969529     0.2040234277
   54      H       0.2645169497    -2.9696466501    -1.3626232175
   55      H      -0.4081399197    -1.9351739262     1.2905237311
   56      H       0.6207671042    -0.6663550338     0.4815531558
 ----------------------------------------------------------------
 Molecular Point Group                 C1    NOp =  1
 Largest Abelian Subgroup              C1    NOp =  1
 Nuclear Repulsion Energy =  3252.0985008981 hartrees
 There are      113 alpha and      113 beta electrons
 Applying Cartesian multipole field
    Component          Value
    ---------          -----
     (2,0,0)        1.00000E-12
     (0,2,0)        2.00000E-11
     (0,0,2)       -3.00000E-11
 Nucleus-field energy     =     0.0000000232 hartrees
 Requested basis set is STO-3G
 There are 86 shells and 176 basis functions
 A cutoff of  1.0D-12 yielded   2333 shell pairs
 There are     10919 function pairs
 Smallest overlap matrix eigenvalue = 2.13E-01
 Guess MOs from SCF MO coefficient file
 Reading MOs from coefficient file
 Reading MOs from coefficient file
 A restricted hybrid HF-DFT SCF calculation will be
 performed using Pulay DIIS extrapolation
 Exchange:     0.2000 Hartree-Fock + 0.0800 Slater + 0.7200 B88
 Correlation:  0.1900 VWN1RPA + 0.8100 LYP
 Using SG-1 standard quadrature grid
 Dispersion:   Grimme D3
 SCF converges when DIIS error is below 1.0E-08
 Geometry optimization detected.  Setting ReadMinima to 0
 Setting SaveMinima to 0
 using 48 threads for integral computing
 -------------------------------------------------------
 OpenMP Integral computing Module                
 Release: version 1.0, May 2013, Q-Chem Inc. Pittsburgh 
 -------------------------------------------------------
 -------------------------------------------------------
 OpenMP BLAS3 based DFT computing Module                
 Release: version 1.0, May 2013, Q-Chem Inc. Pittsburgh 
 -------------------------------------------------------
 ---------------------------------------
  Cycle       Energy         DIIS Error
 ---------------------------------------
    1   -1510.1989899542      5.92E-03
    2   -1510.2698317591      7.36E-04
    3   -1510.2662914794      1.24E-03
    4   -1510.2723731382      3.71E-04
    5   -1510.2729497278      8.31E-05
    6   -1510.2729740350      4.25E-05
    7   -1510.2729808658      1.88E-05
    8   -1510.2729824061      4.49E-06
    9   -1510.2729824981      1.37E-06
   10   -1510.2729825039      8.80E-07
   11   -1510.2729825074      1.73E-07
   12   -1510.2729825075      6.06E-08
   13   -1510.2729825075      1.76E-08
   14   -1510.2729825076      6.55E-09 Convergence criterion met
 ---------------------------------------
 SCF time:  CPU 105.22 s  wall 2.20 s
 SCF   energy in the final basis set = -1510.27298251
 Total energy in the final basis set = -1510.27298251
 
 --------------------------------------------------------------
 
                    Orbital Energies (a.u.)
 --------------------------------------------------------------
 
 Alpha MOs
 -- Occupied --
-18.955 -18.938 -18.925 -18.923 -18.904 -18.894 -18.884 -18.877
-18.876 -18.871 -10.122 -10.100 -10.099 -10.095 -10.068 -10.063
-10.062 -10.056 -10.055 -10.051 -10.051 -10.048 -10.041 -10.039
-10.036 -10.029 -10.026 -10.024 -10.019 -10.018  -1.032  -1.015
 -1.009  -1.003  -0.976  -0.967  -0.957  -0.938  -0.937  -0.929
 -0.770  -0.761  -0.730  -0.722  -0.713  -0.704  -0.689  -0.669
 -0.657  -0.617  -0.599  -0.581  -0.551  -0.545  -0.540  -0.535
 -0.520  -0.508  -0.487  -0.477  -0.466  -0.459  -0.454  -0.450
 -0.440  -0.435  -0.425  -0.424  -0.417  -0.407  -0.406  -0.397
 -0.395  -0.383  -0.373  -0.368  -0.366  -0.358  -0.354  -0.349
 -0.347  -0.341  -0.337  -0.333  -0.329  -0.328  -0.322  -0.316
 -0.311  -0.308  -0.305  -0.304  -0.297  -0.287  -0.283  -0.274
 -0.271  -0.268  -0.249  -0.242  -0.240  -0.235  -0.231  -0.191
 -0.181  -0.178  -0.176  -0.157  -0.154  -0.152  -0.150  -0.148
 -0.141
 -- Virtual --
  0.069   0.098   0.103   0.106   0.224   0.230   0.247   0.254
  0.258   0.269   0.278   0.286   0.298   0.307   0.323   0.331
  0.335   0.339   0.346   0.350   0.354   0.357   0.367   0.377
  0.378   0.382   0.386   0.391   0.404   0.406   0.409   0.410
  0.413   0.414   0.416   0.420   0.421   0.428   0.428   0.433
  0.434   0.438   0.443   0.448   0.459   0.461   0.469   0.473
  0.482   0.489   0.491   0.499   0.505   0.509   0.535   0.543
  0.545   0.554   0.569   0.632   0.641   0.652   0.656
 --------------------------------------------------------------
 
          Ground-State Mulliken Net Atomic Charges

     Atom                 Charge (a.u.)
  ----------------------------------------
      1 O                    -0.209860
      2 C                     0.207633
      3 C                    -0.078831
      4 C                    -0.079809
      5 C                     0.210943
      6 O                    -0.180952
      7 C                    -0.089648
      8 C                    -0.054196
      9 O                    -0.182488
     10 C                     0.209867
     11 C                    -0.078965
     12 C                    -0.076863
     13 C                     0.228161
     14 O                    -0.217091
     15 O                    -0.171616
     16 O                    -0.160138
     17 O                    -0.205771
     18 C                    -0.142669
     19 C                     0.025006
     20 C                    -0.143585
     21 C                    -0.143644
     22 C                     0.025660
     23 O                    -0.185645
     24 H                     0.086451
     25 H                     0.090330
     26 H                     0.091196
     27 H                     0.079402
     28 H                     0.074258
     29 H                     0.079452
     30 H                     0.074602
     31 H                     0.082658
     32 O                    -0.211524
     33 C                    -0.141486
     34 C                     0.023531
     35 C                    -0.144543
     36 C                    -0.144003
     37 C                     0.024962
     38 O                    -0.187661
     39 H                     0.081684
     40 H                     0.083205
     41 H                     0.090360
     42 H                     0.091270
     43 H                     0.078345
     44 H                     0.071771
     45 H                     0.077932
     46 H                     0.071921
     47 H                     0.086900
     48 H                     0.081176
     49 H                     0.109574
     50 H                     0.084027
     51 H                     0.083068
     52 H                     0.128959
     53 H                     0.089907
     54 H                     0.089165
     55 H                     0.092580
     56 H                     0.125030
  ----------------------------------------
  Sum of atomic charges =    -0.000000

 -----------------------------------------------------------------
                    Cartesian Multipole Moments
 -----------------------------------------------------------------
    Charge (ESU x 10^10)
                -0.0000
    Dipole Moment (Debye)
         X       2.0295      Y       1.2210      Z      -4.9011
       Tot       5.4434
    Quadrupole Moments (Debye-Ang)
        XX    -149.0452     XY       0.9809     YY    -156.9097
        XZ       6.1154     YZ       1.6967     ZZ    -167.8643
    Octopole Moments (Debye-Ang^2)
       XXX      81.7522    XXY      -0.4497    XYY       7.1269
       YYY      -0.9951    XXZ     -87.1865    XYZ       4.9926
       YYZ      -7.1818    XZZ      -4.8008    YZZ       4.0386
       ZZZ       8.3063
    Hexadecapole Moments (Debye-Ang^3)
      XXXX  -13996.9165   XXXY     119.4041   XXYY   -2767.6099
      XYYY     194.7444   YYYY   -2101.5246   XXXZ      38.4345
      XXYZ     -19.2101   XYYZ       3.2674   YYYZ     -22.9665
      XXZZ   -2712.4744   XYZZ      52.1402   YYZZ    -555.7768
      XZZZ    -105.2245   YZZZ     -31.1671   ZZZZ    -995.2554
 -----------------------------------------------------------------
 Calculating analytic gradient of the SCF energy
 Gradient of SCF Energy
            1           2           3           4           5           6
    1  -0.0005595   0.0033589   0.0002096  -0.0002502   0.0005956  -0.0019122
    2   0.0010240   0.0004516  -0.0001683  -0.0005254  -0.0016355  -0.0012055
    3  -0.0001242  -0.0008996   0.0005411   0.0001575  -0.0005020   0.0028409
            7           8           9          10          11          12
    1   0.0093655   0.0026822  -0.0010253   0.0022904   0.0003597   0.0002951
    2   0.0192714  -0.0043586   0.0022413  -0.0016151  -0.0008730   0.0008284
    3  -0.0025639  -0.0021275   0.0027031   0.0002657  -0.0012803  -0.0009172
           13          14          15          16          17          18
    1  -0.0053902  -0.0141190   0.0157624  -0.0067254  -0.0019288  -0.0071357
    2  -0.0067924  -0.0156530   0.0017279   0.0025832   0.0020048  -0.0013404
    3   0.0164785  -0.0080047  -0.0190631  -0.0031709   0.0005136   0.0132443
           19          20          21          22          23          24
    1  -0.0005136   0.0003577  -0.0001024   0.0001630   0.0002008  -0.0005799
    2   0.0004193   0.0002254   0.0001034   0.0000454  -0.0003255  -0.0002413
    3   0.0003546  -0.0005343   0.0000034  -0.0002300  -0.0000573   0.0002267
           25          26          27          28          29          30
    1   0.0004159   0.0000901   0.0000055  -0.0000989   0.0000518  -0.0001005
    2  -0.0002575  -0.0000826  -0.0000198   0.0000110   0.0000179  -0.0000465
    3  -0.0000315   0.0002002   0.0000798   0.0001693  -0.0000680   0.0000011
           31          32          33          34          35          36
    1   0.0001243   0.0000831   0.0012109   0.0001337  -0.0001940  -0.0000520
    2   0.0000194  -0.0016442  -0.0011424  -0.0004422   0.0000537   0.0000444
    3  -0.0000365  -0.0004687  -0.0055024   0.0000323  -0.0000638  -0.0000455
           37          38          39          40          41          42
    1   0.0002463  -0.0001208  -0.0001437  -0.0003751   0.0003568   0.0000339
    2   0.0002524  -0.0001169   0.0000946  -0.0001703   0.0002124   0.0000088
    3  -0.0000963   0.0000395   0.0002307  -0.0002382   0.0005393  -0.0000331
           43          44          45          46          47          48
    1  -0.0000216  -0.0000086  -0.0000367  -0.0000079  -0.0000758   0.0008196
    2  -0.0000336   0.0000269   0.0000034  -0.0000303   0.0000532  -0.0000624
    3   0.0000003   0.0000147  -0.0000441   0.0000174   0.0000054  -0.0002310
           49          50          51          52          53          54
    1   0.0030898  -0.0007780  -0.0028699  -0.0024225  -0.0008406  -0.0000254
    2   0.0036562  -0.0004319   0.0010788  -0.0016782  -0.0002601   0.0009810
    3  -0.0029677   0.0004813   0.0076620   0.0039507   0.0000698  -0.0000160
           55          56
    1   0.0011956   0.0049157
    2   0.0010493   0.0026635
    3   0.0021157  -0.0036209
 Max gradient component =       1.927E-02
 RMS gradient           =       3.888E-03
 Gradient time:  CPU 34.00 s  wall 0.73 s
 Geometry Optimization Parameters
   NAtoms,    NIC,     NZ,  NCons,   NDum,   NFix, NCnnct, MaxDiis
       56     458       0       0       0       0       0       0

 Cartesian Hessian Update
 Hessian Updated using BFGS Update


** GEOMETRY OPTIMIZATION IN DELOCALIZED INTERNAL COORDINATES **
   Searching for a Minimum

   Optimization Cycle:   2

                       Coordinates (Angstroms)
     ATOM                X               Y               Z
      1  O        -3.2624821557    2.4043778461    1.6466686899
      2  C        -2.8433303561    1.6464254065    0.7442940964
      3  C        -3.7290253036    0.9761319190   -0.3750358618
      4  C        -3.5418589586   -0.5835055428   -0.6472475331
      5  C        -2.4167560786   -1.2781307544    0.1937840681
      6  O        -1.1827195489   -1.1036643081   -0.5042174547
      7  C        -0.0347052906   -1.5516865449    0.3179840072
      8  C         0.8016455683   -2.6524472070   -0.4460493580
      9  O         2.0785238195   -2.0674901936   -0.9245141092
     10  C         2.9860498071   -1.8458328024    0.1613522659
     11  C         4.1706465140   -1.0013102146   -0.4292366088
     12  C         3.7164410639    0.4634482731   -0.8517558785
     13  C         2.2231187171    0.7672831209   -0.4883188615
     14  O         1.6393364891    0.4571406134    0.5808083100
     15  O        -1.4638319374    1.3363892849    0.5472651227
     16  O         1.6051530246    1.4496791878   -1.5719419018
     17  O         2.8108538244   -2.2344115549    1.3344470440
     18  C         0.1835559472    1.7597435621   -1.2710721444
     19  C         5.2783509716   -0.6795350442    0.6551687163
     20  C         6.5839640408   -0.2095841453   -0.0965544953
     21  C         6.1565439907    1.2289481015   -0.5716173329
     22  C         4.7041410904    1.3371751285    0.0413143361
     23  O         4.7874364033    0.5627082827    1.2983297155
     24  H         4.5821068530   -1.5433339148   -1.2993424582
     25  H         3.8580886808    0.6484110179   -1.9307105904
     26  H         5.4145788016   -1.4755607654    1.4129269083
     27  H         7.4349938396   -0.1669839562    0.6017455409
     28  H         6.8462286626   -0.8756088458   -0.9340055521
     29  H         6.8113074590    2.0073636605   -0.1487659088
     30  H         6.1501938149    1.3304736268   -1.6687534806
     31  H         4.3529201604    2.3682427692    0.2412133715
     32  O        -2.5445338685   -1.8974956201    1.2726272145
     33  C        -0.6331472497    1.9698368906    1.6019164617
     34  C        -5.2502436530    1.0168014763    0.0702732914
     35  C        -6.1661569450    0.7913872530   -1.1952829108
     36  C        -5.9810433869   -0.7540550172   -1.4319943467
     37  C        -4.9844101371   -1.1230492916   -0.2634921621
     38  O        -5.4055899211   -0.2362904234    0.8444889446
     39  H        -3.5646087565    1.5436034723   -1.3104136541
     40  H        -3.3176925317   -0.7510463602   -1.7161331400
     41  H        -0.9005751673    1.5858757800    2.6064601567
     42  H        -5.4965843175    1.8939464085    0.7002189265
     43  H        -7.2132457316    1.0416159978   -0.9620962513
     44  H        -5.8421254189    1.3965144511   -2.0571311878
     45  H        -6.9316549646   -1.2982008891   -1.3136455288
     46  H        -5.5626657383   -0.9864207046   -2.4245281601
     47  H        -5.0001155304   -2.1808621373    0.0630653771
     48  H        -0.7537635284    3.0718582253    1.6017543648
     49  H         0.4121718376    1.6925647329    1.3503976222
     50  H        -0.2629663978    2.0759418239   -2.2314854418
     51  H         0.1087734150    2.5923125248   -0.5423253335
     52  H        -0.3712321244    0.8862091668   -0.8666653828
     53  H         0.9824401687   -3.5347969529    0.2040234277
     54  H         0.2645169497   -2.9696466501   -1.3626232175
     55  H        -0.4081399197   -1.9351739262    1.2905237311
     56  H         0.6207671042   -0.6663550338    0.4815531558
   Point Group: c1    Number of degrees of freedom:   162


   Energy is  -1510.272982508

 Hessian Updated using BFGS Update

149 Hessian modes will be used to form the next step
  Hessian Eigenvalues:
     0.001090    0.002081    0.002666    0.002688    0.003589    0.004295
     0.004451    0.004480    0.004605    0.004655    0.004664    0.006173
     0.006836    0.006854    0.011583    0.011995    0.012747    0.021528
     0.021682    0.025017    0.026149    0.030452    0.030901    0.035250
     0.035517    0.039567    0.040924    0.041219    0.041808    0.042823
     0.043978    0.046221    0.046899    0.048001    0.049009    0.050747
     0.051362    0.052070    0.053405    0.054317    0.054337    0.054566
     0.055616    0.055796    0.056716    0.057627    0.058345    0.060445
     0.060743    0.063820    0.063944    0.063985    0.064170    0.069719
     0.070263    0.072901    0.072962    0.083657    0.092666    0.092759
     0.093042    0.094955    0.095217    0.095804    0.097434    0.101621
     0.102826    0.103679    0.109840    0.111410    0.111991    0.113258
     0.120545    0.131315    0.136261    0.144710    0.158066    0.159993
     0.159999    0.162535    0.163701    0.173969    0.218909    0.221065
     0.221865    0.224153    0.224860    0.237853    0.238294    0.239717
     0.239837    0.243147    0.246704    0.247489    0.249368    0.249463
     0.249814    0.249877    0.249934    0.252875    0.253478    0.253529
     0.254820    0.259576    0.262503    0.262549    0.292502    0.292931
     0.306677    0.307045    0.322174    0.324878    0.325154    0.325645
     0.325885    0.327035    0.327382    0.327474    0.327941    0.328513
     0.328714    0.328722    0.329000    0.329937    0.330988    0.331451
     0.331771    0.332630    0.334741    0.334801    0.334826    0.334945
     0.334970    0.334975    0.335116    0.335121    0.338672    0.340014
     0.340699    0.344024    0.406361    0.410838    0.413206    0.421709
     0.807042    0.829456    0.830358    0.839250    4.998952

 Minimum Search - Taking Simple RFO Step
 Searching for Lamda that Minimizes Along All modes
 Value Taken    Lamda =  -0.06076699
 Step Taken.  Stepsize is  0.219690

                             Maximum     Tolerance    Cnvgd?
         Gradient           0.398156      0.000300      NO
         Displacement       0.106661      0.001200      NO
         Energy change      0.017410      0.000001      NO


 New Cartesian Coordinates Obtained by Inverse Iteration

 Displacement from previous Coordinates is:  3.358792
 Adding empirical dispersion correction 
 ----------------------------------------------------------------
 Doing -D3(op) with
 s6 =   1.00000
 s8 =   0.78311
 a1 =   0.30000
 a2 =   4.25000
 n  =  10.00000
 -D3 energy without 3body term =     -0.0719695765 hartrees
 ----------------------------------------------------------------
             Standard Nuclear Orientation (Angstroms)
    I     Atom           X                Y                Z
 ----------------------------------------------------------------
    1      O      -3.5392187696     2.3172882841     1.8797037347
    2      C      -3.0236559280     1.6500612802     0.9559208936
    3      C      -3.8053168167     1.0057714249    -0.2529342244
    4      C      -3.5332715114    -0.5294796100    -0.5939469768
    5      C      -2.4157658422    -1.2150399717     0.2644648467
    6      O      -1.1722808068    -1.0347493020    -0.4189977656
    7      C      -0.0392745743    -1.5421120298     0.3896354232
    8      C       0.7932941871    -2.6201784370    -0.4130338117
    9      O       2.0780435180    -2.0664062762    -0.9163270856
   10      C       3.0015786950    -1.8431161873     0.1559270649
   11      C       4.2047123412    -1.0248654395    -0.4443289845
   12      C       3.8066842186     0.4267463792    -0.9613926415
   13      C       2.3131748811     0.8038166265    -0.6926679970
   14      O       1.6681249241     0.6023772690     0.3671053463
   15      O      -1.6226293346     1.4052320155     0.8465045899
   16      O       1.7891353381     1.4313905687    -1.8564809564
   17      O       2.8100586731    -2.1870820035     1.3403034415
   18      C       0.3698357730     1.8285294836    -1.6765437707
   19      C       5.2844010327    -0.6736941052     0.6588679845
   20      C       6.6269044819    -0.2731104680    -0.0670677596
   21      C       6.2540977664     1.1473851047    -0.6290857489
   22      C       4.7837827293     1.3218675641    -0.0779780563
   23      O       4.8007173832     0.6115060381     1.2202020282
   24      H       4.6301113082    -1.6125254540    -1.2773437616
   25      H       3.9961453484     0.5437553631    -2.0425119112
   26      H       5.3771300586    -1.4343414172     1.4583157752
   27      H       7.4533986212    -0.2152074706     0.6590280507
   28      H       6.9015701957    -0.9867575943    -0.8601632223
   29      H       6.9128744080     1.9309694277    -0.2221918185
   30      H       6.2901456126     1.1920427947    -1.7294507868
   31      H       4.4542334105     2.3710199312     0.0526350543
   32      O      -2.5632487905    -1.8869903993     1.3087320118
   33      C      -0.9044171620     1.9921518305     2.0057499824
   34      C      -5.3468771808     0.9582791973     0.1142366923
   35      C      -6.1891810170     0.7576485497    -1.2050359517
   36      C      -5.9227801684    -0.7649552303    -1.5036596656
   37      C      -4.9673427803    -1.1470309497    -0.3052068875
   38      O      -5.4816497322    -0.3360699026     0.8202259011
   39      H      -3.6207993545     1.6297902420    -1.1477646484
   40      H      -3.2551645275    -0.6415652013    -1.6574053112
   41      H      -1.2341375505     1.5283082676     2.9566144621
   42      H      -5.6626849691     1.7907650365     0.7731910525
   43      H      -7.2565617099     0.9508573198    -1.0133897044
   44      H      -5.8517402761     1.4178815150    -2.0199650672
   45      H      -6.8523430263    -1.3545881315    -1.4584932640
   46      H      -5.4470989249    -0.9307110300    -2.4836642428
   47      H      -4.9505840766    -2.2192102939    -0.0295155457
   48      H      -1.0704265434     3.0863134805     2.0706994281
   49      H       0.1678203978     1.7703838684     1.8224920749
   50      H       0.0038918814     2.0915697358    -2.6858288426
   51      H       0.2918670639     2.7166934802    -1.0177838288
   52      H      -0.2543207146     1.0149905077    -1.2495420545
   53      H       0.9635832018    -3.5192235979     0.2165634592
   54      H       0.2460549813    -2.9109372063    -1.3324344784
   55      H      -0.4163178440    -1.9552302203     1.3484871694
   56      H       0.6253616012    -0.6702834537     0.5841789244
 ----------------------------------------------------------------
 Molecular Point Group                 C1    NOp =  1
 Largest Abelian Subgroup              C1    NOp =  1
 Nuclear Repulsion Energy =  3207.4356770018 hartrees
 There are      113 alpha and      113 beta electrons
 Applying Cartesian multipole field
    Component          Value
    ---------          -----
     (2,0,0)        1.00000E-12
     (0,2,0)        2.00000E-11
     (0,0,2)       -3.00000E-11
 Nucleus-field energy     =     0.0000000182 hartrees
 Requested basis set is STO-3G
 There are 86 shells and 176 basis functions
 A cutoff of  1.0D-12 yielded   2303 shell pairs
 There are     10766 function pairs
 Smallest overlap matrix eigenvalue = 2.13E-01
 Guess MOs from SCF MO coefficient file
 Reading MOs from coefficient file
 Reading MOs from coefficient file
 A restricted hybrid HF-DFT SCF calculation will be
 performed using Pulay DIIS extrapolation
 Exchange:     0.2000 Hartree-Fock + 0.0800 Slater + 0.7200 B88
 Correlation:  0.1900 VWN1RPA + 0.8100 LYP
 Using SG-1 standard quadrature grid
 Dispersion:   Grimme D3
 SCF converges when DIIS error is below 1.0E-08
 Geometry optimization detected.  Setting ReadMinima to 0
 Setting SaveMinima to 0
 using 48 threads for integral computing
 -------------------------------------------------------
 OpenMP Integral computing Module                
 Release: version 1.0, May 2013, Q-Chem Inc. Pittsburgh 
 -------------------------------------------------------
 -------------------------------------------------------
 OpenMP BLAS3 based DFT computing Module                
 Release: version 1.0, May 2013, Q-Chem Inc. Pittsburgh 
 -------------------------------------------------------
 ---------------------------------------
  Cycle       Energy         DIIS Error
 ---------------------------------------
    1   -1510.2052633877      5.11E-03
    2   -1510.2874947199      4.77E-04
    3   -1510.2873434953      5.85E-04
    4   -1510.2887966309      2.52E-04
    5   -1510.2890597450      6.75E-05
    6   -1510.2890750863      3.20E-05
    7   -1510.2890790286      1.20E-05
    8   -1510.2890796393      3.46E-06
    9   -1510.2890796944      4.69E-07
   10   -1510.2890796952      3.29E-07
   11   -1510.2890796957      1.65E-07
   12   -1510.2890796958      3.86E-08
   13   -1510.2890796957      1.56E-08
   14   -1510.2890796958      7.17E-09 Convergence criterion met
 ---------------------------------------
 SCF time:  CPU 108.75 s  wall 2.27 s
 SCF   energy in the final basis set = -1510.28907970
 Total energy in the final basis set = -1510.28907970
 
 --------------------------------------------------------------
 
                    Orbital Energies (a.u.)
 --------------------------------------------------------------
 
 Alpha MOs
 -- Occupied --
-18.950 -18.934 -18.927 -18.923 -18.892 -18.889 -18.883 -18.877
-18.872 -18.869 -10.113 -10.099 -10.098 -10.094 -10.066 -10.065
-10.065 -10.061 -10.058 -10.056 -10.054 -10.044 -10.040 -10.038
-10.037 -10.035 -10.024 -10.023 -10.018 -10.017  -1.023  -1.011
 -1.009  -1.002  -0.974  -0.967  -0.948  -0.936  -0.934  -0.928
 -0.767  -0.760  -0.728  -0.721  -0.712  -0.704  -0.690  -0.669
 -0.658  -0.617  -0.598  -0.580  -0.549  -0.543  -0.539  -0.534
 -0.517  -0.507  -0.479  -0.474  -0.464  -0.457  -0.452  -0.448
 -0.436  -0.431  -0.423  -0.417  -0.413  -0.409  -0.407  -0.406
 -0.396  -0.380  -0.373  -0.366  -0.365  -0.358  -0.354  -0.349
 -0.347  -0.341  -0.335  -0.333  -0.329  -0.326  -0.322  -0.314
 -0.310  -0.307  -0.304  -0.302  -0.293  -0.285  -0.282  -0.273
 -0.270  -0.261  -0.251  -0.247  -0.238  -0.236  -0.231  -0.189
 -0.181  -0.176  -0.167  -0.157  -0.155  -0.152  -0.148  -0.147
 -0.141
 -- Virtual --
  0.078   0.100   0.104   0.108   0.225   0.231   0.247   0.252
  0.259   0.268   0.280   0.286   0.298   0.307   0.324   0.331
  0.335   0.340   0.347   0.349   0.355   0.357   0.369   0.375
  0.380   0.383   0.385   0.395   0.404   0.407   0.411   0.413
  0.416   0.417   0.419   0.421   0.424   0.427   0.429   0.429
  0.436   0.439   0.439   0.443   0.447   0.450   0.455   0.463
  0.470   0.483   0.491   0.499   0.504   0.506   0.533   0.537
  0.544   0.548   0.555   0.635   0.644   0.650   0.656
 --------------------------------------------------------------
 
          Ground-State Mulliken Net Atomic Charges

     Atom                 Charge (a.u.)
  ----------------------------------------
      1 O                    -0.212546
      2 C                     0.207432
      3 C                    -0.078383
      4 C                    -0.079575
      5 C                     0.211315
      6 O                    -0.178881
      7 C                    -0.080753
      8 C                    -0.053396
      9 O                    -0.179709
     10 C                     0.210208
     11 C                    -0.078729
     12 C                    -0.077911
     13 C                     0.221677
     14 O                    -0.217614
     15 O                    -0.171276
     16 O                    -0.162853
     17 O                    -0.206807
     18 C                    -0.134846
     19 C                     0.024629
     20 C                    -0.143641
     21 C                    -0.143781
     22 C                     0.025519
     23 O                    -0.185785
     24 H                     0.085305
     25 H                     0.088774
     26 H                     0.090900
     27 H                     0.079034
     28 H                     0.073944
     29 H                     0.078858
     30 H                     0.074319
     31 H                     0.082504
     32 O                    -0.213297
     33 C                    -0.131030
     34 C                     0.023505
     35 C                    -0.144727
     36 C                    -0.144008
     37 C                     0.025101
     38 O                    -0.187829
     39 H                     0.081281
     40 H                     0.083002
     41 H                     0.092207
     42 H                     0.091427
     43 H                     0.078115
     44 H                     0.071671
     45 H                     0.077791
     46 H                     0.071671
     47 H                     0.086279
     48 H                     0.086486
     49 H                     0.102339
     50 H                     0.089777
     51 H                     0.086366
     52 H                     0.111490
     53 H                     0.089835
     54 H                     0.089567
     55 H                     0.095690
     56 H                     0.119364
  ----------------------------------------
  Sum of atomic charges =    -0.000000

 -----------------------------------------------------------------
                    Cartesian Multipole Moments
 -----------------------------------------------------------------
    Charge (ESU x 10^10)
                -0.0000
    Dipole Moment (Debye)
         X       2.1204      Y       1.1867      Z      -4.8253
       Tot       5.4026
    Quadrupole Moments (Debye-Ang)
        XX    -151.2575     XY      -0.2899     YY    -155.8554
        XZ       6.7980     YZ       1.4004     ZZ    -166.2816
    Octopole Moments (Debye-Ang^2)
       XXX      97.2162    XXY      -2.3618    XYY       8.3391
       YYY       0.4553    XXZ     -90.3332    XYZ       3.8186
       YYZ      -7.5287    XZZ      -1.6288    YZZ       5.3055
       ZZZ       9.6399
    Hexadecapole Moments (Debye-Ang^3)
      XXXX  -14390.3499   XXXY     121.1407   XXYY   -2828.2356
      XYYY     206.1906   YYYY   -2069.1777   XXXZ     182.3109
      XXYZ     -22.4830   XYYZ      43.3161   YYYZ     -25.2702
      XXZZ   -2810.6622   XYZZ      58.2158   YYZZ    -581.9590
      XZZZ      22.8424   YZZZ     -34.2919   ZZZZ   -1188.9324
 -----------------------------------------------------------------
 Calculating analytic gradient of the SCF energy
 Gradient of SCF Energy
            1           2           3           4           5           6
    1   0.0001721   0.0009897   0.0005242  -0.0002271   0.0005557  -0.0008272
    2   0.0000440   0.0018293  -0.0007890  -0.0032185   0.0034360  -0.0012702
    3  -0.0003832  -0.0016614   0.0013476  -0.0021506   0.0030567   0.0018899
            7           8           9          10          11          12
    1  -0.0001968   0.0018547   0.0012631   0.0048130   0.0001770   0.0002361
    2   0.0067039  -0.0015727   0.0009063  -0.0084925   0.0020255   0.0010467
    3  -0.0031329   0.0007744   0.0004469   0.0004215   0.0002993  -0.0003953
           13          14          15          16          17          18
    1   0.0008386  -0.0057935  -0.0007573   0.0003736  -0.0026197   0.0004929
    2   0.0014609  -0.0104308   0.0022359   0.0009335   0.0026866   0.0000243
    3  -0.0013636   0.0007415   0.0020727   0.0003218  -0.0003278  -0.0010315
           19          20          21          22          23          24
    1  -0.0007712   0.0001939  -0.0002567   0.0002732  -0.0004191  -0.0014685
    2  -0.0000219   0.0005765  -0.0002503   0.0003845  -0.0000871   0.0001964
    3   0.0003232  -0.0006126   0.0002894   0.0001577   0.0003898  -0.0001020
           25          26          27          28          29          30
    1  -0.0008693   0.0004737   0.0000091  -0.0000423   0.0000310  -0.0000787
    2  -0.0000351  -0.0002241   0.0000285   0.0000487   0.0000405  -0.0001822
    3  -0.0001237  -0.0000528   0.0000655   0.0000734  -0.0000314  -0.0000447
           31          32          33          34          35          36
    1   0.0003777  -0.0005837  -0.0015218   0.0007510  -0.0000617  -0.0003467
    2   0.0001995  -0.0034515   0.0020947  -0.0008679   0.0003283   0.0001431
    3  -0.0003231  -0.0021712   0.0034566   0.0001589  -0.0001708   0.0003754
           37          38          39          40          41          42
    1   0.0001571  -0.0002144  -0.0005253  -0.0005928  -0.0005235   0.0000267
    2   0.0012148   0.0000413   0.0000113  -0.0010981   0.0003068  -0.0000016
    3  -0.0002508   0.0002914  -0.0001564  -0.0002968  -0.0004669   0.0001520
           43          44          45          46          47          48
    1   0.0000285  -0.0001010  -0.0001022   0.0002452   0.0000215  -0.0008256
    2  -0.0000343   0.0000293  -0.0000165   0.0000888   0.0000937  -0.0003675
    3   0.0000241   0.0000190  -0.0001600   0.0000178   0.0001250   0.0000625
           49          50          51          52          53          54
    1   0.0021258  -0.0000103   0.0003145  -0.0004433  -0.0013010   0.0013808
    2  -0.0003474  -0.0001066   0.0000707   0.0020420   0.0000004   0.0014983
    3  -0.0004161   0.0001128  -0.0007695  -0.0014476   0.0002328  -0.0007340
           55          56
    1   0.0018747   0.0009055
    2   0.0014612  -0.0013663
    3   0.0023104  -0.0012334
 Max gradient component =       1.043E-02
 RMS gradient           =       1.679E-03
 Gradient time:  CPU 34.32 s  wall 0.74 s
 Geometry Optimization Parameters
   NAtoms,    NIC,     NZ,  NCons,   NDum,   NFix, NCnnct, MaxDiis
       56     458       0       0       0       0       0       0

 Cartesian Hessian Update
 Hessian Updated using BFGS Update


** GEOMETRY OPTIMIZATION IN DELOCALIZED INTERNAL COORDINATES **
   Searching for a Minimum

   Optimization Cycle:   3

                       Coordinates (Angstroms)
     ATOM                X               Y               Z
      1  O        -3.5392187696    2.3172882841    1.8797037347
      2  C        -3.0236559280    1.6500612802    0.9559208936
      3  C        -3.8053168167    1.0057714249   -0.2529342244
      4  C        -3.5332715114   -0.5294796100   -0.5939469768
      5  C        -2.4157658422   -1.2150399717    0.2644648467
      6  O        -1.1722808068   -1.0347493020   -0.4189977656
      7  C        -0.0392745743   -1.5421120298    0.3896354232
      8  C         0.7932941871   -2.6201784370   -0.4130338117
      9  O         2.0780435180   -2.0664062762   -0.9163270856
     10  C         3.0015786950   -1.8431161873    0.1559270649
     11  C         4.2047123412   -1.0248654395   -0.4443289845
     12  C         3.8066842186    0.4267463792   -0.9613926415
     13  C         2.3131748811    0.8038166265   -0.6926679970
     14  O         1.6681249241    0.6023772690    0.3671053463
     15  O        -1.6226293346    1.4052320155    0.8465045899
     16  O         1.7891353381    1.4313905687   -1.8564809564
     17  O         2.8100586731   -2.1870820035    1.3403034415
     18  C         0.3698357730    1.8285294836   -1.6765437707
     19  C         5.2844010327   -0.6736941052    0.6588679845
     20  C         6.6269044819   -0.2731104680   -0.0670677596
     21  C         6.2540977664    1.1473851047   -0.6290857489
     22  C         4.7837827293    1.3218675641   -0.0779780563
     23  O         4.8007173832    0.6115060381    1.2202020282
     24  H         4.6301113082   -1.6125254540   -1.2773437616
     25  H         3.9961453484    0.5437553631   -2.0425119112
     26  H         5.3771300586   -1.4343414172    1.4583157752
     27  H         7.4533986212   -0.2152074706    0.6590280507
     28  H         6.9015701957   -0.9867575943   -0.8601632223
     29  H         6.9128744080    1.9309694277   -0.2221918185
     30  H         6.2901456126    1.1920427947   -1.7294507868
     31  H         4.4542334105    2.3710199312    0.0526350543
     32  O        -2.5632487905   -1.8869903993    1.3087320118
     33  C        -0.9044171620    1.9921518305    2.0057499824
     34  C        -5.3468771808    0.9582791973    0.1142366923
     35  C        -6.1891810170    0.7576485497   -1.2050359517
     36  C        -5.9227801684   -0.7649552303   -1.5036596656
     37  C        -4.9673427803   -1.1470309497   -0.3052068875
     38  O        -5.4816497322   -0.3360699026    0.8202259011
     39  H        -3.6207993545    1.6297902420   -1.1477646484
     40  H        -3.2551645275   -0.6415652013   -1.6574053112
     41  H        -1.2341375505    1.5283082676    2.9566144621
     42  H        -5.6626849691    1.7907650365    0.7731910525
     43  H        -7.2565617099    0.9508573198   -1.0133897044
     44  H        -5.8517402761    1.4178815150   -2.0199650672
     45  H        -6.8523430263   -1.3545881315   -1.4584932640
     46  H        -5.4470989249   -0.9307110300   -2.4836642428
     47  H        -4.9505840766   -2.2192102939   -0.0295155457
     48  H        -1.0704265434    3.0863134805    2.0706994281
     49  H         0.1678203978    1.7703838684    1.8224920749
     50  H         0.0038918814    2.0915697358   -2.6858288426
     51  H         0.2918670639    2.7166934802   -1.0177838288
     52  H        -0.2543207146    1.0149905077   -1.2495420545
     53  H         0.9635832018   -3.5192235979    0.2165634592
     54  H         0.2460549813   -2.9109372063   -1.3324344784
     55  H        -0.4163178440   -1.9552302203    1.3484871694
     56  H         0.6253616012   -0.6702834537    0.5841789244
   Point Group: c1    Number of degrees of freedom:   162


   Energy is  -1510.289079696

 Hessian Updated using BFGS Update

152 Hessian modes will be used to form the next step
  Hessian Eigenvalues:
     0.001238    0.002001    0.002081    0.002674    0.002688    0.003713
     0.004295    0.004458    0.004480    0.004601    0.004652    0.004666
     0.006172    0.006834    0.006865    0.011550    0.011996    0.012745
     0.021523    0.021682    0.025014    0.026147    0.030464    0.030902
     0.035260    0.035520    0.039592    0.040893    0.041202    0.041802
     0.042674    0.044044    0.046171    0.046896    0.048017    0.049003
     0.050752    0.051362    0.052081    0.053408    0.054317    0.054335
     0.054567    0.055618    0.055795    0.056704    0.057630    0.058344
     0.060438    0.060741    0.063820    0.063944    0.063985    0.064171
     0.069720    0.070264    0.072901    0.072962    0.083522    0.092662
     0.092761    0.093027    0.094965    0.095261    0.095805    0.097433
     0.101638    0.102832    0.103679    0.109875    0.111420    0.111996
     0.113370    0.120628    0.131198    0.136348    0.144900    0.158032
     0.159993    0.159998    0.160000    0.162603    0.163682    0.173554
     0.218915    0.220960    0.221862    0.224186    0.224880    0.237765
     0.238285    0.239717    0.239837    0.242060    0.246703    0.247489
     0.249364    0.249397    0.249603    0.249816    0.249934    0.250021
     0.252864    0.253478    0.253529    0.254806    0.259636    0.262503
     0.262568    0.292494    0.292928    0.306669    0.307054    0.322171
     0.324871    0.325154    0.325644    0.325886    0.327034    0.327382
     0.327474    0.327940    0.328513    0.328714    0.328722    0.329000
     0.329937    0.330988    0.331451    0.331771    0.332630    0.334741
     0.334801    0.334826    0.334945    0.334970    0.334975    0.335116
     0.335121    0.338741    0.340149    0.340703    0.344025    0.406368
     0.410704    0.413175    0.421663    0.807045    0.829454    0.830358
     0.839249    4.712353

 Minimum Search - Taking Simple RFO Step
 Searching for Lamda that Minimizes Along All modes
 Value Taken    Lamda =  -0.03913508
 Calculated Step too Large.  Step scaled by  0.360821
 Step Taken.  Stepsize is  0.300000

                             Maximum     Tolerance    Cnvgd?
         Gradient           0.044551      0.000300      NO
         Displacement       0.181069      0.001200      NO
         Energy change     -0.016097      0.000001      NO


 New Cartesian Coordinates Obtained by Inverse Iteration

 Displacement from previous Coordinates is:  4.076329
 Adding empirical dispersion correction 
 ----------------------------------------------------------------
 Doing -D3(op) with
 s6 =   1.00000
 s8 =   0.78311
 a1 =   0.30000
 a2 =   4.25000
 n  =  10.00000
 -D3 energy without 3body term =     -0.0712387946 hartrees
 ----------------------------------------------------------------
             Standard Nuclear Orientation (Angstroms)
    I     Atom           X                Y                Z
 ----------------------------------------------------------------
    1      O      -3.5748528522     2.2615030774     1.7477865774
    2      C      -3.1094463372     1.5550618776     0.8264419266
    3      C      -3.9357151386     0.8950276916    -0.3399889388
    4      C      -3.6774068069    -0.6496609182    -0.6203285502
    5      C      -2.5555777167    -1.2910037964     0.2659469761
    6      O      -1.3042908507    -1.0821687529    -0.3938313542
    7      C      -0.1728756527    -1.5123811136     0.4615724711
    8      C       0.7456534144    -2.5377039440    -0.3088278863
    9      O       2.0104161379    -1.9249060455    -0.8020804284
   10      C       2.9506509672    -1.6674066310     0.2516177968
   11      C       4.1911765903    -0.9544429320    -0.4130016627
   12      C       3.9171999547     0.5293491886    -0.9253485793
   13      C       2.5109732364     1.0919342586    -0.5440523063
   14      O       1.9637671491     1.0207838204     0.5838960654
   15      O      -1.7223319015     1.2583860069     0.6681457052
   16      O       1.9450751022     1.7417692253    -1.6739678223
   17      O       2.7989925397    -2.0132187850     1.4413640581
   18      C       0.6043669669     2.2927383770    -1.3528306167
   19      C       5.3664786965    -0.7048128772     0.6189314190
   20      C       6.6975271056    -0.4609957113    -0.1931178862
   21      C       6.4471652283     0.9830753508    -0.7613575512
   22      C       5.0418805666     1.3230335345    -0.1260180073
   23      O       5.0605748263     0.6322685089     1.1832323943
   24      H       4.5108463274    -1.5906398537    -1.2579649624
   25      H       4.0420661841     0.6080227153    -2.0192673005
   26      H       5.4280393830    -1.4623000634     1.4242475631
   27      H       7.5683115805    -0.4835581755     0.4812909505
   28      H       6.8447552493    -1.2109374998    -0.9866874376
   29      H       7.2103072048     1.6957548849    -0.4103248550
   30      H       6.4201021137     1.0087738800    -1.8625696869
   31      H       4.8359241329     2.4032704017     0.0044034842
   32      O      -2.6970164074    -1.9044901883     1.3463738957
   33      C      -0.9270992323     1.8455394066     1.7742922834
   34      C      -5.4724933861     0.8756926407     0.0491842221
   35      C      -6.3308401380     0.6304427186    -1.2524375891
   36      C      -6.0772997097    -0.9051043022    -1.4968599781
   37      C      -5.1115499274    -1.2485742832    -0.2949463989
   38      O      -5.6087882315    -0.3910663258     0.8035241066
   39      H      -3.7559678648     1.4829190401    -1.2598839397
   40      H      -3.4051094502    -0.8027634339    -1.6800369111
   41      H      -1.2267171256     1.4205714905     2.7530962642
   42      H      -5.7738913306     1.7343098055     0.6807171742
   43      H      -7.3947645480     0.8382495892    -1.0568096747
   44      H      -5.9980512280     1.2568853130    -2.0954855240
   45      H      -7.0100078566    -1.4862554347    -1.4192884984
   46      H      -5.6138410327    -1.1108953508    -2.4750871713
   47      H      -5.0980668927    -2.3091504954     0.0227362329
   48      H      -1.0438596300     2.9472922267     1.8161125955
   49      H       0.1238546613     1.5746426883     1.5463305015
   50      H       0.1546570527     2.5715297478    -2.3233694271
   51      H       0.6928789286     3.1969161092    -0.7173553749
   52      H      -0.0446889366     1.5560195054    -0.8315788765
   53      H       0.9552231699    -3.4229392054     0.3284961848
   54      H       0.2322080734    -2.8653438756    -1.2355831285
   55      H      -0.5571064472    -1.9413062758     1.4100708033
   56      H       0.4282281897    -0.5978056072     0.6681252924
 ----------------------------------------------------------------
 Molecular Point Group                 C1    NOp =  1
 Largest Abelian Subgroup              C1    NOp =  1
 Nuclear Repulsion Energy =  3179.2273016124 hartrees
 There are      113 alpha and      113 beta electrons
 Applying Cartesian multipole field
    Component          Value
    ---------          -----
     (2,0,0)        1.00000E-12
     (0,2,0)        2.00000E-11
     (0,0,2)       -3.00000E-11
 Nucleus-field energy     =     0.0000000221 hartrees
 Requested basis set is STO-3G
 There are 86 shells and 176 basis functions
 A cutoff of  1.0D-12 yielded   2271 shell pairs
 There are     10656 function pairs
 Smallest overlap matrix eigenvalue = 2.13E-01
 Guess MOs from SCF MO coefficient file
 Reading MOs from coefficient file
 Reading MOs from coefficient file
 A restricted hybrid HF-DFT SCF calculation will be
 performed using Pulay DIIS extrapolation
 Exchange:     0.2000 Hartree-Fock + 0.0800 Slater + 0.7200 B88
[...]
      7  C        -0.1080087267   -1.6961388856    0.6004804689
      8  C         0.8392682001   -2.6790605454   -0.1704243961
      9  O         1.9567284944   -1.9429348823   -0.8130023159
     10  C         3.0722449180   -1.8636756158    0.0878073812
     11  C         4.1867024206   -0.9770949542   -0.5704357099
     12  C         3.7120679969    0.4985582702   -0.9173673546
     13  C         2.1992931969    0.7553170135   -0.5959571950
     14  O         1.6602564829    0.7396858584    0.5379744321
     15  O        -1.6539931674    1.4401248849    0.8404019913
     16  O         1.5336074430    1.0230145743   -1.8214172254
     17  O         3.1236262895   -2.4379987164    1.1961654415
     18  C         0.0734090698    1.1999897006   -1.6185018723
     19  C         5.3403653295   -0.6894898267    0.4743371010
     20  C         6.5953052109   -0.1204547650   -0.2948357880
     21  C         6.1167689308    1.3454472075   -0.6145249216
     22  C         4.6740016577    1.3412918543    0.0280964796
     23  O         4.8260880234    0.4820351895    1.2227255439
     24  H         4.5567986967   -1.4924181227   -1.4757294093
     25  H         3.8757190020    0.7293389690   -1.9842251473
     26  H         5.5338199366   -1.5324250488    1.1657910026
     27  H         7.4811723721   -0.1221145073    0.3598724924
     28  H         6.8258704527   -0.7009581263   -1.2026519177
     29  H         6.7549038103    2.0955022256   -0.1208471641
     30  H         6.0905082333    1.5590472461   -1.6950015659
     31  H         4.2804244641    2.3359837152    0.3140631756
     32  O        -2.5644490970   -1.2573727333    1.5453383460
     33  C        -0.8085267012    1.8000376961    2.0006780365
     34  C        -5.3566475515    1.0145685968    0.0918791545
     35  C        -6.1109075381    0.9168813260   -1.2905148783
     36  C        -5.6910963282   -0.5259476549   -1.7617406425
     37  C        -4.8041198333   -1.0015913379   -0.5425918406
     38  O        -5.4441591410   -0.3638932014    0.6294843198
     39  H        -3.6344321388    1.9122936344   -1.0239674722
     40  H        -2.9720229309   -0.2896636711   -1.6475277493
     41  H        -1.0864760015    1.2066358804    2.8949659516
     42  H        -5.7667237108    1.7411710757    0.8202355507
     43  H        -7.1998461854    0.9903688406   -1.1406581802
     44  H        -5.7970470205    1.7040685443   -1.9946005834
     45  H        -6.5661193124   -1.1843965469   -1.8804161008
     46  H        -5.1246776727   -0.5169618627   -2.7067882746
     47  H        -4.7440310178   -2.0981571744   -0.4012373852
     48  H        -0.8928324994    2.8780978572    2.2447243743
     49  H         0.2239542940    1.5492165504    1.6766625716
     50  H        -0.3399883534    1.4034334994   -2.6229555380
     51  H        -0.1419170385    2.0580075554   -0.9514286227
     52  H        -0.3985515488    0.2834608165   -1.1828285742
     53  H         1.2504983699   -3.4239051936    0.5442063135
     54  H         0.2862875742   -3.1933118184   -0.9826770794
     55  H        -0.6285153797   -2.2003044177    1.4421264416
     56  H         0.4951025407   -0.8422109988    0.9888932682
   Point Group: c1    Number of degrees of freedom:   162


   Energy is  -1510.300299589

 Hessian Updated using BFGS Update

162 Hessian modes will be used to form the next step
  Hessian Eigenvalues:
     0.000832    0.002166    0.002611    0.002969    0.003523    0.004431
     0.004795    0.005833    0.007100    0.009737    0.012996    0.015171
     0.017081    0.020062    0.021885    0.022023    0.025475    0.026879
     0.027117    0.030581    0.030925    0.032356    0.033895    0.035464
     0.039257    0.039694    0.040726    0.041471    0.042817    0.043571
     0.046409    0.046822    0.048328    0.049905    0.051218    0.052159
     0.052834    0.053393    0.054059    0.054437    0.054913    0.055682
     0.056398    0.056701    0.057105    0.057785    0.060328    0.062414
     0.063861    0.063916    0.063986    0.064138    0.064998    0.069055
     0.070018    0.070744    0.072803    0.073301    0.076544    0.084817
     0.089497    0.092880    0.093000    0.096953    0.098239    0.099584
     0.102735    0.103823    0.105060    0.106175    0.111916    0.113411
     0.114102    0.125394    0.127936    0.138131    0.143279    0.145820
     0.159981    0.160253    0.160834    0.162377    0.163387    0.163897
     0.167612    0.174326    0.185348    0.199773    0.209679    0.219722
     0.222430    0.235630    0.237189    0.238942    0.239649    0.239808
     0.243901    0.244412    0.246367    0.247659    0.248314    0.249112
     0.249735    0.251430    0.251924    0.253511    0.254311    0.258374
     0.259607    0.260226    0.263573    0.267615    0.270747    0.290294
     0.291893    0.293663    0.304402    0.306751    0.317804    0.322630
     0.325008    0.325465    0.326347    0.327333    0.327468    0.327563
     0.328034    0.328528    0.328715    0.328821    0.329018    0.329991
     0.330204    0.331114    0.331556    0.331827    0.332671    0.334718
     0.334800    0.334826    0.334885    0.334970    0.334983    0.335120
     0.335130    0.335819    0.341523    0.349318    0.359202    0.394978
     0.406866    0.415965    0.417315    0.471243    0.663416    0.772064
     0.808136    0.829839    0.831600    0.843958    1.550178    3.793309

 Minimum Search - Taking Simple RFO Step
 Searching for Lamda that Minimizes Along All modes
 Value Taken    Lamda =   0.00000000
 Step Taken.  Stepsize is  0.003181

                             Maximum     Tolerance    Cnvgd?
         Gradient           0.000123      0.000300     YES
         Displacement       0.001153      0.001200     YES
         Energy change     -0.000002      0.000001      NO

 Final energy is   -1510.30029958928     


 ******************************
 **  OPTIMIZATION CONVERGED  **
 ******************************

                       Coordinates (Angstroms)
     ATOM                X               Y               Z
      1  O        -3.4981988538    2.2804406484    2.0833484137
      2  C        -3.0355523327    1.7200771073    1.0688069261
      3  C        -3.8114067281    1.2007903486   -0.1961198492
      4  C        -3.3947928986   -0.2703641284   -0.6280861035
      5  C        -2.3643048880   -0.9199574480    0.3591522654
      6  O        -1.1258047133   -1.1621532995   -0.3415079668
      7  C        -0.1080087267   -1.6961388856    0.6004804689
      8  C         0.8392682001   -2.6790605454   -0.1704243961
      9  O         1.9567284944   -1.9429348823   -0.8130023159
     10  C         3.0722449180   -1.8636756158    0.0878073812
     11  C         4.1867024206   -0.9770949542   -0.5704357099
     12  C         3.7120679969    0.4985582702   -0.9173673546
     13  C         2.1992931969    0.7553170135   -0.5959571950
     14  O         1.6602564829    0.7396858584    0.5379744321
     15  O        -1.6539931674    1.4401248849    0.8404019913
     16  O         1.5336074430    1.0230145743   -1.8214172254
     17  O         3.1236262895   -2.4379987164    1.1961654415
     18  C         0.0734090698    1.1999897006   -1.6185018723
     19  C         5.3403653295   -0.6894898267    0.4743371010
     20  C         6.5953052109   -0.1204547650   -0.2948357880
     21  C         6.1167689308    1.3454472075   -0.6145249216
     22  C         4.6740016577    1.3412918543    0.0280964796
     23  O         4.8260880234    0.4820351895    1.2227255439
     24  H         4.5567986967   -1.4924181227   -1.4757294093
     25  H         3.8757190020    0.7293389690   -1.9842251473
     26  H         5.5338199366   -1.5324250488    1.1657910026
     27  H         7.4811723721   -0.1221145073    0.3598724924
     28  H         6.8258704527   -0.7009581263   -1.2026519177
     29  H         6.7549038103    2.0955022256   -0.1208471641
     30  H         6.0905082333    1.5590472461   -1.6950015659
     31  H         4.2804244641    2.3359837152    0.3140631756
     32  O        -2.5644490970   -1.2573727333    1.5453383460
     33  C        -0.8085267012    1.8000376961    2.0006780365
     34  C        -5.3566475515    1.0145685968    0.0918791545
     35  C        -6.1109075381    0.9168813260   -1.2905148783
     36  C        -5.6910963282   -0.5259476549   -1.7617406425
     37  C        -4.8041198333   -1.0015913379   -0.5425918406
     38  O        -5.4441591410   -0.3638932014    0.6294843198
     39  H        -3.6344321388    1.9122936344   -1.0239674722
     40  H        -2.9720229309   -0.2896636711   -1.6475277493
     41  H        -1.0864760015    1.2066358804    2.8949659516
     42  H        -5.7667237108    1.7411710757    0.8202355507
     43  H        -7.1998461854    0.9903688406   -1.1406581802
     44  H        -5.7970470205    1.7040685443   -1.9946005834
     45  H        -6.5661193124   -1.1843965469   -1.8804161008
     46  H        -5.1246776727   -0.5169618627   -2.7067882746
     47  H        -4.7440310178   -2.0981571744   -0.4012373852
     48  H        -0.8928324994    2.8780978572    2.2447243743
     49  H         0.2239542940    1.5492165504    1.6766625716
     50  H        -0.3399883534    1.4034334994   -2.6229555380
     51  H        -0.1419170385    2.0580075554   -0.9514286227
     52  H        -0.3985515488    0.2834608165   -1.1828285742
     53  H         1.2504983699   -3.4239051936    0.5442063135
     54  H         0.2862875742   -3.1933118184   -0.9826770794
     55  H        -0.6285153797   -2.2003044177    1.4421264416
     56  H         0.4951025407   -0.8422109988    0.9888932682

Z-matrix Print:
$molecule
0 1
O 
C  1 1.443422
O  2 1.249378 1 123.573187
C  1 1.486066 2 109.892471 3 -7.188580 0
H  4 1.110621 1 108.814054 2 25.475680 0
H  4 1.115258 1 108.421842 2 -93.788733 0
C  4 1.567725 1 109.112586 2 147.691356 0
H  7 1.109052 4 110.461684 1 -31.651560 0
H  7 1.111126 4 109.126681 1 -152.907271 0
O  7 1.484421 4 110.904456 1 86.503463 0
C  10 1.436007 7 109.913817 4 90.311732 0
O  11 1.249378 10 124.268507 7 5.950347 0
C  2 1.567966 1 109.134790 3 -176.474634 0
H  13 1.103797 2 108.816970 1 7.970050 0
C  11 1.568861 10 108.651837 7 -175.186917 0
H  15 1.105480 11 108.540722 10 -64.899663 0
C  15 1.582784 11 110.090521 10 171.676046 0
H  17 1.107282 15 113.654035 11 34.855842 0
O  17 1.482241 15 102.944355 11 -84.444748 0
C  19 1.479389 17 94.991939 15 -57.482258 0
H  20 1.107290 19 110.471997 17 179.894363 0
C  17 1.578069 15 108.869981 11 165.948454 0
H  22 1.101547 17 110.444062 15 -167.385200 0
H  22 1.101941 17 112.208685 15 -45.935891 0
C  22 1.574823 17 101.124906 15 74.460316 0
H  25 1.101597 22 111.517723 17 117.180979 0
H  25 1.101701 22 112.755837 17 -120.141232 0
C  15 1.588456 11 113.851006 10 58.933999 0
H  28 1.103733 15 111.164709 11 -124.495850 0
C  28 1.567711 15 113.309809 11 -2.808617 0
O  30 1.255630 28 126.681167 15 64.514660 0
O  30 1.420053 28 107.836279 15 -115.944021 0
C  32 1.484815 30 111.440746 28 176.640356 0
H  33 1.105086 32 105.403285 30 179.859798 0
H  33 1.107947 32 111.451211 30 61.289683 0
H  33 1.119189 32 111.734053 30 -60.330614 0
C  13 1.588854 2 112.628179 1 -116.287727 0
H  37 1.105843 13 110.502663 2 125.168527 0
C  37 1.572148 13 113.277191 2 3.694136 0
O  39 1.247936 37 128.277485 13 -132.717906 0
O  39 1.428022 37 106.499086 13 47.863523 0
C  41 1.480065 39 112.308362 37 -176.254355 0
H  42 1.108549 41 111.446110 39 -59.408364 0
H  42 1.108662 41 111.037706 39 62.186131 0
H  42 1.110817 41 104.322320 39 -178.970801 0
C  37 1.582843 13 101.333165 2 -116.420082 0
H  46 1.107527 37 113.824704 13 153.679629 0
O  46 1.482172 37 103.476953 13 33.746757 0
C  48 1.479889 46 95.045775 37 -56.396051 0
H  49 1.107271 48 110.432670 46 -179.632131 0
C  46 1.577804 37 108.334008 13 -75.566186 0
H  51 1.101655 46 110.439271 37 -168.632851 0
H  51 1.101775 46 112.301865 37 -47.102572 0
C  51 1.574818 46 101.037721 37 73.338844 0
H  54 1.101501 51 111.601265 46 118.874843 0
H  54 1.101828 51 112.719284 46 -118.449013 0
$end

 
 --------------------------------------------------------------
 
                    Orbital Energies (a.u.)
 --------------------------------------------------------------
 
 Alpha MOs
 -- Occupied --
-18.937 -18.937 -18.935 -18.933 -18.889 -18.888 -18.883 -18.879
-18.876 -18.873 -10.104 -10.103 -10.103 -10.100 -10.073 -10.062
-10.062 -10.061 -10.059 -10.058 -10.049 -10.041 -10.041 -10.040
-10.038 -10.038 -10.022 -10.022 -10.021 -10.020  -1.019  -1.015
 -1.009  -1.006  -0.971  -0.970  -0.943  -0.938  -0.936  -0.936
 -0.766  -0.764  -0.729  -0.724  -0.712  -0.706  -0.698  -0.657
 -0.655  -0.618  -0.598  -0.581  -0.548  -0.545  -0.539  -0.537
 -0.512  -0.511  -0.487  -0.474  -0.459  -0.458  -0.455  -0.453
 -0.437  -0.432  -0.430  -0.418  -0.415  -0.409  -0.401  -0.398
 -0.391  -0.383  -0.372  -0.368  -0.363  -0.362  -0.355  -0.352
 -0.342  -0.341  -0.338  -0.332  -0.331  -0.327  -0.324  -0.312
 -0.311  -0.307  -0.306  -0.302  -0.292  -0.289  -0.285  -0.275
 -0.273  -0.263  -0.254  -0.245  -0.242  -0.235  -0.234  -0.185
 -0.178  -0.174  -0.171  -0.163  -0.159  -0.153  -0.151  -0.145
 -0.144
 -- Virtual --
  0.087   0.093   0.103   0.109   0.224   0.227   0.252   0.255
  0.260   0.263   0.283   0.283   0.298   0.306   0.323   0.330
  0.335   0.339   0.345   0.346   0.358   0.359   0.370   0.375
  0.379   0.382   0.383   0.397   0.400   0.406   0.409   0.411
  0.416   0.417   0.419   0.420   0.428   0.430   0.432   0.435
  0.437   0.438   0.442   0.444   0.447   0.459   0.465   0.465
  0.482   0.485   0.487   0.488   0.496   0.504   0.510   0.539
  0.540   0.550   0.550   0.637   0.644   0.649   0.656
 --------------------------------------------------------------
 
          Ground-State Mulliken Net Atomic Charges

     Atom                 Charge (a.u.)
  ----------------------------------------
      1 O                    -0.205829
      2 C                     0.213312
      3 C                    -0.078670
      4 C                    -0.078829
      5 C                     0.216467
      6 O                    -0.174881
      7 C                    -0.063373
      8 C                    -0.053493
      9 O                    -0.174534
     10 C                     0.210976
     11 C                    -0.078193
     12 C                    -0.079285
     13 C                     0.218004
     14 O                    -0.227988
     15 O                    -0.176331
     16 O                    -0.166251
     17 O                    -0.208345
     18 C                    -0.148495
     19 C                     0.024423
     20 C                    -0.144225
     21 C                    -0.143660
     22 C                     0.025488
     23 O                    -0.186589
     24 H                     0.086079
     25 H                     0.087146
     26 H                     0.090812
     27 H                     0.078790
     28 H                     0.073269
     29 H                     0.078397
     30 H                     0.073775
     31 H                     0.083139
     32 O                    -0.211712
     33 C                    -0.140458
     34 C                     0.023981
     35 C                    -0.143700
     36 C                    -0.144159
     37 C                     0.025848
     38 O                    -0.185605
     39 H                     0.083496
     40 H                     0.084542
     41 H                     0.089201
     42 H                     0.091194
     43 H                     0.078754
     44 H                     0.072792
     45 H                     0.078526
     46 H                     0.072926
     47 H                     0.083521
     48 H                     0.084035
     49 H                     0.112770
     50 H                     0.078935
     51 H                     0.084069
     52 H                     0.113419
     53 H                     0.099523
     54 H                     0.092126
     55 H                     0.099699
     56 H                     0.105170
  ----------------------------------------
  Sum of atomic charges =    -0.000000

 -----------------------------------------------------------------
                    Cartesian Multipole Moments
 -----------------------------------------------------------------
    Charge (ESU x 10^10)
                -0.0000
    Dipole Moment (Debye)
         X       1.3506      Y       0.2637      Z      -4.6756
       Tot       4.8739
    Quadrupole Moments (Debye-Ang)
        XX    -152.5135     XY       0.4818     YY    -154.8906
        XZ       6.2230     YZ       0.4087     ZZ    -167.8090
    Octopole Moments (Debye-Ang^2)
       XXX      76.8240    XXY       6.9449    XYY       0.8077
       YYY     -15.6543    XXZ     -98.9849    XYZ       9.5809
       YYZ      -6.1725    XZZ      -0.0677    YZZ      -1.7858
       ZZZ       3.3612
    Hexadecapole Moments (Debye-Ang^3)
      XXXX  -14085.7627   XXXY     230.4486   XXYY   -2739.4656
      XYYY     346.9957   YYYY   -1937.7962   XXXZ     114.7043
      XXYZ     -17.0217   XYYZ      19.0588   YYYZ     -41.4770
      XXZZ   -2760.7096   XYZZ     113.3826   YYZZ    -568.5701
      XZZZ       0.3391   YZZZ     -58.1680   ZZZZ   -1267.5539
 -----------------------------------------------------------------
Archival summary:
1\1\vega02.cac.cornell.edu\OPT\ProcedureUnspecified\STO-3G\102026\jj585\TueJan1618:56:482018TueJan1618:56:482018\0\\#,OPT,ProcedureUnspecified,STO-3G,\\0,1\O\C,1,1.44342\O,2,1.24938,1,123.573\C,1,1.48607,2,109.892,3,-7.18858,0\H,4,1.11062,1,108.814,2,25.4757,0\H,4,1.11526,1,108.422,2,-93.7887,0\C,4,1.56773,1,109.113,2,147.691,0\H,7,1.10905,4,110.462,1,-31.6516,0\H,7,1.11113,4,109.127,1,-152.907,0\O,7,1.48442,4,110.904,1,86.5035,0\C,10,1.43601,7,109.914,4,90.3117,0\O,11,1.24938,10,124.269,7,5.95035,0\C,2,1.56797,1,109.135,3,-176.475,0\H,13,1.1038,2,108.817,1,7.97005,0\C,11,1.56886,10,108.652,7,-175.187,0\H,15,1.10548,11,108.541,10,-64.8997,0\C,15,1.58278,11,110.091,10,171.676,0\H,17,1.10728,15,113.654,11,34.8558,0\O,17,1.48224,15,102.944,11,-84.4447,0\C,19,1.47939,17,94.9919,15,-57.4823,0\H,20,1.10729,19,110.472,17,179.894,0\C,17,1.57807,15,108.87,11,165.948,0\H,22,1.10155,17,110.444,15,-167.385,0\H,22,1.10194,17,112.209,15,-45.9359,0\C,22,1.57482,17,101.125,15,74.4603,0\H,25,1.1016,22,111.518,17,117.181,0\H,25,1.1017,22,112.756,17,-120.141,0\C,15,1.58846,11,113.851,10,58.934,0\H,28,1.10373,15,111.165,11,-124.496,0\C,28,1.56771,15,113.31,11,-2.80862,0\O,30,1.25563,28,126.681,15,64.5147,0\O,30,1.42005,28,107.836,15,-115.944,0\C,32,1.48481,30,111.441,28,176.64,0\H,33,1.10509,32,105.403,30,179.86,0\H,33,1.10795,32,111.451,30,61.2897,0\H,33,1.11919,32,111.734,30,-60.3306,0\C,13,1.58885,2,112.628,1,-116.288,0\H,37,1.10584,13,110.503,2,125.169,0\C,37,1.57215,13,113.277,2,3.69414,0\O,39,1.24794,37,128.277,13,-132.718,0\O,39,1.42802,37,106.499,13,47.8635,0\C,41,1.48006,39,112.308,37,-176.254,0\H,42,1.10855,41,111.446,39,-59.4084,0\H,42,1.10866,41,111.038,39,62.1861,0\H,42,1.11082,41,104.322,39,-178.971,0\C,37,1.58284,13,101.333,2,-116.42,0\H,46,1.10753,37,113.825,13,153.68,0\O,46,1.48217,37,103.477,13,33.7468,0\C,48,1.47989,46,95.0458,37,-56.3961,0\H,49,1.10727,48,110.433,46,-179.632,0\C,46,1.5778,37,108.334,13,-75.5662,0\H,51,1.10166,46,110.439,37,-168.633,0\H,51,1.10178,46,112.302,37,-47.1026,0\C,51,1.57482,46,101.038,37,73.3388,0\H,54,1.1015,51,111.601,46,118.875,0\H,54,1.10183,51,112.719,46,-118.449,0\\\@

 Total job time:  99.84s(wall), 4758.33s(cpu) 
 Tue Jan 16 18:56:48 2018

        *************************************************************
        *                                                           *
        *  Thank you very much for using Q-Chem.  Have a nice day.  *
        *                                                           *
        *************************************************************


0 sent ACK to 0 
now end server 0 ... 
