mFile = /opt/software/qchem/qchem-5.0.1//bin/mpi/machines
Process 0 of 1 is on vega02.cac.cornell.edu - thread support 0
initial socket setup ...start
initial socket setup ...done 
now start server 0 ... 
vega02.cac.cornell.edu 10.84.3
Q-Chem Developer Version! Running on 10.84.3.*
                  Welcome to Q-Chem
     A Quantum Leap Into The Future Of Chemistry


 Q-Chem 5.0, Q-Chem, Inc., Pleasanton, CA (2017)

 Yihan Shao,  Zhengting Gan,  E. Epifanovsky,  A. T. B. Gilbert,  M. Wormit,  
 J. Kussmann,  A. W. Lange,  A. Behn,  Jia Deng,  Xintian Feng,  D. Ghosh,  
 M. Goldey,  P. R. Horn,  L. D. Jacobson,  I. Kaliman,  T. Kus,  A. Landau,  
 Jie Liu,  E. I. Proynov,  R. M. Richard,  R. P. Steele,  E. J. Sundstrom,  
 H. L. Woodcock III,  P. M. Zimmerman,  D. Zuev,  B. Albrecht,  E. Alguire,  
 S. A. Baeppler,  Z. Benda,  Y. A. Bernard,  E. J. Berquist,  K. B. Bravaya,  
 D. Casanova,  Chun-Min Chang,  Yunqing Chen,  A. Chien,  K. D. Closser,  
 M. P. Coons,  S. Dasgupta,  M. Diedenhofen,  Hainam Do,  R. G. Edgar,  
 Po-Tung Fang,  S. Fatehi,  Qingguo Feng,  Qinghui Ge,  A. Ghysels,  
 J. Gomes,  J. Gonthier,  A. Gunina,  M. W. D. Hanson-Heine,  
 P. H. P. Harbach,  A. W. Hauser,  J. E. Herr,  E. G. Hohenstein,  
 Z. C. Holden,  Kerwin Hui,  T.-C. Jagau,  Hyunjun Ji,  B. Kaduk,  
 K. Khistyaev,  Jaehoon Kim,  P. Klunzinger,  K. Koh,  D. Kosenkov,  
 T. Kowalczyk,  C. M. Krauter,  A. Kunitsa,  Ka Un Lao,  A. Laurent,  
 K. V. Lawler,  Joonho Lee,  D. Lefrancois,  S. Lehtola,  D. S. Levine,  
 Yi-Pei Li,  You-Sheng Lin,  Fenglai Liu,  E. Livshits,  A. Luenser,  
 P. Manohar,  E. Mansoor,  S. F. Manzer,  Shan-Ping Mao,  Yuezhi Mao,  
 N. Mardirossian,  A. V. Marenich,  L. A. Martinez-Martinez,  S. A. Maurer,  
 N. J. Mayhall,  S. C. McKenzie,  J.-M. Mewes,  A. F. Morrison,  K. Nanda,  
 T. S. Nguyen-Beck,  R. Olivares-Amaya,  J. A. Parkhill,  T. M. Perrine,  
 F. Plasser,  S. Prager,  A. Prociuk,  D. R. Rehn,  F. Rob,  M. Schneider,  
 N. Sergueev,  S. M. Sharada,  S. Sharma,  D. W. Small,  T. Stauch,  
 T. Stein,  Yu-Chuan Su,  A. J. W. Thom,  T. Tsuchimochi,  L. Vogt,  
 O. Vydrov,  M. A. Watson,  J. Wenzel,  M. de Wergifosse,  T. A. Wesolowski,  
 A. White,  J. Witte,  A. Yamada,  Jun Yang,  K. Yao,  S. Yeganeh,  
 S. R. Yost,  Zhi-Qiang You,  A. Zech,  Igor Ying Zhang,  Xing Zhang,  
 Yan Zhao,  Ying Zhu,  B. R. Brooks,  G. K. L. Chan,  C. J. Cramer,  
 M. S. Gordon,  W. J. Hehre,  A. Klamt,  M. W. Schmidt,  C. D. Sherrill,  
 D. G. Truhlar,  A. Aspuru-Guzik,  R. Baer,  A. T. Bell,  N. A. Besley,  
 Jeng-Da Chai,  A. Dreuw,  B. D. Dunietz,  T. R. Furlani,  Chao-Ping Hsu,  
 Yousung Jung,  Jing Kong,  D. S. Lambrecht,  WanZhen Liang,  C. Ochsenfeld,  
 V. A. Rassolov,  L. V. Slipchenko,  J. E. Subotnik,  T. Van Voorhis,  
 J. M. Herbert,  A. I. Krylov,  P. M. W. Gill,  M. Head-Gordon

 Contributors to earlier versions of Q-Chem not listed above: 
 R. D. Adamson,  B. Austin,  J. Baker,  G. J. O. Beran,  K. Brandhorst,  
 S. T. Brown,  E. F. C. Byrd,  A. K. Chakraborty,  C.-L. Cheng,  
 Siu Hung Chien,  D. M. Chipman,  D. L. Crittenden,  H. Dachsel,  
 R. A. DiStasio Jr.,  R. J. Doerksen,  A. D. Dutoi,  L. Fusti-Molnar,  
 W. A. Goddard III,  A. Golubeva-Zadorozhnaya,  S. R. Gwaltney,  G. Hawkins,  
 A. Heyden,  S. Hirata,  G. Kedziora,  F. J. Keil,  C. Kelley,  Jihan Kim,  
 R. A. King,  R. Z. Khaliullin,  P. P. Korambath,  W. Kurlancheek,  
 A. M. Lee,  M. S. Lee,  S. V. Levchenko,  Ching Yeh Lin,  D. Liotard,  
 R. C. Lochan,  I. Lotan,  P. E. Maslen,  N. Nair,  D. P. O'Neill,  
 D. Neuhauser,  E. Neuscamman,  C. M. Oana,  R. Olson,  B. Peters,  
 R. Peverati,  P. A. Pieniazek,  Y. M. Rhee,  J. Ritchie,  M. A. Rohrdanz,  
 E. Rosta,  N. J. Russ,  H. F. Schaefer III,  N. E. Schultz,  N. Shenvi,  
 A. C. Simmonett,  A. Sodt,  D. Stuck,  K. S. Thanthiriwatte,  V. Vanovschi,  
 Tao Wang,  A. Warshel,  C. F. Williams,  Q. Wu,  X. Xu,  W. Zhang

 Please cite Q-Chem as follows:
 Y. Shao et al., Mol. Phys. 113, 184-215 (2015)
 DOI: 10.1080/00268976.2014.952696

 Q-Chem 5.0.1 for Intel X86 EM64T Linux

 Parts of Q-Chem use Armadillo 5.200.1 (Boston Tea Smuggler).
 http://arma.sourceforge.net/

 Q-Chem begins on Tue Jan 16 19:18:36 2018  

Host: vega02.cac.cornell.edu
0

     Scratch files written to /scratch/jj585/SOT1001/1245r.save//
 Parallel job on  1  processors

Checking the input file for inconsistencies... 	...done.

--------------------------------------------------------------
User input:
--------------------------------------------------------------
$molecule
0  1
O -2.1541584592 2.1867793434 1.2647861784
C -2.3818100831 1.6013831961 0.1837874208
C -3.7509867586 0.8989171035 -0.1670136559
C -3.7708329594 -0.6420931408 -0.5506759185
C -2.5516422072 -1.4854773246 -0.0145904407
O -1.3853964735 -1.2329024683 -0.8040225455
C -0.1869562239 -1.8758246118 -0.1959464838
C 0.7491454553 -2.3313114105 -1.3814082402
O 2.022755896 -1.5742480392 -1.4817912585
C 2.7527605566 -1.7104558881 -0.2489036985
C 4.0930286703 -0.9057323484 -0.3371849752
C 3.9244339012 0.6588674539 -0.486893776
C 2.4448593826 1.1688622883 -0.3936066285
O 1.5582713791 0.7713624649 0.3971414422
O -1.4230578455 1.810068936 -0.8701058592
O 2.3488334411 2.3243845393 -1.2245818097
O 2.3843666158 -2.4422229242 0.6949787403
C 1.1393311619 3.1217262313 -0.9008054836
C 4.9085795179 -1.0041842347 1.0180620333
C 6.4080694888 -0.6125440582 0.7202874365
C 6.2778554787 0.9442794445 0.5249271536
C 4.734829227 1.1596543811 0.7902426384
O 4.4057111591 0.141916816 1.8114362662
H 4.672593421 -1.3092906953 -1.1879301796
H 4.3688798827 1.0338455756 -1.4249858187
H 4.7515419047 -1.952033043 1.5689145475
H 7.0492380145 -0.8591958869 1.5814800226
H 6.8029395419 -1.1228104718 -0.1728097317
H 6.8757057525 1.4973891967 1.2666346339
H 6.5738213234 1.2729866126 -0.484242935
H 4.4547099909 2.171441013 1.1428435293
O -2.5751500146 -2.2816545614 0.9485925624
C -1.7181319205 1.2066027056 -2.1865265132
C -4.7963754385 0.939265584 1.0306674189
C -6.231660423 1.0292751315 0.3840357146
C -6.3454055629 -0.4041887546 -0.2581832027
C -5.0364611426 -1.1007424573 0.2914691347
O -4.7805333102 -0.4308718274 1.589524903
H -4.1662010746 1.467224353 -1.0205784728
H -3.8840318915 -0.7899762414 -1.6395319617
H -0.9210918657 1.5747055228 -2.8586694546
H -4.5533425516 1.687178784 1.8104644643
H -6.9930839894 1.1791887021 1.1662180225
H -6.3174282399 1.8411963978 -0.3558231893
H -7.2436116768 -0.9374947379 0.0902240637
H -6.3609853091 -0.3728231316 -1.3597470411
H -5.1036250163 -2.1965577704 0.4332297528
H -2.7006936831 1.5234449323 -2.5881462826
H -1.6562953962 0.1014722181 -2.1007248618
H 1.2913550466 3.6701068109 0.051247317
H 0.2095018053 2.5072342618 -0.8160307608
H 1.0368395901 3.8545390649 -1.7219357364
H 0.9615603331 -3.418942805 -1.2903957662
H 0.2298896474 -2.1510319486 -2.3447507384
H -0.5062308104 -2.7222923721 0.4457943497
H 0.3289743067 -1.1067363865 0.4229061619
$end

$rem
JOBTYPE                   OPT
METHOD                    B3LYP
DFT_D                     d3_op
BASIS                     STO-3G
GEOM_OPT_MAX_CYCLES       100
GEOM_OPT_TOL_GRADIENT     300
GEOM_OPT_TOL_DISPLACEMENT 1200
GEOM_OPT_TOL_ENERGY       100
SYMMETRY                  False
THRESH                    12
SCF_CONVERGENCE           8
MAX_SUB_FILE_NUM          128
MEM_STATIC                400
MEM_TOTAL                 4000
$end
--------------------------------------------------------------
 Adding empirical dispersion correction 
 ----------------------------------------------------------------
 Doing -D3(op) with
 s6 =   1.00000
 s8 =   0.78311
 a1 =   0.30000
 a2 =   4.25000
 n  =  10.00000
 -D3 energy without 3body term =     -0.0720604063 hartrees
 ----------------------------------------------------------------
             Standard Nuclear Orientation (Angstroms)
    I     Atom           X                Y                Z
 ----------------------------------------------------------------
    1      O      -2.1894966900     2.0324191125     1.4826795517
    2      C      -2.4228954909     1.5337829870     0.3602004921
    3      C      -3.7888535497     0.8475931289    -0.0328221989
    4      C      -3.7978662036    -0.6575669322    -0.5394928405
    5      C      -2.5649869372    -1.5286231644    -0.0852017818
    6      O      -1.4096446295    -1.2009759711    -0.8629920403
    7      C      -0.1986893582    -1.8782596850    -0.3205544743
    8      C       0.7291867455    -2.2267913311    -1.5480094760
    9      O       1.9942921475    -1.4507890776    -1.5993327436
   10      C       2.7385687885    -1.6783527246    -0.3886559964
   11      C       4.0699925271    -0.8551258283    -0.4247181856
   12      C       3.8847181793     0.7145983287    -0.4459066124
   13      C       2.4013546437     1.1998682678    -0.2973008038
   14      O       1.5270553236     0.7306016637     0.4673667462
   15      O      -1.4773966482     1.8368461180    -0.6826951468
   16      O       2.2853928489     2.4175903224    -1.0312478494
   17      O       2.3872580831    -2.4877005399     0.4965829833
   18      C       1.0717341619     3.1734916820    -0.6323413787
   19      C       4.9007351295    -1.0540329018     0.9101275425
   20      C       6.3931406726    -0.6239510924     0.6303468369
   21      C       6.2458357567     0.9421076308     0.5626557419
   22      C       4.7036913668     1.1191912322     0.8595408405
   23      O       4.3952322119     0.0189955700     1.7983525011
   24      H       4.6444043996    -1.1826405257    -1.3108937698
   25      H       4.3155810207     1.1686698264    -1.3549356492
   26      H       4.7586923667    -2.0448244636     1.3841239585
   27      H       7.0457285769    -0.9325385707     1.4625064783
   28      H       6.7834599765    -1.0563395522    -0.3048578382
   29      H       6.8461210087     1.4398160163     1.3407491253
   30      H       6.5279294158     1.3542391514    -0.4195047484
   31      H       4.4175534967     2.0962432653     1.2954316606
   32      O      -2.5706206483    -2.4001096046     0.8107066692
   33      C      -1.7805247186     1.3384849684    -2.0406174851
   34      C      -4.8218659337     0.7802310856     1.1743452372
   35      C      -6.2647078661     0.9070625112     0.5511292121
   36      C      -6.3713815794    -0.4710336811    -0.2036379115
   37      C      -5.0500328793    -1.1958997480     0.2751595885
   38      O      -4.7868826328    -0.6302830939     1.6205235699
   39      H      -4.2185370785     1.4785230478    -0.8336021045
   40      H      -3.9211336051    -0.7183065444    -1.6355798533
   41      H      -0.9942265847     1.7679452750    -2.6885740857
   42      H      -4.5778409648     1.4653053081     2.0095983097
   43      H      -7.0192342990     0.9853979496     1.3502553036
   44      H      -6.3661302426     1.7750794281    -0.1198578164
   45      H      -7.2606612135    -1.0400937140     0.1092990302
   46      H      -6.3989057162    -0.3510702639    -1.2988641992
   47      H      -5.1051056143    -2.3002231861     0.3285917617
   48      H      -2.7702914620     1.6763771801    -2.4057280165
   49      H      -1.7071117524     0.2307437220    -2.0449696028
   50      H       1.2285076639     3.6448444854     0.3593670767
   51      H       0.1488323428     2.5444509627    -0.5884122024
   52      H       0.9534949588     3.9690433640    -1.3905570971
   53      H       0.9530486566    -3.3159334834    -1.5472234868
   54      H       0.1980605634    -1.9748377333    -2.4885308264
   55      H      -0.5029711887    -2.7770389053     0.2538005633
   56      H       0.3162996158    -1.1562364368     0.3533360164
 ----------------------------------------------------------------
 Molecular Point Group                 C1    NOp =  1
 Largest Abelian Subgroup              C1    NOp =  1
 Nuclear Repulsion Energy =  3211.8701263067 hartrees
 There are      113 alpha and      113 beta electrons
 Requested basis set is STO-3G
 There are 86 shells and 176 basis functions

 Total QAlloc Memory Limit   4000 MB
 Mega-Array Size       392 MB
 MEM_STATIC part       400 MB
 A cutoff of  1.0D-12 yielded   2261 shell pairs
 There are     10712 function pairs
 
 -------------------------------------------------------
 OpenMP Integral Computing Module                       
 Release: version 1.0, May 2013, Q-Chem Inc. Pittsburgh 
 -------------------------------------------------------
 Integral Job Info:
 Integral job number is                      11
 Integral operator is                         1
 short-range coefficients                     0
 long-range coefficients              100000000
 Omega coefficients                           0
 if combine SR and LR in K                    0
 Integral screening is                        0
 Integral computing path is                   2
 max size of driver memory is            800000
 size of driver memory is                 45569
 size of scratch memory is              1046100
 max col of scratch BK array                289
 max len of scratch array in speh3           22
 max len of scratch index in speh4            8
 max int batch size is                      520
 min int batch size is                       52
 fixed nKL is                                52
 max L of basis functions is                  1
 order of int derivative is                   0
 number of shells is                         86
 number of basis is                         176
 number of cartesian basis is               176
 number of contracted shell pairs          2261
 number of primitive shell pairs          11554
 maxK2 (contraction) of shell pair            9
 max number of K2 of shell pair               1
 max number of CS2 of shell pair            342
 max number of PS2 of shell pair           1308
 mem total for path MDJ                   49782
 -------------------------------------------------------
 Smallest overlap matrix eigenvalue = 2.13E-01

 Scale SEOQF with 1.000000e-02/1.000000e-01/1.000000e-01

 Standard Electronic Orientation quadrupole field applied
 Nucleus-field energy     =     0.0000000267 hartrees
 Guess from superposition of atomic densities
 Warning:  Energy on first SCF cycle will be non-variational
 A restricted hybrid HF-DFT SCF calculation will be
 performed using Pulay DIIS extrapolation
 Exchange:     0.2000 Hartree-Fock + 0.0800 Slater + 0.7200 B88
 Correlation:  0.1900 VWN1RPA + 0.8100 LYP
 Using SG-1 standard quadrature grid
 Dispersion:   Grimme D3
 SCF converges when DIIS error is below 1.0E-08
 using 48 threads for integral computing
 -------------------------------------------------------
 OpenMP Integral computing Module                
 Release: version 1.0, May 2013, Q-Chem Inc. Pittsburgh 
 -------------------------------------------------------
 -------------------------------------------------------
 OpenMP BLAS3 based DFT computing Module                
 Release: version 1.0, May 2013, Q-Chem Inc. Pittsburgh 
 -------------------------------------------------------
 ---------------------------------------
  Cycle       Energy         DIIS Error
 ---------------------------------------
    1   -1507.6344460644      7.46E-02
    2   -1509.7099648816      1.06E-02
    3   -1506.9502267466      2.92E-02
    4   -1510.1774060257      4.60E-03
    5   -1510.2611808017      1.65E-03
    6   -1510.2727721905      3.42E-04
    7   -1510.2732501919      1.22E-04
    8   -1510.2733015024      5.68E-05
    9   -1510.2733151082      1.47E-05
   10   -1510.2733159589      5.02E-06
   11   -1510.2733160532      2.09E-06
   12   -1510.2733160732      3.33E-07
   13   -1510.2733160736      1.30E-07
   14   -1510.2733160736      4.65E-08
   15   -1510.2733160737      2.46E-08
   16   -1510.2733160738      6.27E-09 Convergence criterion met
 ---------------------------------------
 SCF time:  CPU 123.52 s  wall 2.63 s
 SCF   energy in the final basis set = -1510.27331607
 Total energy in the final basis set = -1510.27331607
 
 --------------------------------------------------------------
 
                    Orbital Energies (a.u.)
 --------------------------------------------------------------
 
 Alpha MOs
 -- Occupied --
-18.942 -18.940 -18.932 -18.922 -18.889 -18.885 -18.885 -18.881
-18.874 -18.865 -10.106 -10.106 -10.098 -10.091 -10.075 -10.066
-10.062 -10.062 -10.060 -10.058 -10.055 -10.047 -10.044 -10.035
-10.033 -10.031 -10.024 -10.022 -10.018 -10.017  -1.020  -1.011
 -1.009  -0.998  -0.972  -0.967  -0.944  -0.940  -0.934  -0.926
 -0.768  -0.760  -0.729  -0.721  -0.709  -0.705  -0.697  -0.665
 -0.648  -0.621  -0.599  -0.585  -0.552  -0.543  -0.540  -0.534
 -0.514  -0.507  -0.490  -0.472  -0.463  -0.461  -0.451  -0.448
 -0.435  -0.430  -0.428  -0.424  -0.412  -0.406  -0.403  -0.398
 -0.395  -0.385  -0.377  -0.368  -0.361  -0.354  -0.354  -0.349
 -0.348  -0.342  -0.336  -0.333  -0.328  -0.322  -0.319  -0.314
 -0.309  -0.307  -0.302  -0.300  -0.293  -0.289  -0.283  -0.281
 -0.268  -0.257  -0.253  -0.250  -0.235  -0.231  -0.229  -0.187
 -0.176  -0.173  -0.166  -0.161  -0.154  -0.151  -0.145  -0.144
 -0.140
 -- Virtual --
  0.091   0.094   0.097   0.109   0.213   0.232   0.243   0.249
  0.260   0.265   0.276   0.283   0.287   0.308   0.316   0.324
  0.328   0.339   0.343   0.345   0.350   0.363   0.370   0.371
  0.378   0.380   0.386   0.390   0.393   0.401   0.405   0.412
  0.415   0.418   0.422   0.422   0.427   0.432   0.435   0.435
  0.444   0.444   0.448   0.456   0.463   0.464   0.467   0.469
  0.477   0.486   0.490   0.493   0.506   0.509   0.515   0.540
  0.545   0.550   0.554   0.617   0.635   0.643   0.661
 --------------------------------------------------------------
 
          Ground-State Mulliken Net Atomic Charges

     Atom                 Charge (a.u.)
  ----------------------------------------
      1 O                    -0.194400
      2 C                     0.213031
      3 C                    -0.084744
      4 C                    -0.079657
      5 C                     0.209583
      6 O                    -0.180568
      7 C                    -0.057342
      8 C                    -0.049302
      9 O                    -0.172848
     10 C                     0.212016
     11 C                    -0.080429
     12 C                    -0.078382
     13 C                     0.210449
     14 O                    -0.215832
     15 O                    -0.167881
     16 O                    -0.175201
     17 O                    -0.210821
     18 C                    -0.151965
     19 C                     0.024894
     20 C                    -0.143840
     21 C                    -0.143892
     22 C                     0.025875
     23 O                    -0.186510
     24 H                     0.083643
     25 H                     0.085847
     26 H                     0.090541
     27 H                     0.078182
     28 H                     0.072414
     29 H                     0.078121
     30 H                     0.073610
     31 H                     0.083601
     32 O                    -0.201413
     33 C                    -0.140085
     34 C                     0.023948
     35 C                    -0.142255
     36 C                    -0.146152
     37 C                     0.026098
     38 O                    -0.184702
     39 H                     0.079119
     40 H                     0.081661
     41 H                     0.091196
     42 H                     0.094655
     43 H                     0.079957
     44 H                     0.072022
     45 H                     0.079576
     46 H                     0.071169
     47 H                     0.088825
     48 H                     0.075550
     49 H                     0.110183
     50 H                     0.077315
     51 H                     0.120483
     52 H                     0.076604
     53 H                     0.087261
     54 H                     0.091895
     55 H                     0.106244
     56 H                     0.112653
  ----------------------------------------
  Sum of atomic charges =    -0.000000

 -----------------------------------------------------------------
                    Cartesian Multipole Moments
 -----------------------------------------------------------------
    Charge (ESU x 10^10)
                -0.0000
    Dipole Moment (Debye)
         X      -0.7709      Y       0.5774      Z      -5.4793
       Tot       5.5633
    Quadrupole Moments (Debye-Ang)
        XX    -133.5573     XY      -3.3983     YY    -159.9345
        XZ       7.6076     YZ       3.8624     ZZ    -165.8801
    Octopole Moments (Debye-Ang^2)
       XXX      10.2534    XXY      16.0539    XYY       5.5032
       YYY       0.4728    XXZ     -42.0584    XYZ       3.5729
       YYZ     -13.6080    XZZ      -3.2092    YZZ       2.7823
       ZZZ      -8.7843
    Hexadecapole Moments (Debye-Ang^3)
      XXXX  -13386.6111   XXXY     -66.5578   XXYY   -2771.1729
      XYYY      14.8298   YYYY   -2430.4872   XXXZ      45.1817
      XXYZ      54.2298   XYYZ      32.2533   YYYZ      23.5975
      XXZZ   -2636.9100   XYZZ     -21.0931   YYZZ    -584.7194
      XZZZ      -7.8111   YZZZ     -11.1279   ZZZZ   -1075.7814
 -----------------------------------------------------------------
 Calculating analytic gradient of the SCF energy
 Gradient of SCF Energy
            1           2           3           4           5           6
    1  -0.0023014   0.0035512  -0.0031555   0.0032929  -0.0011577   0.0024663
    2   0.0056710  -0.0072444  -0.0006901   0.0047287  -0.0020225   0.0027597
    3  -0.0018942   0.0006794   0.0081588  -0.0053814  -0.0005124  -0.0021998
            7           8           9          10          11          12
    1  -0.0000389  -0.0018046   0.0013898  -0.0022283  -0.0006699   0.0013429
    2  -0.0080524   0.0036617  -0.0028056   0.0036641   0.0002266   0.0022838
    3   0.0049134  -0.0003785  -0.0051410   0.0001286   0.0023236   0.0038945
           13          14          15          16          17          18
    1  -0.0027979   0.0018261   0.0001005  -0.0001895   0.0001155   0.0000517
    2  -0.0061129   0.0039695  -0.0001039   0.0001521   0.0000156  -0.0001665
    3  -0.0090083   0.0047140  -0.0001533   0.0001435  -0.0000457   0.0000427
           19          20          21          22          23          24
    1  -0.0001269   0.0000755   0.0000757   0.0000653   0.0000739   0.0000324
    2   0.0002877  -0.0000179   0.0001236  -0.0004103   0.0000241   0.0000538
    3  -0.0002117  -0.0000049   0.0001277  -0.0001024   0.0000600  -0.0000023
           25          26          27          28          29          30
    1   0.0000120   0.0000749   0.0000047  -0.0001333  -0.0000064   0.0000816
    2  -0.0001475  -0.0000787  -0.0000253  -0.0000326   0.0000058  -0.0000326
    3   0.0000817   0.0001464  -0.0000136  -0.0000693   0.0000303  -0.0000832
           31          32          33          34          35          36
    1   0.0000508   0.0000640  -0.0001027   0.0000023  -0.0001747  -0.0000016
    2   0.0000877  -0.0000741  -0.0000078   0.0001251  -0.0001428   0.0001383
    3   0.0001113  -0.0002035  -0.0002399   0.0001028   0.0000188   0.0000573
           37          38          39          40          41          42
    1   0.0000168   0.0000312  -0.0000304  -0.0000110   0.0000148  -0.0000325
    2  -0.0001533   0.0000110   0.0001727  -0.0000293  -0.0000191   0.0000745
    3   0.0000908  -0.0002122  -0.0000575  -0.0001559  -0.0000215  -0.0000871
           43          44          45          46          47          48
    1   0.0001134   0.0000763  -0.0000317   0.0000858  -0.0000124   0.0000730
    2  -0.0000468   0.0000647   0.0000491   0.0000198  -0.0000159  -0.0000283
    3  -0.0000065  -0.0000857   0.0000134   0.0000060   0.0000303   0.0001243
           49          50          51          52          53          54
    1  -0.0002551   0.0000081   0.0000157   0.0000244   0.0000208   0.0000274
    2   0.0001155   0.0000436   0.0000118   0.0000153   0.0000016  -0.0000235
    3   0.0003419   0.0000270  -0.0000009  -0.0000417   0.0000029  -0.0000300
           55          56
    1   0.0000211  -0.0000162
    2  -0.0000411  -0.0000337
    3  -0.0000581   0.0000310
 Max gradient component =       9.008E-03
 RMS gradient           =       1.933E-03
 Gradient time:  CPU 31.23 s  wall 0.67 s
 Geometry Optimization Parameters
   NAtoms,    NIC,     NZ,  NCons,   NDum,   NFix, NCnnct, MaxDiis
       56     458       0       0       0       0       0       0


** GEOMETRY OPTIMIZATION IN DELOCALIZED INTERNAL COORDINATES **
   Searching for a Minimum

   Optimization Cycle:   1

                       Coordinates (Angstroms)
     ATOM                X               Y               Z
      1  O        -2.1894966900    2.0324191125    1.4826795517
      2  C        -2.4228954909    1.5337829870    0.3602004921
      3  C        -3.7888535497    0.8475931289   -0.0328221989
      4  C        -3.7978662036   -0.6575669322   -0.5394928405
      5  C        -2.5649869372   -1.5286231644   -0.0852017818
      6  O        -1.4096446295   -1.2009759711   -0.8629920403
      7  C        -0.1986893582   -1.8782596850   -0.3205544743
      8  C         0.7291867455   -2.2267913311   -1.5480094760
      9  O         1.9942921475   -1.4507890776   -1.5993327436
     10  C         2.7385687885   -1.6783527246   -0.3886559964
     11  C         4.0699925271   -0.8551258283   -0.4247181856
     12  C         3.8847181793    0.7145983287   -0.4459066124
     13  C         2.4013546437    1.1998682678   -0.2973008038
     14  O         1.5270553236    0.7306016637    0.4673667462
     15  O        -1.4773966482    1.8368461180   -0.6826951468
     16  O         2.2853928489    2.4175903224   -1.0312478494
     17  O         2.3872580831   -2.4877005399    0.4965829833
     18  C         1.0717341619    3.1734916820   -0.6323413787
     19  C         4.9007351295   -1.0540329018    0.9101275425
     20  C         6.3931406726   -0.6239510924    0.6303468369
     21  C         6.2458357567    0.9421076308    0.5626557419
     22  C         4.7036913668    1.1191912322    0.8595408405
     23  O         4.3952322119    0.0189955700    1.7983525011
     24  H         4.6444043996   -1.1826405257   -1.3108937698
     25  H         4.3155810207    1.1686698264   -1.3549356492
     26  H         4.7586923667   -2.0448244636    1.3841239585
     27  H         7.0457285769   -0.9325385707    1.4625064783
     28  H         6.7834599765   -1.0563395522   -0.3048578382
     29  H         6.8461210087    1.4398160163    1.3407491253
     30  H         6.5279294158    1.3542391514   -0.4195047484
     31  H         4.4175534967    2.0962432653    1.2954316606
     32  O        -2.5706206483   -2.4001096046    0.8107066692
     33  C        -1.7805247186    1.3384849684   -2.0406174851
     34  C        -4.8218659337    0.7802310856    1.1743452372
     35  C        -6.2647078661    0.9070625112    0.5511292121
     36  C        -6.3713815794   -0.4710336811   -0.2036379115
     37  C        -5.0500328793   -1.1958997480    0.2751595885
     38  O        -4.7868826328   -0.6302830939    1.6205235699
     39  H        -4.2185370785    1.4785230478   -0.8336021045
     40  H        -3.9211336051   -0.7183065444   -1.6355798533
     41  H        -0.9942265847    1.7679452750   -2.6885740857
     42  H        -4.5778409648    1.4653053081    2.0095983097
     43  H        -7.0192342990    0.9853979496    1.3502553036
     44  H        -6.3661302426    1.7750794281   -0.1198578164
     45  H        -7.2606612135   -1.0400937140    0.1092990302
     46  H        -6.3989057162   -0.3510702639   -1.2988641992
     47  H        -5.1051056143   -2.3002231861    0.3285917617
     48  H        -2.7702914620    1.6763771801   -2.4057280165
     49  H        -1.7071117524    0.2307437220   -2.0449696028
     50  H         1.2285076639    3.6448444854    0.3593670767
     51  H         0.1488323428    2.5444509627   -0.5884122024
     52  H         0.9534949588    3.9690433640   -1.3905570971
     53  H         0.9530486566   -3.3159334834   -1.5472234868
     54  H         0.1980605634   -1.9748377333   -2.4885308264
     55  H        -0.5029711887   -2.7770389053    0.2538005633
     56  H         0.3162996158   -1.1562364368    0.3533360164
   Point Group: c1    Number of degrees of freedom:   162


   Energy is  -1510.273316074


 Attempting to Generate Delocalized Internal Coordinates

162 Hessian modes will be used to form the next step
  Hessian Eigenvalues:
     0.002000    0.002000    0.002000    0.002000    0.002000    0.002685
     0.002817    0.003773    0.004214    0.004296    0.004398    0.004479
     0.005137    0.005340    0.005430    0.006803    0.006828    0.010361
     0.010452    0.011574    0.012137    0.021497    0.021741    0.025574
     0.026338    0.030529    0.030822    0.034942    0.035327    0.037970
     0.041277    0.041799    0.042288    0.043925    0.044013    0.045352
     0.046171    0.047179    0.051160    0.051316    0.051430    0.053856
     0.054683    0.054724    0.055428    0.055456    0.055643    0.056405
     0.056545    0.058974    0.060301    0.060458    0.060468    0.062959
     0.063735    0.064143    0.064575    0.069957    0.070176    0.072920
     0.073494    0.091435    0.092533    0.092784    0.092980    0.095443
     0.095820    0.097138    0.097191    0.103275    0.105077    0.109492
     0.110502    0.111649    0.116183    0.120579    0.121400    0.134293
     0.139862    0.157702    0.158147    0.160000    0.160000    0.160000
     0.160000    0.160000    0.160000    0.162874    0.163660    0.218972
     0.219561    0.220097    0.221124    0.226706    0.229999    0.238374
     0.238408    0.239542    0.239661    0.245192    0.246518    0.247449
     0.247477    0.249468    0.249981    0.250000    0.250000    0.250000
     0.250000    0.250000    0.250000    0.250000    0.250000    0.253352
     0.253367    0.253753    0.254256    0.255213    0.261931    0.263513
     0.292259    0.293064    0.307014    0.308081    0.317929    0.321959
     0.323986    0.325810    0.326872    0.326891    0.326929    0.328392
     0.328678    0.328681    0.328686    0.329212    0.329925    0.330607
     0.330620    0.330985    0.331712    0.332760    0.334487    0.334766
     0.334786    0.334796    0.334838    0.334862    0.335026    0.335077
     0.335530    0.340004    0.340693    0.348105    0.395927    0.396870
     0.408777    0.414927    0.822371    0.831523    0.832853    0.832943

 Minimum Search - Taking Simple RFO Step
 Searching for Lamda that Minimizes Along All modes
 Value Taken    Lamda =  -0.01998435
 Calculated Step too Large.  Step scaled by  0.339915
 Step Taken.  Stepsize is  0.300000

                             Maximum     Tolerance    Cnvgd?
         Gradient           0.015618      0.000300      NO
         Displacement       0.183118      0.001200      NO
         Energy change     *********      0.000001      NO


 New Cartesian Coordinates Obtained by Inverse Iteration

 Displacement from previous Coordinates is:  4.636650
 Adding empirical dispersion correction 
 ----------------------------------------------------------------
 Doing -D3(op) with
 s6 =   1.00000
 s8 =   0.78311
 a1 =   0.30000
 a2 =   4.25000
 n  =  10.00000
 -D3 energy without 3body term =     -0.0705820102 hartrees
 ----------------------------------------------------------------
             Standard Nuclear Orientation (Angstroms)
    I     Atom           X                Y                Z
 ----------------------------------------------------------------
    1      O      -2.3831573295     2.3186794984     1.0628183207
    2      C      -2.6181486221     1.6854893087     0.0107468992
    3      C      -3.9421768086     0.8670010564    -0.2506818882
    4      C      -3.8627940048    -0.6977119381    -0.5112570365
    5      C      -2.5720438698    -1.4087194884     0.0484507206
    6      O      -1.4457575323    -1.1274336946    -0.7878677436
    7      C      -0.2029585322    -1.7159380029    -0.2147098582
    8      C       0.7158117688    -2.1361226904    -1.4265198568
    9      O       1.9808603613    -1.3655280780    -1.5320660861
   10      C       2.8046839074    -1.6513288658    -0.3870978937
   11      C       4.1355105371    -0.8312810324    -0.4770611818
   12      C       3.9644298675     0.7355042136    -0.3436741053
   13      C       2.5061301992     1.2083626270    -0.0153871578
   14      O       1.6810821432     0.6465225570     0.7415122967
   15      O      -1.7043598256     1.8960898030    -1.0820780869
   16      O       2.3387409420     2.4941696005    -0.6100923784
   17      O       2.5228138806    -2.5207743213     0.4654057438
   18      C       1.1576374229     3.1973604383    -0.0495640787
   19      C       5.0784217497    -1.1479616045     0.7569586062
   20      C       6.5448014506    -0.6983793983     0.3853529051
   21      C       6.4072680042     0.8676888846     0.4684910029
   22      C       4.8990314174     1.0204317191     0.9149612523
   23      O       4.6633178832    -0.1572009113     1.7771706138
   24      H       4.6267416423    -1.0855800619    -1.4344258238
   25      H       4.3179935131     1.2718730315    -1.2412250655
   26      H       4.9683171813    -2.1762293509     1.1530893090
   27      H       7.2647195927    -1.0803737553     1.1265563048
   28      H       6.8476349281    -1.0474110992    -0.6148295230
   29      H       7.0783238130     1.2936032025     1.2312106893
   30      H       6.6058049390     1.3646044510    -0.4946463023
   31      H       4.6615573469     1.9554502577     1.4587674871
   32      O      -2.5175370192    -2.1455846673     1.0565576263
   33      C      -1.9986099694     1.2115417887    -2.3584809433
   34      C      -4.9558885273     0.9256005462     0.9742197117
   35      C      -6.4107578277     0.8663893486     0.3689372782
   36      C      -6.4394172899    -0.6170966949    -0.1592795436
   37      C      -5.0705540637    -1.1769863270     0.4003904627
   38      O      -4.8288488112    -0.3924136789     1.6350066516
   39      H      -4.4200523430     1.3407573836    -1.1287270247
   40      H      -3.9910466045    -0.9363975070    -1.5820947389
   41      H      -1.2455149465     1.5945116690    -3.0717214320
   42      H      -4.7461045149     1.7462364600     1.6877340663
   43      H      -7.1600048633     1.0236758696     1.1614260568
   44      H      -6.5737079449     1.6107386476    -0.4268287837
   45      H      -7.2879801241    -1.1824429554     0.2565292865
   46      H      -6.4860412142    -0.6724222677    -1.2590248460
   47      H      -5.0555324111    -2.2605112698     0.6265443393
   48      H      -3.0099549267     1.4478049865    -2.7439786154
   49      H      -1.8648938068     0.1176687086    -2.2235414775
   50      H       1.3858257460     3.5651532155     0.9716378514
   51      H       0.2396500034     2.5612228574    -0.0046152989
   52      H       0.9859097315     4.0659067251    -0.7112769926
   53      H       0.9445559930    -3.2229448485    -1.3733043871
   54      H       0.1690422392    -1.9350137555    -2.3703176041
   55      H      -0.4775635681    -2.5765381609     0.4289005967
   56      H       0.3026962592    -0.9337475933     0.3961582515
 ----------------------------------------------------------------
 Molecular Point Group                 C1    NOp =  1
 Largest Abelian Subgroup              C1    NOp =  1
 Nuclear Repulsion Energy =  3181.7896931496 hartrees
 There are      113 alpha and      113 beta electrons
 Applying Cartesian multipole field
    Component          Value
    ---------          -----
     (2,0,0)        1.00000E-12
     (0,2,0)        2.00000E-11
     (0,0,2)       -3.00000E-11
 Nucleus-field energy     =     0.0000000278 hartrees
 Requested basis set is STO-3G
 There are 86 shells and 176 basis functions
 A cutoff of  1.0D-12 yielded   2233 shell pairs
 There are     10549 function pairs
 Smallest overlap matrix eigenvalue = 2.13E-01
 Guess MOs from SCF MO coefficient file
 Reading MOs from coefficient file
 Reading MOs from coefficient file
 A restricted hybrid HF-DFT SCF calculation will be
 performed using Pulay DIIS extrapolation
 Exchange:     0.2000 Hartree-Fock + 0.0800 Slater + 0.7200 B88
 Correlation:  0.1900 VWN1RPA + 0.8100 LYP
 Using SG-1 standard quadrature grid
 Dispersion:   Grimme D3
 SCF converges when DIIS error is below 1.0E-08
 Geometry optimization detected.  Setting ReadMinima to 0
 Setting SaveMinima to 0
 using 48 threads for integral computing
 -------------------------------------------------------
 OpenMP Integral computing Module                
 Release: version 1.0, May 2013, Q-Chem Inc. Pittsburgh 
 -------------------------------------------------------
 -------------------------------------------------------
 OpenMP BLAS3 based DFT computing Module                
 Release: version 1.0, May 2013, Q-Chem Inc. Pittsburgh 
 -------------------------------------------------------
 ---------------------------------------
  Cycle       Energy         DIIS Error
 ---------------------------------------
    1   -1510.0120529229      7.24E-03
    2   -1510.2686774167      8.63E-04
    3   -1510.2677208187      1.13E-03
    4   -1510.2724171632      4.85E-04
    5   -1510.2734106936      1.19E-04
    6   -1510.2734672927      5.11E-05
    7   -1510.2734776639      2.32E-05
    8   -1510.2734799227      6.22E-06
    9   -1510.2734801010      1.37E-06
   10   -1510.2734801080      9.03E-07
   11   -1510.2734801113      3.87E-07
   12   -1510.2734801120      9.36E-08
   13   -1510.2734801120      2.94E-08
   14   -1510.2734801121      1.11E-08
   15   -1510.2734801121      6.59E-09 Convergence criterion met
 ---------------------------------------
 SCF time:  CPU 107.62 s  wall 2.25 s
 SCF   energy in the final basis set = -1510.27348011
 Total energy in the final basis set = -1510.27348011
 
 --------------------------------------------------------------
 
                    Orbital Energies (a.u.)
 --------------------------------------------------------------
 
 Alpha MOs
 -- Occupied --
-18.937 -18.932 -18.931 -18.929 -18.887 -18.887 -18.882 -18.874
-18.874 -18.873 -10.103 -10.100 -10.098 -10.098 -10.073 -10.063
-10.060 -10.060 -10.060 -10.057 -10.056 -10.052 -10.045 -10.040
-10.037 -10.036 -10.022 -10.020 -10.020 -10.019  -1.017  -1.011
 -1.005  -1.002  -0.970  -0.969  -0.941  -0.934  -0.934  -0.933
 -0.765  -0.762  -0.727  -0.722  -0.709  -0.704  -0.697  -0.662
 -0.655  -0.619  -0.599  -0.584  -0.549  -0.543  -0.539  -0.536
 -0.511  -0.510  -0.485  -0.469  -0.465  -0.457  -0.454  -0.450
 -0.433  -0.431  -0.426  -0.421  -0.409  -0.404  -0.403  -0.399
 -0.398  -0.393  -0.375  -0.369  -0.359  -0.358  -0.355  -0.349
 -0.347  -0.343  -0.335  -0.331  -0.330  -0.324  -0.317  -0.311
 -0.309  -0.306  -0.303  -0.298  -0.295  -0.288  -0.282  -0.280
 -0.269  -0.255  -0.249  -0.249  -0.238  -0.233  -0.233  -0.184
 -0.176  -0.170  -0.168  -0.159  -0.156  -0.148  -0.148  -0.143
 -0.143
 -- Virtual --
  0.092   0.095   0.100   0.107   0.215   0.234   0.245   0.252
  0.255   0.264   0.279   0.285   0.286   0.307   0.320   0.325
  0.330   0.338   0.341   0.346   0.348   0.361   0.371   0.373
  0.375   0.381   0.386   0.393   0.394   0.402   0.404   0.413
  0.415   0.420   0.420   0.423   0.427   0.430   0.433   0.433
  0.437   0.443   0.445   0.450   0.455   0.465   0.466   0.467
  0.473   0.479   0.488   0.489   0.495   0.507   0.510   0.543
  0.543   0.552   0.552   0.621   0.638   0.642   0.655
 --------------------------------------------------------------
 
          Ground-State Mulliken Net Atomic Charges

     Atom                 Charge (a.u.)
  ----------------------------------------
      1 O                    -0.202920
      2 C                     0.207300
      3 C                    -0.085652
      4 C                    -0.079482
      5 C                     0.208972
      6 O                    -0.180872
      7 C                    -0.060176
      8 C                    -0.049610
      9 O                    -0.173856
     10 C                     0.211527
     11 C                    -0.080267
     12 C                    -0.078296
     13 C                     0.214071
     14 O                    -0.214059
     15 O                    -0.173016
     16 O                    -0.170398
     17 O                    -0.210221
     18 C                    -0.132872
     19 C                     0.025084
     20 C                    -0.143858
     21 C                    -0.143857
     22 C                     0.025841
     23 O                    -0.186530
     24 H                     0.084299
     25 H                     0.086889
     26 H                     0.091020
     27 H                     0.078451
     28 H                     0.072720
     29 H                     0.078435
     30 H                     0.073800
     31 H                     0.083026
     32 O                    -0.202526
     33 C                    -0.138389
     34 C                     0.023710
     35 C                    -0.142338
     36 C                    -0.146165
     37 C                     0.026108
     38 O                    -0.185231
     39 H                     0.077651
     40 H                     0.081202
     41 H                     0.090275
     42 H                     0.093550
     43 H                     0.079278
     44 H                     0.071620
     45 H                     0.079162
     46 H                     0.071014
     47 H                     0.088696
     48 H                     0.075018
     49 H                     0.104947
     50 H                     0.083917
     51 H                     0.108876
     52 H                     0.088260
     53 H                     0.088640
     54 H                     0.091095
     55 H                     0.104631
     56 H                     0.111508
  ----------------------------------------
  Sum of atomic charges =    -0.000000

 -----------------------------------------------------------------
                    Cartesian Multipole Moments
 -----------------------------------------------------------------
    Charge (ESU x 10^10)
                 0.0000
    Dipole Moment (Debye)
         X      -0.3292      Y       0.4969      Z      -5.4389
       Tot       5.4715
    Quadrupole Moments (Debye-Ang)
        XX    -133.3795     XY       0.8546     YY    -159.8035
        XZ       7.3395     YZ       4.7373     ZZ    -165.3113
    Octopole Moments (Debye-Ang^2)
       XXX       7.5648    XXY       8.6076    XYY       5.4044
       YYY     -11.8100    XXZ     -53.1448    XYZ       8.4079
       YYZ      -8.4000    XZZ      -4.3992    YZZ       2.8917
       ZZZ     -12.5499
    Hexadecapole Moments (Debye-Ang^3)
      XXXX  -14085.8378   XXXY      44.7520   XXYY   -2884.2084
      XYYY     126.2767   YYYY   -2393.8872   XXXZ     -45.4728
      XXYZ      42.2562   XYYZ      -4.1033   YYYZ      18.3720
      XXZZ   -2764.7159   XYZZ      16.3890   YYZZ    -572.2302
      XZZZ     -87.1003   YZZZ     -10.4889   ZZZZ   -1032.5981
 -----------------------------------------------------------------
 Calculating analytic gradient of the SCF energy
 Gradient of SCF Energy
            1           2           3           4           5           6
    1  -0.0030045   0.0020428  -0.0012974   0.0020467  -0.0011173   0.0015474
    2   0.0031031  -0.0019024  -0.0006905   0.0024952  -0.0009813   0.0006668
    3  -0.0033690   0.0067463   0.0062385  -0.0049350   0.0003080  -0.0007496
            7           8           9          10          11          12
    1   0.0011531  -0.0016194   0.0021809  -0.0014632  -0.0001939   0.0012952
    2  -0.0046645   0.0036303  -0.0039465   0.0057860  -0.0007365   0.0010999
    3   0.0044176   0.0013373  -0.0050844   0.0010306   0.0014912   0.0024666
           13          14          15          16          17          18
    1  -0.0032249   0.0019985  -0.0037761   0.0019736   0.0016823   0.0040087
    2  -0.0013286   0.0020494  -0.0044610  -0.0007593  -0.0015635   0.0025945
    3  -0.0059627   0.0042428  -0.0053743  -0.0010552  -0.0009917  -0.0007465
           19          20          21          22          23          24
    1  -0.0005183   0.0001004   0.0002487  -0.0006024   0.0002410   0.0004970
    2   0.0004277  -0.0000879   0.0001353  -0.0004124  -0.0000321  -0.0003721
    3  -0.0000944  -0.0000131   0.0002520  -0.0003691  -0.0000104   0.0002208
           25          26          27          28          29          30
    1   0.0003249   0.0000459  -0.0000045  -0.0000937   0.0000024  -0.0000279
    2   0.0001310  -0.0000057  -0.0000245  -0.0000000  -0.0000074   0.0000048
    3   0.0002283   0.0001767  -0.0001004  -0.0000075   0.0000355  -0.0000306
           31          32          33          34          35          36
    1  -0.0000891  -0.0001028   0.0003490   0.0002319   0.0000973   0.0001177
    2  -0.0001062   0.0000203   0.0006466  -0.0003167   0.0001570  -0.0000053
    3   0.0000784  -0.0002194  -0.0036011   0.0003372  -0.0000945  -0.0000004
           37          38          39          40          41          42
    1  -0.0007733   0.0002621  -0.0002582  -0.0000339  -0.0001860   0.0001765
    2  -0.0004312  -0.0001520   0.0006139   0.0004812   0.0000832   0.0000647
    3  -0.0003045   0.0001061   0.0002229   0.0002440   0.0002365  -0.0001078
           43          44          45          46          47          48
    1   0.0000629   0.0000249   0.0000446  -0.0000187  -0.0000406   0.0003406
    2  -0.0000195  -0.0000088   0.0000251   0.0000865  -0.0000013   0.0006955
    3   0.0000829  -0.0001263  -0.0001037  -0.0000270   0.0000648   0.0006204
           49          50          51          52          53          54
    1   0.0006930   0.0006706  -0.0040693   0.0014849   0.0010042  -0.0008045
    2   0.0003393   0.0003567  -0.0018731   0.0004939  -0.0002369  -0.0004590
    3   0.0007871  -0.0007541   0.0039619   0.0003109  -0.0008078   0.0005482
           55          56
    1  -0.0012642  -0.0023659
    2  -0.0000375  -0.0005644
    3  -0.0008984  -0.0008552
 Max gradient component =       6.746E-03
 RMS gradient           =       1.831E-03
 Gradient time:  CPU 30.59 s  wall 0.64 s
 Geometry Optimization Parameters
   NAtoms,    NIC,     NZ,  NCons,   NDum,   NFix, NCnnct, MaxDiis
       56     458       0       0       0       0       0       0

 Cartesian Hessian Update
 Hessian Updated using BFGS Update


** GEOMETRY OPTIMIZATION IN DELOCALIZED INTERNAL COORDINATES **
   Searching for a Minimum

   Optimization Cycle:   2

                       Coordinates (Angstroms)
     ATOM                X               Y               Z
      1  O        -2.3831573295    2.3186794984    1.0628183207
      2  C        -2.6181486221    1.6854893087    0.0107468992
      3  C        -3.9421768086    0.8670010564   -0.2506818882
      4  C        -3.8627940048   -0.6977119381   -0.5112570365
      5  C        -2.5720438698   -1.4087194884    0.0484507206
      6  O        -1.4457575323   -1.1274336946   -0.7878677436
      7  C        -0.2029585322   -1.7159380029   -0.2147098582
      8  C         0.7158117688   -2.1361226904   -1.4265198568
      9  O         1.9808603613   -1.3655280780   -1.5320660861
     10  C         2.8046839074   -1.6513288658   -0.3870978937
     11  C         4.1355105371   -0.8312810324   -0.4770611818
     12  C         3.9644298675    0.7355042136   -0.3436741053
     13  C         2.5061301992    1.2083626270   -0.0153871578
     14  O         1.6810821432    0.6465225570    0.7415122967
     15  O        -1.7043598256    1.8960898030   -1.0820780869
     16  O         2.3387409420    2.4941696005   -0.6100923784
     17  O         2.5228138806   -2.5207743213    0.4654057438
     18  C         1.1576374229    3.1973604383   -0.0495640787
     19  C         5.0784217497   -1.1479616045    0.7569586062
     20  C         6.5448014506   -0.6983793983    0.3853529051
     21  C         6.4072680042    0.8676888846    0.4684910029
     22  C         4.8990314174    1.0204317191    0.9149612523
     23  O         4.6633178832   -0.1572009113    1.7771706138
     24  H         4.6267416423   -1.0855800619   -1.4344258238
     25  H         4.3179935131    1.2718730315   -1.2412250655
     26  H         4.9683171813   -2.1762293509    1.1530893090
     27  H         7.2647195927   -1.0803737553    1.1265563048
     28  H         6.8476349281   -1.0474110992   -0.6148295230
     29  H         7.0783238130    1.2936032025    1.2312106893
     30  H         6.6058049390    1.3646044510   -0.4946463023
     31  H         4.6615573469    1.9554502577    1.4587674871
     32  O        -2.5175370192   -2.1455846673    1.0565576263
     33  C        -1.9986099694    1.2115417887   -2.3584809433
     34  C        -4.9558885273    0.9256005462    0.9742197117
     35  C        -6.4107578277    0.8663893486    0.3689372782
     36  C        -6.4394172899   -0.6170966949   -0.1592795436
     37  C        -5.0705540637   -1.1769863270    0.4003904627
     38  O        -4.8288488112   -0.3924136789    1.6350066516
     39  H        -4.4200523430    1.3407573836   -1.1287270247
     40  H        -3.9910466045   -0.9363975070   -1.5820947389
     41  H        -1.2455149465    1.5945116690   -3.0717214320
     42  H        -4.7461045149    1.7462364600    1.6877340663
     43  H        -7.1600048633    1.0236758696    1.1614260568
     44  H        -6.5737079449    1.6107386476   -0.4268287837
     45  H        -7.2879801241   -1.1824429554    0.2565292865
     46  H        -6.4860412142   -0.6724222677   -1.2590248460
     47  H        -5.0555324111   -2.2605112698    0.6265443393
     48  H        -3.0099549267    1.4478049865   -2.7439786154
     49  H        -1.8648938068    0.1176687086   -2.2235414775
     50  H         1.3858257460    3.5651532155    0.9716378514
     51  H         0.2396500034    2.5612228574   -0.0046152989
     52  H         0.9859097315    4.0659067251   -0.7112769926
     53  H         0.9445559930   -3.2229448485   -1.3733043871
     54  H         0.1690422392   -1.9350137555   -2.3703176041
     55  H        -0.4775635681   -2.5765381609    0.4289005967
     56  H         0.3026962592   -0.9337475933    0.3961582515
   Point Group: c1    Number of degrees of freedom:   162


   Energy is  -1510.273480112

 Hessian Updated using BFGS Update

149 Hessian modes will be used to form the next step
  Hessian Eigenvalues:
     0.001678    0.002479    0.002541    0.002736    0.003008    0.003792
     0.004295    0.004470    0.004825    0.005225    0.005339    0.006694
     0.006815    0.008033    0.009585    0.010362    0.011821    0.021396
     0.021665    0.025023    0.025961    0.030368    0.030749    0.034531
     0.035160    0.036787    0.037367    0.040881    0.041891    0.042260
     0.043169    0.044020    0.045668    0.046231    0.048646    0.051295
     0.051350    0.053838    0.054450    0.054710    0.054993    0.055185
     0.055439    0.056030    0.056399    0.058152    0.060140    0.060376
     0.060462    0.062951    0.063731    0.064142    0.064574    0.069887
     0.070144    0.072908    0.073250    0.078496    0.092116    0.092532
     0.092929    0.093280    0.095472    0.096765    0.097163    0.099972
     0.104142    0.105078    0.109516    0.110746    0.112741    0.116079
     0.121389    0.126976    0.134760    0.143686    0.158132    0.159711
     0.159977    0.162265    0.163361    0.177423    0.219018    0.219154
     0.220110    0.226690    0.229029    0.235052    0.238358    0.239005
     0.239541    0.239676    0.245194    0.246517    0.247440    0.247486
     0.249276    0.249526    0.249981    0.253351    0.253366    0.253677
     0.254248    0.255153    0.261881    0.263348    0.292218    0.293063
     0.306992    0.307941    0.317017    0.321818    0.323979    0.325807
     0.326869    0.326881    0.326929    0.328385    0.328676    0.328678
     0.328684    0.329212    0.329921    0.330603    0.330620    0.330985
     0.331693    0.332757    0.333988    0.334487    0.334785    0.334794
     0.334837    0.334862    0.335026    0.335076    0.335529    0.338291
     0.340689    0.348080    0.393831    0.396363    0.408529    0.414914
     0.736650    0.822401    0.832843    0.832937    0.834696

 Minimum Search - Taking Simple RFO Step
 Searching for Lamda that Minimizes Along All modes
 Value Taken    Lamda =  -0.01973799
 Calculated Step too Large.  Step scaled by  0.376780
 Step Taken.  Stepsize is  0.300000

                             Maximum     Tolerance    Cnvgd?
         Gradient           0.048182      0.000300      NO
         Displacement       0.097328      0.001200      NO
         Energy change     -0.000164      0.000001      NO


 New Cartesian Coordinates Obtained by Inverse Iteration

 Displacement from previous Coordinates is:  3.766051
 Adding empirical dispersion correction 
 ----------------------------------------------------------------
 Doing -D3(op) with
 s6 =   1.00000
 s8 =   0.78311
 a1 =   0.30000
 a2 =   4.25000
 n  =  10.00000
 -D3 energy without 3body term =     -0.0723937134 hartrees
 ----------------------------------------------------------------
             Standard Nuclear Orientation (Angstroms)
    I     Atom           X                Y                Z
 ----------------------------------------------------------------
    1      O      -2.2764454873     2.4472082928     0.8180848618
    2      C      -2.5477567093     1.7673515137    -0.1955626591
    3      C      -3.8786070328     0.9342872933    -0.3692682706
    4      C      -3.8094396884    -0.6503371725    -0.4610294258
    5      C      -2.5010360245    -1.2932001648     0.1358007907
    6      O      -1.4035529810    -1.0878112401    -0.7582685132
    7      C      -0.1427152616    -1.6426862406    -0.1928706683
    8      C       0.7371793219    -2.1413734286    -1.4033381306
    9      O       2.0052144573    -1.3882124370    -1.5650371282
   10      C       2.8965528087    -1.7283581542    -0.4887158614
   11      C       4.1654794879    -0.8152708394    -0.5552760197
   12      C       3.8760304544     0.7137712472    -0.2709844386
   13      C       2.3913157762     1.0185978071     0.1322674494
   14      O       1.6174862627     0.2817948654     0.7860293090
   15      O      -1.6343083349     1.8772164421    -1.3026505830
   16      O       2.0827612213     2.3299354926    -0.3372357196
   17      O       2.6876916019    -2.6633842610     0.3139698303
   18      C       0.8011912076     2.8161298217     0.2329364149
   19      C       5.1680511875    -1.1669610405     0.6210889563
   20      C       6.5823551682    -0.5666184728     0.2610082863
   21      C       6.3226995913     0.9685112281     0.4965154095
   22      C       4.8211361096     0.9544604653     0.9892934711
   23      O       4.7067012385    -0.3132918116     1.7399875949
   24      H       4.6411399180    -0.9482064179    -1.5444909103
   25      H       4.1578465281     1.3647386307    -1.1167635779
   26      H       5.1495838722    -2.2326676625     0.9211863260
   27      H       7.3522065587    -0.9555251514     0.9463473466
   28      H       6.8823093085    -0.7948113751    -0.7742831253
   29      H       6.9802857412     1.3748806509     1.2812796400
   30      H       6.4518454323     1.5681791989    -0.4186554900
   31      H       4.5253866411     1.8111605232     1.6255258794
   32      O      -2.4131824974    -1.9255645533     1.2103875607
   33      C      -1.9445968001     1.1008801202    -2.5213921897
   34      C      -4.8698865636     1.1192385838     0.8634708219
   35      C      -6.3369939443     1.0005478706     0.2972946643
   36      C      -6.3771414535    -0.5306871361    -0.0702871706
   37      C      -4.9974908772    -1.0310974719     0.5184476568
   38      O      -4.7312079640    -0.1216496594     1.6577372899
   39      H      -4.3715167115     1.3230118565    -1.2799493834
   40      H      -3.9578141047    -0.9987340948    -1.4986213455
   41      H      -1.1881883749     1.4161087989    -3.2637504030
   42      H      -4.6455851299     2.0085220019     1.4843289635
   43      H      -7.0701468123     1.2421235708     1.0836950371
   44      H      -6.5160183688     1.6575298297    -0.5687113904
   45      H      -7.2171448243    -1.0472235697     0.4198028610
   46      H      -6.4459674303    -0.7017757913    -1.1568707627
   47      H      -4.9771101801    -2.0848726770     0.8568269161
   48      H      -2.9533957117     1.3225508970    -2.9224148271
   49      H      -1.8273707017     0.0180643645    -2.3052469433
   50      H       0.9378763765     3.0879783100     1.2995916971
   51      H      -0.0276356131     2.0717420231     0.1547062727
   52      H       0.5457052664     3.7269308361    -0.3387579856
   53      H       0.9571056851    -3.2277538983    -1.3164772141
   54      H       0.1624461147    -1.9678290591    -2.3359652167
   55      H      -0.4064596469    -2.4627760601     0.5058787733
   56      H       0.3910390547    -0.8348078593     0.3585438491
 ----------------------------------------------------------------
 Molecular Point Group                 C1    NOp =  1
 Largest Abelian Subgroup              C1    NOp =  1
 Nuclear Repulsion Energy =  3210.2833945746 hartrees
 There are      113 alpha and      113 beta electrons
 Applying Cartesian multipole field
    Component          Value
    ---------          -----
     (2,0,0)        1.00000E-12
     (0,2,0)        2.00000E-11
     (0,0,2)       -3.00000E-11
 Nucleus-field energy     =     0.0000000244 hartrees
 Requested basis set is STO-3G
 There are 86 shells and 176 basis functions
 A cutoff of  1.0D-12 yielded   2275 shell pairs
 There are     10726 function pairs
 Smallest overlap matrix eigenvalue = 2.13E-01
 Guess MOs from SCF MO coefficient file
 Reading MOs from coefficient file
 Reading MOs from coefficient file
 A restricted hybrid HF-DFT SCF calculation will be
 performed using Pulay DIIS extrapolation
 Exchange:     0.2000 Hartree-Fock + 0.0800 Slater + 0.7200 B88
 Correlation:  0.1900 VWN1RPA + 0.8100 LYP
 Using SG-1 standard quadrature grid
 Dispersion:   Grimme D3
 SCF converges when DIIS error is below 1.0E-08
 Geometry optimization detected.  Setting ReadMinima to 0
 Setting SaveMinima to 0
 using 48 threads for integral computing
 -------------------------------------------------------
 OpenMP Integral computing Module                
 Release: version 1.0, May 2013, Q-Chem Inc. Pittsburgh 
 -------------------------------------------------------
 -------------------------------------------------------
 OpenMP BLAS3 based DFT computing Module                
 Release: version 1.0, May 2013, Q-Chem Inc. Pittsburgh 
 -------------------------------------------------------
 ---------------------------------------
  Cycle       Energy         DIIS Error
 ---------------------------------------
    1   -1510.1080409295      6.55E-03
    2   -1510.2723461853      6.10E-04
    3   -1510.2721933219      7.76E-04
    4   -1510.2743065251      3.57E-04
    5   -1510.2748200300      1.01E-04
    6   -1510.2748619157      3.54E-05
    7   -1510.2748669671      1.57E-05
    8   -1510.2748680059      4.46E-06
    9   -1510.2748680974      7.40E-07
   10   -1510.2748680996      4.19E-07
   11   -1510.2748681003      1.97E-07
   12   -1510.2748681005      6.02E-08
   13   -1510.2748681006      2.07E-08
   14   -1510.2748681007      7.98E-09 Convergence criterion met
 ---------------------------------------
 SCF time:  CPU 102.94 s  wall 2.15 s
 SCF   energy in the final basis set = -1510.27486810
 Total energy in the final basis set = -1510.27486810
 
 --------------------------------------------------------------
 
                    Orbital Energies (a.u.)
 --------------------------------------------------------------
 
 Alpha MOs
 -- Occupied --
-18.938 -18.932 -18.932 -18.927 -18.888 -18.887 -18.885 -18.878
-18.876 -18.872 -10.107 -10.102 -10.100 -10.096 -10.068 -10.062
-10.061 -10.060 -10.057 -10.057 -10.051 -10.047 -10.044 -10.040
-10.039 -10.037 -10.022 -10.021 -10.020 -10.019  -1.016  -1.012
 -1.006  -1.004  -0.971  -0.970  -0.941  -0.938  -0.936  -0.931
 -0.765  -0.763  -0.727  -0.723  -0.709  -0.704  -0.694  -0.663
 -0.655  -0.617  -0.599  -0.582  -0.548  -0.544  -0.539  -0.536
 -0.513  -0.509  -0.483  -0.469  -0.467  -0.459  -0.456  -0.452
 -0.434  -0.433  -0.428  -0.421  -0.409  -0.407  -0.403  -0.402
 -0.397  -0.393  -0.374  -0.366  -0.361  -0.357  -0.355  -0.350
 -0.346  -0.342  -0.334  -0.331  -0.330  -0.324  -0.318  -0.312
 -0.309  -0.307  -0.303  -0.299  -0.294  -0.290  -0.282  -0.279
 -0.269  -0.254  -0.249  -0.245  -0.240  -0.234  -0.233  -0.184
 -0.177  -0.171  -0.166  -0.162  -0.157  -0.149  -0.148  -0.144
 -0.143
 -- Virtual --
  0.086   0.095   0.101   0.107   0.218   0.234   0.245   0.252
  0.254   0.266   0.280   0.284   0.287   0.307   0.320   0.326
  0.333   0.339   0.343   0.346   0.348   0.360   0.372   0.373
  0.374   0.382   0.388   0.395   0.397   0.400   0.403   0.412
  0.415   0.419   0.421   0.421   0.426   0.430   0.433   0.436
  0.437   0.443   0.446   0.450   0.459   0.465   0.466   0.472
  0.478   0.486   0.488   0.496   0.505   0.510   0.520   0.541
  0.543   0.552   0.552   0.620   0.641   0.645   0.658
 --------------------------------------------------------------
 
          Ground-State Mulliken Net Atomic Charges

     Atom                 Charge (a.u.)
  ----------------------------------------
      1 O                    -0.204837
      2 C                     0.206961
      3 C                    -0.085799
      4 C                    -0.079370
      5 C                     0.207624
      6 O                    -0.184159
      7 C                    -0.074963
      8 C                    -0.051274
      9 O                    -0.177367
     10 C                     0.211490
     11 C                    -0.080533
     12 C                    -0.077971
     13 C                     0.222048
     14 O                    -0.214042
     15 O                    -0.172098
     16 O                    -0.166078
     17 O                    -0.209814
     18 C                    -0.130594
     19 C                     0.025283
     20 C                    -0.143897
     21 C                    -0.143817
     22 C                     0.025840
     23 O                    -0.186802
     24 H                     0.084766
     25 H                     0.088602
     26 H                     0.091293
     27 H                     0.078596
     28 H                     0.072996
     29 H                     0.078683
     30 H                     0.073877
     31 H                     0.083227
     32 O                    -0.203301
     33 C                    -0.138390
     34 C                     0.023812
     35 C                    -0.142474
     36 C                    -0.146075
     37 C                     0.026166
     38 O                    -0.185213
     39 H                     0.077422
     40 H                     0.081082
     41 H                     0.090637
     42 H                     0.092592
     43 H                     0.079200
     44 H                     0.071423
     45 H                     0.079129
     46 H                     0.071148
     47 H                     0.089221
     48 H                     0.075695
     49 H                     0.105933
     50 H                     0.084859
     51 H                     0.108514
     52 H                     0.091639
     53 H                     0.089450
     54 H                     0.088163
     55 H                     0.097819
     56 H                     0.123679
  ----------------------------------------
  Sum of atomic charges =     0.000000

 -----------------------------------------------------------------
                    Cartesian Multipole Moments
 -----------------------------------------------------------------
    Charge (ESU x 10^10)
                 0.0000
    Dipole Moment (Debye)
         X      -0.4336      Y       0.8345      Z      -5.1878
       Tot       5.2724
    Quadrupole Moments (Debye-Ang)
        XX    -133.4769     XY       2.8455     YY    -161.8351
        XZ       6.8499     YZ       5.1138     ZZ    -164.5524
    Octopole Moments (Debye-Ang^2)
       XXX       1.0925    XXY      10.6198    XYY      -4.3985
       YYY     -18.0100    XXZ     -53.7316    XYZ      11.4425
       YYZ      -4.3688    XZZ      -5.4833    YZZ       4.4729
       ZZZ     -10.5007
    Hexadecapole Moments (Debye-Ang^3)
      XXXX  -13803.6752   XXXY     232.9738   XXYY   -2812.1687
      XYYY     288.2051   YYYY   -2289.6863   XXXZ     -77.2090
      XXYZ      25.9901   XYYZ     -22.4612   YYYZ      -4.0180
      XXZZ   -2714.2883   XYZZ      81.7939   YYZZ    -550.9678
      XZZZ     -88.4742   YZZZ     -28.5802   ZZZZ   -1060.2777
 -----------------------------------------------------------------
 Calculating analytic gradient of the SCF energy
 Gradient of SCF Energy
            1           2           3           4           5           6
    1  -0.0017653   0.0023250   0.0004850   0.0004436  -0.0028163   0.0028107
    2   0.0015573   0.0037724  -0.0020402   0.0009433  -0.0001146   0.0004790
    3  -0.0033268   0.0060982   0.0043667  -0.0026715   0.0014313   0.0002937
            7           8           9          10          11          12
    1   0.0061775   0.0014719   0.0014165   0.0018028  -0.0011342   0.0011736
    2   0.0048995   0.0028559  -0.0037900   0.0048224   0.0002263   0.0005736
    3   0.0038410   0.0024820  -0.0036563  -0.0003282   0.0010454  -0.0012836
           13          14          15          16          17          18
    1  -0.0034224  -0.0034428  -0.0002551  -0.0000039   0.0002442   0.0020423
    2  -0.0055180  -0.0047563  -0.0038525   0.0031547  -0.0010670   0.0028046
    3   0.0058356  -0.0047958  -0.0039343  -0.0037146  -0.0003678  -0.0022972
           19          20          21          22          23          24
    1  -0.0008902   0.0004478  -0.0001157  -0.0010381   0.0005443   0.0007658
    2   0.0003168   0.0000776  -0.0000602  -0.0006470  -0.0000668  -0.0007680
    3   0.0003461  -0.0001548   0.0000129  -0.0003734  -0.0001061   0.0002062
           25          26          27          28          29          30
    1   0.0009043  -0.0001757  -0.0000014   0.0000014   0.0000177  -0.0000501
    2   0.0004211   0.0000584  -0.0000466  -0.0000260  -0.0000167   0.0000172
    3   0.0003930   0.0002930  -0.0000538  -0.0000229   0.0000106   0.0000818
           31          32          33          34          35          36
    1  -0.0001986  -0.0000637   0.0009627   0.0006190   0.0000603   0.0000462
    2  -0.0002934  -0.0000426   0.0002751  -0.0006977   0.0002523  -0.0000540
    3   0.0000260  -0.0002911  -0.0023213   0.0005150  -0.0003497   0.0001123
           37          38          39          40          41          42
    1  -0.0011072   0.0002594  -0.0006741   0.0002914  -0.0001704   0.0005588
    2  -0.0007623  -0.0008706   0.0012467   0.0005012   0.0000131  -0.0000291
    3  -0.0001599   0.0000454   0.0003465   0.0001435   0.0002009  -0.0003335
           43          44          45          46          47          48
    1  -0.0000803   0.0000123   0.0001640  -0.0001060  -0.0001544   0.0003306
    2  -0.0000488   0.0000440  -0.0000498   0.0001349   0.0000992   0.0006427
    3  -0.0000010   0.0001795  -0.0001265  -0.0000102   0.0001505   0.0001695
           49          50          51          52          53          54
    1   0.0007532   0.0004204  -0.0061690   0.0014928   0.0015513  -0.0019372
    2   0.0003899   0.0003893  -0.0055998   0.0010844  -0.0005722  -0.0001576
    3  -0.0000441  -0.0004794   0.0030509   0.0004810  -0.0016304   0.0016060
           55          56
    1  -0.0020854  -0.0027395
    2   0.0004354  -0.0005405
    3  -0.0002989  -0.0006315
 Max gradient component =       6.177E-03
 RMS gradient           =       1.911E-03
 Gradient time:  CPU 30.10 s  wall 0.63 s
 Geometry Optimization Parameters
   NAtoms,    NIC,     NZ,  NCons,   NDum,   NFix, NCnnct, MaxDiis
       56     458       0       0       0       0       0       0

 Cartesian Hessian Update
 Hessian Updated using BFGS Update


** GEOMETRY OPTIMIZATION IN DELOCALIZED INTERNAL COORDINATES **
   Searching for a Minimum

   Optimization Cycle:   3

                       Coordinates (Angstroms)
     ATOM                X               Y               Z
      1  O        -2.2764454873    2.4472082928    0.8180848618
      2  C        -2.5477567093    1.7673515137   -0.1955626591
      3  C        -3.8786070328    0.9342872933   -0.3692682706
      4  C        -3.8094396884   -0.6503371725   -0.4610294258
      5  C        -2.5010360245   -1.2932001648    0.1358007907
      6  O        -1.4035529810   -1.0878112401   -0.7582685132
      7  C        -0.1427152616   -1.6426862406   -0.1928706683
      8  C         0.7371793219   -2.1413734286   -1.4033381306
      9  O         2.0052144573   -1.3882124370   -1.5650371282
     10  C         2.8965528087   -1.7283581542   -0.4887158614
     11  C         4.1654794879   -0.8152708394   -0.5552760197
     12  C         3.8760304544    0.7137712472   -0.2709844386
     13  C         2.3913157762    1.0185978071    0.1322674494
     14  O         1.6174862627    0.2817948654    0.7860293090
     15  O        -1.6343083349    1.8772164421   -1.3026505830
     16  O         2.0827612213    2.3299354926   -0.3372357196
     17  O         2.6876916019   -2.6633842610    0.3139698303
     18  C         0.8011912076    2.8161298217    0.2329364149
     19  C         5.1680511875   -1.1669610405    0.6210889563
     20  C         6.5823551682   -0.5666184728    0.2610082863
     21  C         6.3226995913    0.9685112281    0.4965154095
     22  C         4.8211361096    0.9544604653    0.9892934711
     23  O         4.7067012385   -0.3132918116    1.7399875949
     24  H         4.6411399180   -0.9482064179   -1.5444909103
     25  H         4.1578465281    1.3647386307   -1.1167635779
     26  H         5.1495838722   -2.2326676625    0.9211863260
     27  H         7.3522065587   -0.9555251514    0.9463473466
     28  H         6.8823093085   -0.7948113751   -0.7742831253
     29  H         6.9802857412    1.3748806509    1.2812796400
     30  H         6.4518454323    1.5681791989   -0.4186554900
     31  H         4.5253866411    1.8111605232    1.6255258794
     32  O        -2.4131824974   -1.9255645533    1.2103875607
     33  C        -1.9445968001    1.1008801202   -2.5213921897
     34  C        -4.8698865636    1.1192385838    0.8634708219
     35  C        -6.3369939443    1.0005478706    0.2972946643
     36  C        -6.3771414535   -0.5306871361   -0.0702871706
     37  C        -4.9974908772   -1.0310974719    0.5184476568
     38  O        -4.7312079640   -0.1216496594    1.6577372899
     39  H        -4.3715167115    1.3230118565   -1.2799493834
     40  H        -3.9578141047   -0.9987340948   -1.4986213455
     41  H        -1.1881883749    1.4161087989   -3.2637504030
     42  H        -4.6455851299    2.0085220019    1.4843289635
     43  H        -7.0701468123    1.2421235708    1.0836950371
     44  H        -6.5160183688    1.6575298297   -0.5687113904
     45  H        -7.2171448243   -1.0472235697    0.4198028610
     46  H        -6.4459674303   -0.7017757913   -1.1568707627
     47  H        -4.9771101801   -2.0848726770    0.8568269161
     48  H        -2.9533957117    1.3225508970   -2.9224148271
     49  H        -1.8273707017    0.0180643645   -2.3052469433
     50  H         0.9378763765    3.0879783100    1.2995916971
     51  H        -0.0276356131    2.0717420231    0.1547062727
     52  H         0.5457052664    3.7269308361   -0.3387579856
     53  H         0.9571056851   -3.2277538983   -1.3164772141
     54  H         0.1624461147   -1.9678290591   -2.3359652167
     55  H        -0.4064596469   -2.4627760601    0.5058787733
     56  H         0.3910390547   -0.8348078593    0.3585438491
   Point Group: c1    Number of degrees of freedom:   162


   Energy is  -1510.274868101

 Hessian Updated using BFGS Update

152 Hessian modes will be used to form the next step
  Hessian Eigenvalues:
     0.001932    0.002047    0.002481    0.002696    0.002740    0.003728
     0.004265    0.004363    0.004670    0.005074    0.005337    0.005795
     0.006640    0.006847    0.008726    0.010242    0.010840    0.020313
     0.021434    0.022719    0.025186    0.029861    0.030352    0.030970
     0.034531    0.035356    0.036741    0.037386    0.041877    0.042225
     0.042643    0.043059    0.044350    0.045962    0.046274    0.049283
     0.051293    0.051539    0.053891    0.054591    0.054786    0.055035
     0.055316    0.055925    0.056195    0.056400    0.059139    0.060321
     0.060446    0.061253    0.062970    0.063731    0.064148    0.064575
     0.069958    0.070197    0.072908    0.073447    0.080008    0.091994
     0.092596    0.092799    0.093322    0.095477    0.096920    0.097255
     0.100779    0.103460    0.105079    0.109445    0.110883    0.111923
     0.116202    0.121380    0.134008    0.137745    0.144661    0.158179
     0.159905    0.159999    0.160489    0.162263    0.164186    0.181356
     0.219020    0.219451    0.220091    0.226675    0.228839    0.237189
     0.238312    0.239532    0.239638    0.242065    0.245190    0.246475
     0.247381    0.247480    0.248491    0.249490    0.249981    0.253204
     0.253353    0.253381    0.253747    0.254463    0.255162    0.261853
     0.263161    0.292262    0.293063    0.306974    0.307896    0.317863
     0.321938    0.323984    0.325803    0.326872    0.326892    0.326929
     0.328383    0.328677    0.328679    0.328688    0.329212    0.329913
     0.330608    0.330620    0.330983    0.331720    0.332762    0.334122
     0.334487    0.334786    0.334796    0.334839    0.334862    0.335026
     0.335076    0.335530    0.337817    0.340710    0.348118    0.395455
     0.395924    0.408671    0.414757    0.821961    0.831512    0.832846
     0.832932    1.390827

 Minimum Search - Taking Simple RFO Step
 Searching for Lamda that Minimizes Along All modes
 Value Taken    Lamda =  -0.01542610
 Calculated Step too Large.  Step scaled by  0.480839
 Step Taken.  Stepsize is  0.300000

                             Maximum     Tolerance    Cnvgd?
         Gradient           0.045553      0.000300      NO
         Displacement       0.084887      0.001200      NO
         Energy change     -0.001388      0.000001      NO


 New Cartesian Coordinates Obtained by Inverse Iteration

 Displacement from previous Coordinates is:  2.963812
 Adding empirical dispersion correction 
 ----------------------------------------------------------------
 Doing -D3(op) with
 s6 =   1.00000
 s8 =   0.78311
 a1 =   0.30000
 a2 =   4.25000
 n  =  10.00000
 -D3 energy without 3body term =     -0.0720886985 hartrees
 ----------------------------------------------------------------
             Standard Nuclear Orientation (Angstroms)
    I     Atom           X                Y                Z
 ----------------------------------------------------------------
    1      O      -2.4882503678     2.3099558181     1.1321649395
    2      C      -2.6686512879     1.7365733778     0.0350652282
    3      C      -3.9675361905     0.9062370589    -0.3167267298
    4      C      -3.8716985968    -0.6743926913    -0.4576089457
    5      C      -2.5810166743    -1.3036471642     0.1860612076
    6      O      -1.4669019684    -1.0681352367    -0.6782883811
    7      C      -0.2015089457    -1.5971814047    -0.1012070158
    8      C       0.6937905823    -2.1007425982    -1.2958877468
    9      O       1.9509333372    -1.3286579774    -1.4489499645
   10      C       2.8563443833    -1.6616549988    -0.3831859301
   11      C       4.1651204319    -0.8139103390    -0.5403037654
   12      C       3.9688495927     0.7398928302    -0.3055566595
   13      C       2.5193146029     1.1380907057     0.1372053148
   14      O       1.7203663933     0.4529721366     0.8156826270
   15      O      -1.6352082795     1.9128840998    -0.9470494492
   16      O       2.2466882461     2.4361895144    -0.3862576044
   17      O       2.6384338553    -2.5617598452     0.4560804974
   18      C       0.9252306208     2.9303795467     0.0738437089
   19      C       5.1993461314    -1.1738374892     0.6061279923
   20      C       6.6255821028    -0.6633655428     0.1645834382
   21      C       6.4558191880     0.8911947763     0.3497547001
   22      C       4.9786296717     0.9759369468     0.9051368765
   23      O       4.8310497848    -0.2555175537     1.7084843343
   24      H       4.5901313607    -1.0069612328    -1.5424351335
   25      H       4.2486167506     1.3437275215    -1.1862601996
   26      H       5.1385021001    -2.2250325364     0.9484951998
   27      H       7.4032831383    -1.0665196317     0.8326671692
   28      H       6.8687530711    -0.9456399544    -0.8722617787
   29      H       7.1671802652     1.2908105279     1.0897718200
   30      H       6.5758330972     1.4486616488    -0.5928961059
   31      H       4.7558016131     1.8703585881     1.5188118987
   32      O      -2.5211410730    -1.9614176972     1.2473403356
   33      C      -1.8106320556     1.2023607886    -2.2305774854
   34      C      -5.0589793433     1.0295227349     0.8391290012
   35      C      -6.4767595084     0.9024608768     0.1602542946
   36      C      -6.4586477670    -0.6179117887    -0.2519425541
   37      C      -5.1155862160    -1.1099211441     0.4227439269
   38      O      -4.9550105175    -0.2323322040     1.6046189011
   39      H      -4.3873401814     1.3298906163    -1.2478515333
   40      H      -3.9435865428    -0.9899876776    -1.5138705304
   41      H      -0.9777330489     1.5512568325    -2.8690230367
   42      H      -4.9012494486     1.9000376853     1.5054742559
   43      H      -7.2714092376     1.1063935141     0.8959701249
   44      H      -6.6041543747     1.5824309882    -0.6970440039
   45      H      -7.3216906852    -1.1644130315     0.1595184225
   46      H      -6.4434279783    -0.7578456267    -1.3450287855
   47      H      -5.0970654041    -2.1735787821     0.7287654619
   48      H      -2.7697293607     1.4478051110    -2.7287990128
   49      H      -1.7185364700     0.1084525488    -2.0621643517
   50      H       0.9606140579     3.1937029379     1.1510774933
   51      H       0.1121396599     2.1914127266    -0.0950271198
   52      H       0.7212332937     3.8419879996    -0.5167451824
   53      H       0.9247114944    -3.1833301120    -1.1968792548
   54      H       0.1274270207    -1.9403359234    -2.2361948887
   55      H      -0.4550315364    -2.4138300802     0.6054635581
   56      H       0.3266643756    -0.7797553583     0.4448889972
 ----------------------------------------------------------------
 Molecular Point Group                 C1    NOp =  1
 Largest Abelian Subgroup              C1    NOp =  1
 Nuclear Repulsion Energy =  3194.2524371631 hartrees
 There are      113 alpha and      113 beta electrons
 Applying Cartesian multipole field
    Component          Value
    ---------          -----
     (2,0,0)        1.00000E-12
     (0,2,0)        2.00000E-11
     (0,0,2)       -3.00000E-11
 Nucleus-field energy     =     0.0000000276 hartrees
 Requested basis set is STO-3G
 There are 86 shells and 176 basis functions
 A cutoff of  1.0D-12 yielded   2252 shell pairs
 There are     10571 function pairs
 Smallest overlap matrix eigenvalue = 2.13E-01
 Guess MOs from SCF MO coefficient file
 Reading MOs from coefficient file
 Reading MOs from coefficient file
 A restricted hybrid HF-DFT SCF calculation will be
[...]
      7  C        -0.4318143641   -2.0713607440    0.7210179448
      8  C         0.6152280525   -2.8386017265   -0.1525696546
      9  O         1.5351793361   -1.8906760535   -0.8237502578
     10  C         2.7574475067   -1.7929219059   -0.0636540526
     11  C         3.6989208564   -0.7506827385   -0.7696675238
     12  C         3.4409285787    0.7575324215   -0.3667384910
     13  C         2.2905334784    0.9263867637    0.6830370901
     14  O         1.6511625112    0.0041187347    1.2441095653
     15  O        -1.2571188458    1.8857240617    0.0162139916
     16  O         2.0932392810    2.3090307900    0.9233689736
     17  O         3.0492810787   -2.5428457132    0.8929028348
     18  C         0.9352662929    2.5170256556    1.8353959579
     19  C         5.1992289523   -0.9360114648   -0.2874449777
     20  C         6.1482573746   -0.1960150159   -1.3094758046
     21  C         5.8901720054    1.3088405031   -0.9272488024
     22  C         4.8524017549    1.1508612915    0.2521852624
     23  O         5.2761064133   -0.0942608544    0.9301109366
     24  H         3.5965971892   -0.8828249586   -1.8615948527
     25  H         3.2027205713    1.3818542322   -1.2469437791
     26  H         5.4699879478   -1.9822870784   -0.0473112111
     27  H         7.1979388284   -0.4822645525   -1.1367351806
     28  H         5.8883559349   -0.4209002068   -2.3561956693
     29  H         6.8086861110    1.7985032434   -0.5666645979
     30  H         5.4812918912    1.8977877000   -1.7639213731
     31  H         4.8125649201    1.9957826374    0.9668905724
     32  O        -2.7534370923   -1.2469328719    1.7920125899
     33  C        -0.8526643125    1.1190102829   -1.1853909134
     34  C        -5.1441833523    1.3911194281   -0.0761757723
     35  C        -6.1293759880    1.0357730926   -1.2576307303
     36  C        -6.1393343954   -0.5364118690   -1.1817729455
     37  C        -5.1623964794   -0.7878490792    0.0330911202
     38  O        -5.4254750944    0.3514682497    0.9390526065
     39  H        -3.4908868061    1.3927375561   -1.5826776095
     40  H        -3.4789711026   -0.9748147058   -1.4497791284
     41  H         0.2218053423    1.3413796314   -1.3195097151
     42  H        -5.2616021169    2.3999185997    0.3642060596
     43  H        -7.1289668806    1.4555197036   -1.0626610732
     44  H        -5.7709177387    1.4143414972   -2.2283106201
     45  H        -7.1445870813   -0.9242167661   -0.9525312888
     46  H        -5.7811729656   -1.0110687366   -2.1094372318
     47  H        -5.3031854640   -1.7471804780    0.5676923047
     48  H        -1.3985971440    1.4498890648   -2.0910081694
     49  H        -0.9896939900    0.0223936179   -1.0205207629
     50  H         1.0172767907    1.8797987314    2.7376675814
     51  H        -0.0129865046    2.2907862885    1.2870800077
     52  H         0.9687337670    3.5827699902    2.1241305991
     53  H         1.2122461485   -3.5065207474    0.5069426206
     54  H         0.1058415440   -3.4275040076   -0.9426249869
     55  H        -0.8935264630   -2.7480381949    1.4708018501
     56  H         0.0893543916   -1.2356308832    1.2447979993
   Point Group: c1    Number of degrees of freedom:   162


   Energy is  -1510.290451010

 Hessian Updated using BFGS Update

162 Hessian modes will be used to form the next step
  Hessian Eigenvalues:
     0.001544    0.002001    0.002473    0.002700    0.003465    0.004907
     0.005719    0.006475    0.007711    0.012557    0.014203    0.014940
     0.017777    0.021410    0.021745    0.023132    0.024436    0.026057
     0.028562    0.029875    0.031652    0.032087    0.034878    0.035739
     0.036154    0.038301    0.041222    0.041480    0.041599    0.042598
     0.042968    0.045128    0.046573    0.049514    0.051028    0.051379
     0.052246    0.053522    0.054251    0.054880    0.055380    0.055726
     0.056226    0.056700    0.057189    0.058992    0.061176    0.062098
     0.062711    0.063057    0.063779    0.064234    0.064638    0.069743
     0.069919    0.072832    0.073080    0.075966    0.078817    0.081873
     0.092748    0.092794    0.094377    0.096897    0.098971    0.102348
     0.103261    0.104331    0.105167    0.110293    0.112484    0.113428
     0.118162    0.124710    0.127357    0.140850    0.142055    0.148134
     0.159229    0.159885    0.160513    0.161532    0.162864    0.165732
     0.169729    0.185503    0.190018    0.197748    0.204599    0.222945
     0.224072    0.236213    0.237895    0.238774    0.239405    0.239814
     0.240918    0.243721    0.245813    0.246843    0.248115    0.249547
     0.249914    0.251227    0.252236    0.253295    0.253414    0.254775
     0.257501    0.260591    0.264386    0.267228    0.282495    0.291735
     0.293071    0.300779    0.305728    0.309893    0.316976    0.320304
     0.323795    0.324808    0.325872    0.326910    0.327404    0.328159
     0.328681    0.328699    0.328809    0.329219    0.329734    0.330621
     0.330832    0.331146    0.331715    0.332039    0.332925    0.334536
     0.334774    0.334800    0.334826    0.334878    0.335019    0.335093
     0.335523    0.342096    0.345875    0.356389    0.379330    0.384123
     0.399312    0.409119    0.416207    0.468146    0.573185    0.751601
     0.806171    0.831029    0.833523    0.835891    0.845284    3.194600

 Minimum Search - Taking Simple RFO Step
 Searching for Lamda that Minimizes Along All modes
 Value Taken    Lamda =   0.00000000
 Step Taken.  Stepsize is  0.004984

                             Maximum     Tolerance    Cnvgd?
         Gradient           0.000131      0.000300     YES
         Displacement       0.002116      0.001200      NO
         Energy change     -0.000001      0.000001     YES

 Final energy is   -1510.29045101010     


 ******************************
 **  OPTIMIZATION CONVERGED  **
 ******************************

                       Coordinates (Angstroms)
     ATOM                X               Y               Z
      1  O        -2.9427257682    2.3140474253    1.5036528203
      2  C        -2.6340219505    1.7754095345    0.4190677823
      3  C        -3.6624524713    1.0611798179   -0.5439189928
      4  C        -3.6743005200   -0.5286668163   -0.4586279843
      5  C        -2.6357939458   -1.1190360896    0.5560517560
      6  O        -1.4786588513   -1.5355014519   -0.1898280984
      7  C        -0.4318143641   -2.0713607440    0.7210179448
      8  C         0.6152280525   -2.8386017265   -0.1525696546
      9  O         1.5351793361   -1.8906760535   -0.8237502578
     10  C         2.7574475067   -1.7929219059   -0.0636540526
     11  C         3.6989208564   -0.7506827385   -0.7696675238
     12  C         3.4409285787    0.7575324215   -0.3667384910
     13  C         2.2905334784    0.9263867637    0.6830370901
     14  O         1.6511625112    0.0041187347    1.2441095653
     15  O        -1.2571188458    1.8857240617    0.0162139916
     16  O         2.0932392810    2.3090307900    0.9233689736
     17  O         3.0492810787   -2.5428457132    0.8929028348
     18  C         0.9352662929    2.5170256556    1.8353959579
     19  C         5.1992289523   -0.9360114648   -0.2874449777
     20  C         6.1482573746   -0.1960150159   -1.3094758046
     21  C         5.8901720054    1.3088405031   -0.9272488024
     22  C         4.8524017549    1.1508612915    0.2521852624
     23  O         5.2761064133   -0.0942608544    0.9301109366
     24  H         3.5965971892   -0.8828249586   -1.8615948527
     25  H         3.2027205713    1.3818542322   -1.2469437791
     26  H         5.4699879478   -1.9822870784   -0.0473112111
     27  H         7.1979388284   -0.4822645525   -1.1367351806
     28  H         5.8883559349   -0.4209002068   -2.3561956693
     29  H         6.8086861110    1.7985032434   -0.5666645979
     30  H         5.4812918912    1.8977877000   -1.7639213731
     31  H         4.8125649201    1.9957826374    0.9668905724
     32  O        -2.7534370923   -1.2469328719    1.7920125899
     33  C        -0.8526643125    1.1190102829   -1.1853909134
     34  C        -5.1441833523    1.3911194281   -0.0761757723
     35  C        -6.1293759880    1.0357730926   -1.2576307303
     36  C        -6.1393343954   -0.5364118690   -1.1817729455
     37  C        -5.1623964794   -0.7878490792    0.0330911202
     38  O        -5.4254750944    0.3514682497    0.9390526065
     39  H        -3.4908868061    1.3927375561   -1.5826776095
     40  H        -3.4789711026   -0.9748147058   -1.4497791284
     41  H         0.2218053423    1.3413796314   -1.3195097151
     42  H        -5.2616021169    2.3999185997    0.3642060596
     43  H        -7.1289668806    1.4555197036   -1.0626610732
     44  H        -5.7709177387    1.4143414972   -2.2283106201
     45  H        -7.1445870813   -0.9242167661   -0.9525312888
     46  H        -5.7811729656   -1.0110687366   -2.1094372318
     47  H        -5.3031854640   -1.7471804780    0.5676923047
     48  H        -1.3985971440    1.4498890648   -2.0910081694
     49  H        -0.9896939900    0.0223936179   -1.0205207629
     50  H         1.0172767907    1.8797987314    2.7376675814
     51  H        -0.0129865046    2.2907862885    1.2870800077
     52  H         0.9687337670    3.5827699902    2.1241305991
     53  H         1.2122461485   -3.5065207474    0.5069426206
     54  H         0.1058415440   -3.4275040076   -0.9426249869
     55  H        -0.8935264630   -2.7480381949    1.4708018501
     56  H         0.0893543916   -1.2356308832    1.2447979993

Z-matrix Print:
$molecule
0 1
O 
C  1 1.254662
O  2 1.417176 1 124.776772
C  3 1.488609 2 110.396474 1 -5.398318 0
H  4 1.104671 3 105.745859 2 169.416494 0
H  4 1.107645 3 111.167403 2 50.217329 0
H  4 1.118489 3 109.322295 2 -71.697268 0
C  2 1.566509 1 126.489590 3 178.889916 0
H  8 1.105116 2 108.334499 1 128.449007 0
C  8 1.582285 2 113.149653 1 3.939690 0
H  10 1.104643 8 110.526454 2 123.035955 0
C  10 1.571970 8 114.831721 2 0.555587 0
O  12 1.250021 10 126.986283 8 -102.944573 0
O  12 1.442651 10 108.403936 8 85.205744 0
C  14 1.481674 12 109.312553 10 -178.301650 0
H  15 1.109265 14 107.585775 12 -141.124750 0
H  15 1.112431 14 108.630594 12 -21.504173 0
C  15 1.564644 14 110.774461 12 97.964547 0
H  18 1.110516 15 110.878988 14 -161.286845 0
H  18 1.115530 15 108.474465 14 -41.019833 0
O  18 1.487504 15 107.801037 14 78.378711 0
C  21 1.438312 18 110.667590 15 165.376907 0
O  22 1.248117 21 124.034254 18 -2.734686 0
C  22 1.567357 21 107.842394 18 178.323162 0
H  24 1.104347 22 108.159441 21 24.933398 0
C  10 1.586761 8 100.842341 2 -118.386884 0
H  26 1.107099 10 114.050359 8 154.394253 0
O  26 1.482193 10 103.435754 8 34.658843 0
C  28 1.479675 26 94.972458 10 -56.952907 0
H  29 1.107377 28 110.894633 26 179.630072 0
C  26 1.578859 10 108.473755 8 -74.846586 0
H  31 1.101639 26 110.453592 10 -167.675588 0
H  31 1.101701 26 112.181647 10 -46.227729 0
C  31 1.573943 26 101.090272 10 74.172293 0
H  34 1.101571 31 111.578098 26 117.892359 0
H  34 1.101845 31 112.798641 26 -119.426576 0
C  24 1.588519 22 111.029359 21 148.426864 0
H  37 1.107220 24 114.201200 22 -34.481264 0
O  37 1.479196 24 103.328039 22 85.499764 0
C  39 1.480097 37 94.997850 24 57.204610 0
H  40 1.106977 39 110.309354 37 -179.303440 0
C  40 1.578832 39 103.685726 37 55.996305 0
H  42 1.101536 40 110.367325 39 83.155644 0
H  42 1.101828 40 112.265775 39 -155.437876 0
C  42 1.574045 40 101.109677 39 -34.951907 0
H  45 1.101579 42 111.557253 40 117.552629 0
H  45 1.101880 42 112.807183 40 -119.792372 0
C  40 1.588449 39 103.494959 37 -57.071798 0
H  48 1.103805 40 111.082366 39 152.133137 0
C  48 1.579600 40 109.505195 39 -86.576172 0
O  50 1.249701 48 124.273838 40 11.408023 0
O  50 1.438862 48 119.144453 40 -165.364374 0
C  52 1.481650 50 116.654509 48 -9.818342 0
H  53 1.105405 52 105.048470 50 179.860626 0
H  53 1.108001 52 111.951804 50 62.132319 0
H  53 1.117375 52 110.776285 50 -61.942141 0
$end

 
 --------------------------------------------------------------
 
                    Orbital Energies (a.u.)
 --------------------------------------------------------------
 
 Alpha MOs
 -- Occupied --
-18.943 -18.942 -18.938 -18.921 -18.892 -18.889 -18.888 -18.882
-18.882 -18.866 -10.107 -10.106 -10.105 -10.094 -10.066 -10.065
-10.064 -10.063 -10.061 -10.058 -10.057 -10.047 -10.045 -10.041
-10.040 -10.036 -10.025 -10.024 -10.021 -10.020  -1.021  -1.016
 -1.010  -1.002  -0.974  -0.970  -0.946  -0.941  -0.939  -0.928
 -0.769  -0.764  -0.730  -0.724  -0.713  -0.708  -0.698  -0.663
 -0.653  -0.620  -0.600  -0.581  -0.553  -0.545  -0.542  -0.536
 -0.516  -0.510  -0.487  -0.472  -0.465  -0.462  -0.455  -0.453
 -0.441  -0.434  -0.432  -0.421  -0.416  -0.412  -0.408  -0.402
 -0.395  -0.387  -0.374  -0.371  -0.361  -0.357  -0.356  -0.355
 -0.343  -0.338  -0.337  -0.334  -0.332  -0.326  -0.321  -0.317
 -0.313  -0.311  -0.305  -0.304  -0.299  -0.290  -0.284  -0.278
 -0.273  -0.263  -0.254  -0.244  -0.241  -0.238  -0.234  -0.193
 -0.177  -0.171  -0.167  -0.164  -0.159  -0.151  -0.148  -0.148
 -0.145
 -- Virtual --
  0.088   0.093   0.094   0.109   0.217   0.234   0.243   0.250
  0.251   0.265   0.276   0.284   0.285   0.309   0.320   0.322
  0.328   0.342   0.343   0.347   0.353   0.354   0.370   0.372
  0.374   0.380   0.385   0.389   0.401   0.404   0.407   0.409
  0.414   0.414   0.418   0.424   0.426   0.428   0.431   0.435
  0.439   0.442   0.445   0.449   0.462   0.464   0.466   0.468
  0.477   0.482   0.483   0.488   0.493   0.507   0.507   0.540
  0.541   0.547   0.551   0.617   0.644   0.645   0.650
 --------------------------------------------------------------
 
          Ground-State Mulliken Net Atomic Charges

     Atom                 Charge (a.u.)
  ----------------------------------------
      1 O                    -0.193838
      2 C                     0.208611
      3 C                    -0.083344
      4 C                    -0.081062
      5 C                     0.205871
      6 O                    -0.177275
      7 C                    -0.060077
      8 C                    -0.054347
      9 O                    -0.180282
     10 C                     0.215615
     11 C                    -0.081412
     12 C                    -0.078508
     13 C                     0.216204
     14 O                    -0.215407
     15 O                    -0.173033
     16 O                    -0.169912
     17 O                    -0.216579
     18 C                    -0.147666
     19 C                     0.025506
     20 C                    -0.144239
     21 C                    -0.143687
     22 C                     0.025357
     23 O                    -0.187738
     24 H                     0.083439
     25 H                     0.084401
     26 H                     0.088714
     27 H                     0.078412
     28 H                     0.072802
     29 H                     0.078743
     30 H                     0.073325
     31 H                     0.087252
     32 O                    -0.196912
     33 C                    -0.145829
     34 C                     0.026685
     35 C                    -0.144394
     36 C                    -0.144185
     37 C                     0.026728
     38 O                    -0.182189
     39 H                     0.080229
     40 H                     0.084796
     41 H                     0.087729
     42 H                     0.091298
     43 H                     0.079841
     44 H                     0.072223
     45 H                     0.079662
     46 H                     0.072859
     47 H                     0.086737
     48 H                     0.075214
     49 H                     0.111143
     50 H                     0.087217
     51 H                     0.116322
     52 H                     0.085321
     53 H                     0.102189
     54 H                     0.085859
     55 H                     0.092038
     56 H                     0.113570
  ----------------------------------------
  Sum of atomic charges =    -0.000000

 -----------------------------------------------------------------
                    Cartesian Multipole Moments
 -----------------------------------------------------------------
    Charge (ESU x 10^10)
                -0.0000
    Dipole Moment (Debye)
         X      -0.3339      Y       0.0298      Z      -5.8890
       Tot       5.8985
    Quadrupole Moments (Debye-Ang)
        XX    -154.9855     XY       7.5591     YY    -158.4143
        XZ       5.3898     YZ      -0.5145     ZZ    -165.0745
    Octopole Moments (Debye-Ang^2)
       XXX       9.5065    XXY       2.8390    XYY      -4.2759
       YYY     -42.8310    XXZ    -116.1309    XYZ      22.9808
       YYZ     -11.8680    XZZ      18.3812    YZZ       0.0006
       ZZZ     -30.3398
    Hexadecapole Moments (Debye-Ang^3)
      XXXX  -14014.8413   XXXY     301.9437   XXYY   -2749.4992
      XYYY     246.7680   YYYY   -2373.6002   XXXZ      46.6170
      XXYZ     -22.1108   XYYZ       8.1277   YYYZ     -69.3184
      XXZZ   -2690.6965   XYZZ     103.9099   YYZZ    -577.5476
      XZZZ      37.9906   YZZZ     -71.7220   ZZZZ   -1043.3742
 -----------------------------------------------------------------
Archival summary:
1\1\vega02.cac.cornell.edu\OPT\ProcedureUnspecified\STO-3G\102026\jj585\TueJan1619:20:302018TueJan1619:20:302018\0\\#,OPT,ProcedureUnspecified,STO-3G,\\0,1\O\C,1,1.25466\O,2,1.41718,1,124.777\C,3,1.48861,2,110.396,1,-5.39832,0\H,4,1.10467,3,105.746,2,169.416,0\H,4,1.10765,3,111.167,2,50.2173,0\H,4,1.11849,3,109.322,2,-71.6973,0\C,2,1.56651,1,126.49,3,178.89,0\H,8,1.10512,2,108.334,1,128.449,0\C,8,1.58228,2,113.15,1,3.93969,0\H,10,1.10464,8,110.526,2,123.036,0\C,10,1.57197,8,114.832,2,0.555587,0\O,12,1.25002,10,126.986,8,-102.945,0\O,12,1.44265,10,108.404,8,85.2057,0\C,14,1.48167,12,109.313,10,-178.302,0\H,15,1.10926,14,107.586,12,-141.125,0\H,15,1.11243,14,108.631,12,-21.5042,0\C,15,1.56464,14,110.774,12,97.9645,0\H,18,1.11052,15,110.879,14,-161.287,0\H,18,1.11553,15,108.474,14,-41.0198,0\O,18,1.4875,15,107.801,14,78.3787,0\C,21,1.43831,18,110.668,15,165.377,0\O,22,1.24812,21,124.034,18,-2.73469,0\C,22,1.56736,21,107.842,18,178.323,0\H,24,1.10435,22,108.159,21,24.9334,0\C,10,1.58676,8,100.842,2,-118.387,0\H,26,1.1071,10,114.05,8,154.394,0\O,26,1.48219,10,103.436,8,34.6588,0\C,28,1.47967,26,94.9725,10,-56.9529,0\H,29,1.10738,28,110.895,26,179.63,0\C,26,1.57886,10,108.474,8,-74.8466,0\H,31,1.10164,26,110.454,10,-167.676,0\H,31,1.1017,26,112.182,10,-46.2277,0\C,31,1.57394,26,101.09,10,74.1723,0\H,34,1.10157,31,111.578,26,117.892,0\H,34,1.10185,31,112.799,26,-119.427,0\C,24,1.58852,22,111.029,21,148.427,0\H,37,1.10722,24,114.201,22,-34.4813,0\O,37,1.4792,24,103.328,22,85.4998,0\C,39,1.4801,37,94.9979,24,57.2046,0\H,40,1.10698,39,110.309,37,-179.303,0\C,40,1.57883,39,103.686,37,55.9963,0\H,42,1.10154,40,110.367,39,83.1556,0\H,42,1.10183,40,112.266,39,-155.438,0\C,42,1.57405,40,101.11,39,-34.9519,0\H,45,1.10158,42,111.557,40,117.553,0\H,45,1.10188,42,112.807,40,-119.792,0\C,40,1.58845,39,103.495,37,-57.0718,0\H,48,1.1038,40,111.082,39,152.133,0\C,48,1.5796,40,109.505,39,-86.5762,0\O,50,1.2497,48,124.274,40,11.408,0\O,50,1.43886,48,119.144,40,-165.364,0\C,52,1.48165,50,116.655,48,-9.81834,0\H,53,1.10541,52,105.048,50,179.861,0\H,53,1.108,52,111.952,50,62.1323,0\H,53,1.11738,52,110.776,50,-61.9421,0\\\@

 Total job time:  114.41s(wall), 5459.74s(cpu) 
 Tue Jan 16 19:20:30 2018

        *************************************************************
        *                                                           *
        *  Thank you very much for using Q-Chem.  Have a nice day.  *
        *                                                           *
        *************************************************************


0 sent ACK to 0 
now end server 0 ... 
