mFile = /opt/software/qchem/qchem-5.0.1//bin/mpi/machines
Process 0 of 1 is on vega02.cac.cornell.edu - thread support 0
initial socket setup ...start
initial socket setup ...done 
now start server 0 ... 
vega02.cac.cornell.edu 10.84.3
Q-Chem Developer Version! Running on 10.84.3.*
                  Welcome to Q-Chem
     A Quantum Leap Into The Future Of Chemistry


 Q-Chem 5.0, Q-Chem, Inc., Pleasanton, CA (2017)

 Yihan Shao,  Zhengting Gan,  E. Epifanovsky,  A. T. B. Gilbert,  M. Wormit,  
 J. Kussmann,  A. W. Lange,  A. Behn,  Jia Deng,  Xintian Feng,  D. Ghosh,  
 M. Goldey,  P. R. Horn,  L. D. Jacobson,  I. Kaliman,  T. Kus,  A. Landau,  
 Jie Liu,  E. I. Proynov,  R. M. Richard,  R. P. Steele,  E. J. Sundstrom,  
 H. L. Woodcock III,  P. M. Zimmerman,  D. Zuev,  B. Albrecht,  E. Alguire,  
 S. A. Baeppler,  Z. Benda,  Y. A. Bernard,  E. J. Berquist,  K. B. Bravaya,  
 D. Casanova,  Chun-Min Chang,  Yunqing Chen,  A. Chien,  K. D. Closser,  
 M. P. Coons,  S. Dasgupta,  M. Diedenhofen,  Hainam Do,  R. G. Edgar,  
 Po-Tung Fang,  S. Fatehi,  Qingguo Feng,  Qinghui Ge,  A. Ghysels,  
 J. Gomes,  J. Gonthier,  A. Gunina,  M. W. D. Hanson-Heine,  
 P. H. P. Harbach,  A. W. Hauser,  J. E. Herr,  E. G. Hohenstein,  
 Z. C. Holden,  Kerwin Hui,  T.-C. Jagau,  Hyunjun Ji,  B. Kaduk,  
 K. Khistyaev,  Jaehoon Kim,  P. Klunzinger,  K. Koh,  D. Kosenkov,  
 T. Kowalczyk,  C. M. Krauter,  A. Kunitsa,  Ka Un Lao,  A. Laurent,  
 K. V. Lawler,  Joonho Lee,  D. Lefrancois,  S. Lehtola,  D. S. Levine,  
 Yi-Pei Li,  You-Sheng Lin,  Fenglai Liu,  E. Livshits,  A. Luenser,  
 P. Manohar,  E. Mansoor,  S. F. Manzer,  Shan-Ping Mao,  Yuezhi Mao,  
 N. Mardirossian,  A. V. Marenich,  L. A. Martinez-Martinez,  S. A. Maurer,  
 N. J. Mayhall,  S. C. McKenzie,  J.-M. Mewes,  A. F. Morrison,  K. Nanda,  
 T. S. Nguyen-Beck,  R. Olivares-Amaya,  J. A. Parkhill,  T. M. Perrine,  
 F. Plasser,  S. Prager,  A. Prociuk,  D. R. Rehn,  F. Rob,  M. Schneider,  
 N. Sergueev,  S. M. Sharada,  S. Sharma,  D. W. Small,  T. Stauch,  
 T. Stein,  Yu-Chuan Su,  A. J. W. Thom,  T. Tsuchimochi,  L. Vogt,  
 O. Vydrov,  M. A. Watson,  J. Wenzel,  M. de Wergifosse,  T. A. Wesolowski,  
 A. White,  J. Witte,  A. Yamada,  Jun Yang,  K. Yao,  S. Yeganeh,  
 S. R. Yost,  Zhi-Qiang You,  A. Zech,  Igor Ying Zhang,  Xing Zhang,  
 Yan Zhao,  Ying Zhu,  B. R. Brooks,  G. K. L. Chan,  C. J. Cramer,  
 M. S. Gordon,  W. J. Hehre,  A. Klamt,  M. W. Schmidt,  C. D. Sherrill,  
 D. G. Truhlar,  A. Aspuru-Guzik,  R. Baer,  A. T. Bell,  N. A. Besley,  
 Jeng-Da Chai,  A. Dreuw,  B. D. Dunietz,  T. R. Furlani,  Chao-Ping Hsu,  
 Yousung Jung,  Jing Kong,  D. S. Lambrecht,  WanZhen Liang,  C. Ochsenfeld,  
 V. A. Rassolov,  L. V. Slipchenko,  J. E. Subotnik,  T. Van Voorhis,  
 J. M. Herbert,  A. I. Krylov,  P. M. W. Gill,  M. Head-Gordon

 Contributors to earlier versions of Q-Chem not listed above: 
 R. D. Adamson,  B. Austin,  J. Baker,  G. J. O. Beran,  K. Brandhorst,  
 S. T. Brown,  E. F. C. Byrd,  A. K. Chakraborty,  C.-L. Cheng,  
 Siu Hung Chien,  D. M. Chipman,  D. L. Crittenden,  H. Dachsel,  
 R. A. DiStasio Jr.,  R. J. Doerksen,  A. D. Dutoi,  L. Fusti-Molnar,  
 W. A. Goddard III,  A. Golubeva-Zadorozhnaya,  S. R. Gwaltney,  G. Hawkins,  
 A. Heyden,  S. Hirata,  G. Kedziora,  F. J. Keil,  C. Kelley,  Jihan Kim,  
 R. A. King,  R. Z. Khaliullin,  P. P. Korambath,  W. Kurlancheek,  
 A. M. Lee,  M. S. Lee,  S. V. Levchenko,  Ching Yeh Lin,  D. Liotard,  
 R. C. Lochan,  I. Lotan,  P. E. Maslen,  N. Nair,  D. P. O'Neill,  
 D. Neuhauser,  E. Neuscamman,  C. M. Oana,  R. Olson,  B. Peters,  
 R. Peverati,  P. A. Pieniazek,  Y. M. Rhee,  J. Ritchie,  M. A. Rohrdanz,  
 E. Rosta,  N. J. Russ,  H. F. Schaefer III,  N. E. Schultz,  N. Shenvi,  
 A. C. Simmonett,  A. Sodt,  D. Stuck,  K. S. Thanthiriwatte,  V. Vanovschi,  
 Tao Wang,  A. Warshel,  C. F. Williams,  Q. Wu,  X. Xu,  W. Zhang

 Please cite Q-Chem as follows:
 Y. Shao et al., Mol. Phys. 113, 184-215 (2015)
 DOI: 10.1080/00268976.2014.952696

 Q-Chem 5.0.1 for Intel X86 EM64T Linux

 Parts of Q-Chem use Armadillo 5.200.1 (Boston Tea Smuggler).
 http://arma.sourceforge.net/

 Q-Chem begins on Tue Jan 16 19:29:53 2018  

Host: vega02.cac.cornell.edu
0

     Scratch files written to /scratch/jj585/SOT1001/1248r.save//
 Parallel job on  1  processors

Checking the input file for inconsistencies... 	...done.

--------------------------------------------------------------
User input:
--------------------------------------------------------------
$molecule
0  1
O -3.3198949758 2.2514302533 1.8486176733
C -2.9150275978 1.5101296935 0.9271288022
C -3.7843413384 0.9630772176 -0.26864575
C -3.6997452007 -0.6026930163 -0.5426941717
C -2.5484950201 -1.3424311346 0.2201883284
O -1.3605993115 -1.202549562 -0.5640745869
C -0.1658349529 -1.6394483144 0.1973511022
C 0.721644071 -2.5748769669 -0.7119313286
O 1.9750706285 -1.8865347574 -1.1035844093
C 2.8589646367 -1.7383052399 0.0142880033
C 4.1261220604 -0.9906387975 -0.5344226419
C 3.827443687 0.535006636 -0.8694582513
C 2.3766726384 0.9730906683 -0.4707984609
O 1.7660255608 0.6448490127 0.5771103723
O -1.5568983554 1.0836478012 0.7942745237
O 1.8422330328 1.7962954779 -1.4983761443
O 2.6584148795 -2.2034475269 1.1549245229
C 0.4811948881 2.2865635515 -1.160368225
C 5.2593169944 -0.8471857985 0.5628536823
C 6.6081973326 -0.4735420453 -0.1646570866
C 6.334119519 1.0255957596 -0.5570932727
C 4.8993918364 1.2499225291 0.0654397582
O 4.8979757113 0.401177854 1.2767542252
H 4.4815797931 -1.5235501922 -1.4343438178
H 3.9831681048 0.7693109637 -1.9368807696
H 5.3105842936 -1.6941967086 1.2742488544
H 7.4568516669 -0.5583204679 0.5326642465
H 6.8045711854 -1.1140671961 -1.039385254
H 7.0651146441 1.7070671472 -0.093868601
H 6.3411053761 1.1873016984 -1.646887825
H 4.656433234 2.298904529 0.3241471216
O -2.6148407539 -1.9357204827 1.3188694189
C -0.7517106199 1.5434470949 1.9544632953
C -5.3113940183 1.1016906251 0.1295321423
C -6.2157091957 0.8605802799 -1.1417506883
C -6.1472907924 -0.7067393171 -1.2771230539
C -5.1540157333 -1.0643848614 -0.1031611247
O -5.530964012 -0.1061050639 0.9607183212
H -3.5266742524 1.5326101092 -1.180891207
H -3.5393302144 -0.7745825507 -1.6222626655
H 0.2976063322 1.3069860401 1.6798698871
H -5.5298067899 2.0158024954 0.7154416993
H -7.2446763015 1.2063644471 -0.9548751719
H -5.8259892621 1.380925755 -2.031501051
H -7.1316876504 -1.1691998126 -1.1015157796
H -5.7715731808 -1.0352666963 -2.2594389302
H -5.2089205953 -2.1036180477 0.275029062
H -1.0442267238 1.0007263338 2.8752220359
H -0.8784688419 2.6307043001 2.1260252349
H 0.0412949046 2.6306265328 -2.1143227008
H 0.5447519737 3.145796734 -0.4616406121
H -0.1690259635 1.5085198427 -0.7015242997
H 0.9470768223 -3.526580683 -0.1846088292
H 0.1917352477 -2.7947925218 -1.6607639663
H -0.5015916464 -2.163824325 1.1167128983
H 0.4250880413 -0.7366175156 0.4757971545
$end

$rem
JOBTYPE                   OPT
METHOD                    B3LYP
DFT_D                     d3_op
BASIS                     STO-3G
GEOM_OPT_MAX_CYCLES       100
GEOM_OPT_TOL_GRADIENT     300
GEOM_OPT_TOL_DISPLACEMENT 1200
GEOM_OPT_TOL_ENERGY       100
SYMMETRY                  False
THRESH                    12
SCF_CONVERGENCE           8
MAX_SUB_FILE_NUM          128
MEM_STATIC                400
MEM_TOTAL                 4000
$end
--------------------------------------------------------------
 Adding empirical dispersion correction 
 ----------------------------------------------------------------
 Doing -D3(op) with
 s6 =   1.00000
 s8 =   0.78311
 a1 =   0.30000
 a2 =   4.25000
 n  =  10.00000
 -D3 energy without 3body term =     -0.0729040750 hartrees
 ----------------------------------------------------------------
             Standard Nuclear Orientation (Angstroms)
    I     Atom           X                Y                Z
 ----------------------------------------------------------------
    1      O      -3.3845405929     2.3165569351     1.6014604430
    2      C      -2.9501543673     1.5156833065     0.7456007049
    3      C      -3.7912014053     0.8531139169    -0.4113311230
    4      C      -3.6634811129    -0.7266405669    -0.5595160310
    5      C      -2.5027156093    -1.3731663880     0.2706688757
    6      O      -1.3096990251    -1.2644328302    -0.5107527981
    7      C      -0.1131476892    -1.6081399842     0.2943818276
    8      C       0.8084715427    -2.5887787460    -0.5292721841
    9      O       2.0484120874    -1.9007361684    -0.9622041936
   10      C       2.9151210154    -1.6413754008     0.1488434942
   11      C       4.1691071902    -0.9062648474    -0.4452167431
   12      C       3.8355256686     0.5797253128    -0.9030466584
   13      C       2.3694910415     1.0095441503    -0.5543603779
   14      O       1.7552237306     0.7491592889     0.5103559014
   15      O      -1.5801251447     1.1159901030     0.6600590473
   16      O       1.8262542063     1.7345894800    -1.6490798656
   17      O       2.7132002409    -2.0200451507     1.3207933411
   18      C       0.4492937217     2.2139834195    -1.3641268109
   19      C       5.2853812590    -0.6467191649     0.6480778627
   20      C       6.6326909030    -0.2963068628    -0.0937628759
   21      C       6.3250470148     1.1593800990    -0.6064710517
   22      C       4.8778900133     1.3943000925    -0.0175206234
   23      O       4.8839883038     0.6441969597     1.2572187099
   24      H       4.5485334446    -1.4990718987    -1.2965794124
   25      H       3.9976745849     0.7329637986    -1.9841410762
   26      H       5.3499359116    -1.4332135012     1.4248650050
   27      H       7.4750313045    -0.3033085981     0.6162175642
   28      H       6.8555479565    -0.9985566521    -0.9130091716
   29      H       7.0329541896     1.8943621991    -0.1917386490
   30      H       6.3406298631     1.2345832367    -1.7055394945
   31      H       4.6052368037     2.4536754537     0.1548327629
   32      O      -2.5667250647    -1.8793152728     1.4122512168
   33      C      -0.8005366605     1.6871067374     1.7878215448
   34      C      -5.3258397395     0.9824540314    -0.0401094695
   35      C      -6.2088000601     0.6178731450    -1.2969077921
   36      C      -6.0988310160    -0.9528924603    -1.3068926227
   37      C      -5.1105295915    -1.1903318067    -0.0987638461
   38      O      -5.5242076531    -0.1612442631     0.8820923817
   39      H      -3.5375168580     1.3553666073    -1.3633490855
   40      H      -3.4861358950    -0.9790201013    -1.6204591760
   41      H       0.2576079201     1.4574309177     1.5429532117
   42      H      -5.5743359940     1.9339335345     0.4693324074
   43      H      -7.2483683006     0.9500963196    -1.1479511228
   44      H      -5.8221221463     1.0763685717    -2.2213313328
   45      H      -7.0730892178    -1.4258197063    -1.1046413561
   46      H      -5.7034063946    -1.3480034035    -2.2564004714
   47      H      -5.1433088375    -2.1975119811     0.3601060638
   48      H      -1.0898401397     1.2113270113     2.7458639777
   49      H      -0.9569943486     2.7808007522     1.8713904989
   50      H       0.0119268349     2.4698633211    -2.3465504236
   51      H       0.4827392619     3.1271246349    -0.7351626159
   52      H      -0.1861742336     1.4577639286    -0.8513018155
   53      H       1.0519442792    -3.4895572767     0.0740088219
   54      H       0.2954637389    -2.8968850109    -1.4627297940
   55      H      -0.4461265567    -2.0668891144     1.2491609535
   56      H       0.4512514092    -0.6708635928     0.5060236576
 ----------------------------------------------------------------
 Molecular Point Group                 C1    NOp =  1
 Largest Abelian Subgroup              C1    NOp =  1
 Nuclear Repulsion Energy =  3214.0826121401 hartrees
 There are      113 alpha and      113 beta electrons
 Requested basis set is STO-3G
 There are 86 shells and 176 basis functions

 Total QAlloc Memory Limit   4000 MB
 Mega-Array Size       392 MB
 MEM_STATIC part       400 MB
 A cutoff of  1.0D-12 yielded   2310 shell pairs
 There are     10803 function pairs
 
 -------------------------------------------------------
 OpenMP Integral Computing Module                       
 Release: version 1.0, May 2013, Q-Chem Inc. Pittsburgh 
 -------------------------------------------------------
 Integral Job Info:
 Integral job number is                      11
 Integral operator is                         1
 short-range coefficients                     0
 long-range coefficients              100000000
 Omega coefficients                           0
 if combine SR and LR in K                    0
 Integral screening is                        0
 Integral computing path is                   2
 max size of driver memory is            800000
 size of driver memory is                 45569
 size of scratch memory is              1046100
 max col of scratch BK array                289
 max len of scratch array in speh3           22
 max len of scratch index in speh4            8
 max int batch size is                      520
 min int batch size is                       52
 fixed nKL is                                52
 max L of basis functions is                  1
 order of int derivative is                   0
 number of shells is                         86
 number of basis is                         176
 number of cartesian basis is               176
 number of contracted shell pairs          2310
 number of primitive shell pairs          11720
 maxK2 (contraction) of shell pair            9
 max number of K2 of shell pair               1
 max number of CS2 of shell pair            366
 max number of PS2 of shell pair           1308
 mem total for path MDJ                   49782
 -------------------------------------------------------
 Smallest overlap matrix eigenvalue = 2.13E-01

 Scale SEOQF with 1.000000e-02/1.000000e-01/1.000000e-01

 Standard Electronic Orientation quadrupole field applied
 Nucleus-field energy     =     0.0000000221 hartrees
 Guess from superposition of atomic densities
 Warning:  Energy on first SCF cycle will be non-variational
 A restricted hybrid HF-DFT SCF calculation will be
 performed using Pulay DIIS extrapolation
 Exchange:     0.2000 Hartree-Fock + 0.0800 Slater + 0.7200 B88
 Correlation:  0.1900 VWN1RPA + 0.8100 LYP
 Using SG-1 standard quadrature grid
 Dispersion:   Grimme D3
 SCF converges when DIIS error is below 1.0E-08
 using 48 threads for integral computing
 -------------------------------------------------------
 OpenMP Integral computing Module                
 Release: version 1.0, May 2013, Q-Chem Inc. Pittsburgh 
 -------------------------------------------------------
 -------------------------------------------------------
 OpenMP BLAS3 based DFT computing Module                
 Release: version 1.0, May 2013, Q-Chem Inc. Pittsburgh 
 -------------------------------------------------------
 ---------------------------------------
  Cycle       Energy         DIIS Error
 ---------------------------------------
    1   -1507.6527535646      7.47E-02
    2   -1509.7530303028      1.04E-02
    3   -1507.3005936049      2.78E-02
    4   -1510.1868485735      4.86E-03
    5   -1510.2824498123      1.51E-03
    6   -1510.2916791566      4.31E-04
    7   -1510.2924213568      1.54E-04
    8   -1510.2925232491      3.60E-05
    9   -1510.2925287872      9.49E-06
   10   -1510.2925291307      4.20E-06
   11   -1510.2925291946      1.80E-06
   12   -1510.2925292087      2.72E-07
   13   -1510.2925292091      8.28E-08
   14   -1510.2925292091      3.18E-08
   15   -1510.2925292090      1.76E-08
   16   -1510.2925292091      4.53E-09 Convergence criterion met
 ---------------------------------------
 SCF time:  CPU 119.76 s  wall 2.55 s
 SCF   energy in the final basis set = -1510.29252921
 Total energy in the final basis set = -1510.29252921
 
 --------------------------------------------------------------
 
                    Orbital Energies (a.u.)
 --------------------------------------------------------------
 
 Alpha MOs
 -- Occupied --
-18.952 -18.935 -18.927 -18.922 -18.892 -18.890 -18.883 -18.876
-18.875 -18.870 -10.115 -10.099 -10.099 -10.095 -10.069 -10.066
-10.064 -10.061 -10.056 -10.055 -10.050 -10.047 -10.044 -10.040
-10.038 -10.035 -10.025 -10.023 -10.019 -10.018  -1.025  -1.013
 -1.009  -1.002  -0.974  -0.967  -0.949  -0.937  -0.935  -0.929
 -0.768  -0.761  -0.729  -0.722  -0.713  -0.704  -0.692  -0.670
 -0.654  -0.617  -0.598  -0.581  -0.549  -0.543  -0.539  -0.535
 -0.516  -0.507  -0.480  -0.478  -0.465  -0.458  -0.454  -0.449
 -0.436  -0.432  -0.423  -0.417  -0.414  -0.408  -0.406  -0.402
 -0.393  -0.381  -0.374  -0.370  -0.361  -0.359  -0.355  -0.348
 -0.347  -0.339  -0.335  -0.334  -0.329  -0.327  -0.326  -0.314
 -0.309  -0.308  -0.305  -0.303  -0.296  -0.285  -0.282  -0.276
 -0.271  -0.264  -0.249  -0.245  -0.238  -0.238  -0.231  -0.191
 -0.180  -0.176  -0.168  -0.160  -0.155  -0.152  -0.148  -0.148
 -0.141
 -- Virtual --
  0.080   0.098   0.105   0.108   0.224   0.230   0.245   0.252
  0.261   0.266   0.279   0.287   0.298   0.307   0.324   0.331
  0.336   0.339   0.347   0.348   0.356   0.358   0.368   0.373
  0.379   0.383   0.385   0.392   0.402   0.407   0.411   0.412
  0.414   0.416   0.418   0.420   0.422   0.429   0.430   0.434
  0.435   0.436   0.440   0.443   0.447   0.453   0.462   0.469
  0.476   0.485   0.490   0.497   0.502   0.506   0.509   0.536
  0.543   0.547   0.554   0.634   0.642   0.652   0.656
 --------------------------------------------------------------
 
          Ground-State Mulliken Net Atomic Charges

     Atom                 Charge (a.u.)
  ----------------------------------------
      1 O                    -0.209398
      2 C                     0.209429
      3 C                    -0.077500
      4 C                    -0.079859
      5 C                     0.211962
      6 O                    -0.177435
      7 C                    -0.066668
      8 C                    -0.051276
      9 O                    -0.180136
     10 C                     0.211722
     11 C                    -0.078913
     12 C                    -0.077476
     13 C                     0.221470
     14 O                    -0.218031
     15 O                    -0.175062
     16 O                    -0.162405
     17 O                    -0.207546
     18 C                    -0.138719
     19 C                     0.024923
     20 C                    -0.143632
     21 C                    -0.143774
     22 C                     0.025579
     23 O                    -0.185858
     24 H                     0.086371
     25 H                     0.088758
     26 H                     0.090680
     27 H                     0.079159
     28 H                     0.073907
     29 H                     0.079067
     30 H                     0.074360
     31 H                     0.082536
     32 O                    -0.214275
     33 C                    -0.142840
     34 C                     0.023687
     35 C                    -0.145067
     36 C                    -0.143175
     37 C                     0.024261
     38 O                    -0.188160
     39 H                     0.082690
     40 H                     0.083083
     41 H                     0.112238
     42 H                     0.090897
     43 H                     0.078198
     44 H                     0.071901
     45 H                     0.077855
     46 H                     0.072114
     47 H                     0.086879
     48 H                     0.088195
     49 H                     0.084310
     50 H                     0.089651
     51 H                     0.083452
     52 H                     0.112605
     53 H                     0.089271
     54 H                     0.092858
     55 H                     0.099442
     56 H                     0.103696
  ----------------------------------------
  Sum of atomic charges =    -0.000000

 -----------------------------------------------------------------
                    Cartesian Multipole Moments
 -----------------------------------------------------------------
    Charge (ESU x 10^10)
                -0.0000
    Dipole Moment (Debye)
         X       1.9906      Y       0.6652      Z      -4.9290
       Tot       5.3572
    Quadrupole Moments (Debye-Ang)
        XX    -149.6846     XY       1.3474     YY    -155.0413
        XZ       6.2583     YZ       0.7615     ZZ    -167.5593
    Octopole Moments (Debye-Ang^2)
       XXX      87.6584    XXY     -10.8279    XYY       9.3176
       YYY      -6.0887    XXZ     -89.7689    XYZ       4.7407
       YYZ      -7.1489    XZZ      -2.1572    YZZ       2.5309
       ZZZ       9.4265
    Hexadecapole Moments (Debye-Ang^3)
      XXXX  -14549.2239   XXXY     -13.6004   XXYY   -2846.6361
      XYYY      24.2047   YYYY   -2077.3499   XXXZ     127.2556
      XXYZ     -24.3945   XYYZ      24.5650   YYYZ       2.8121
      XXZZ   -2821.5981   XYZZ      -9.9373   YYZZ    -558.8197
      XZZZ     -29.5074   YZZZ       2.0279   ZZZZ   -1047.9120
 -----------------------------------------------------------------
 Calculating analytic gradient of the SCF energy
 Gradient of SCF Energy
            1           2           3           4           5           6
    1   0.0001583  -0.0000204   0.0012960  -0.0018708  -0.0001466  -0.0014144
    2   0.0007254  -0.0011339   0.0003838   0.0013140  -0.0051448   0.0001454
    3  -0.0007340   0.0008643  -0.0017178   0.0030704  -0.0031250   0.0031012
            7           8           9          10          11          12
    1   0.0042907  -0.0016470   0.0007901  -0.0031917   0.0016941   0.0002917
    2   0.0051412  -0.0042072   0.0009892   0.0064413  -0.0051869  -0.0003639
    3  -0.0008208  -0.0046250   0.0035727   0.0016349  -0.0021602   0.0005350
           13          14          15          16          17          18
    1   0.0004733  -0.0003845   0.0000092   0.0000138   0.0000867   0.0000438
    2   0.0014012  -0.0008140   0.0001290  -0.0000058  -0.0000368  -0.0000309
    3   0.0008742  -0.0004518  -0.0000847   0.0000982   0.0000301   0.0000060
           19          20          21          22          23          24
    1   0.0002911  -0.0001423   0.0000426  -0.0000172  -0.0002318   0.0000231
    2   0.0001353  -0.0001439   0.0003174   0.0000080  -0.0000045   0.0000222
    3   0.0000888  -0.0000767   0.0000734  -0.0000472  -0.0001369   0.0000024
           25          26          27          28          29          30
    1  -0.0001361   0.0000290   0.0000004   0.0001010  -0.0000363  -0.0000349
    2   0.0001059   0.0000495   0.0000334   0.0000521  -0.0000165  -0.0001102
    3   0.0000036   0.0000324  -0.0000147  -0.0000070  -0.0000100   0.0000448
           31          32          33          34          35          36
    1  -0.0000077  -0.0001878  -0.0000092   0.0000823  -0.0001341  -0.0000335
    2   0.0000000   0.0000140   0.0000599  -0.0003255   0.0002570  -0.0000288
    3  -0.0000406  -0.0000643   0.0001324   0.0000767   0.0000285   0.0001086
           37          38          39          40          41          42
    1  -0.0000927  -0.0000327   0.0000289   0.0001936   0.0000117   0.0000848
    2  -0.0000286   0.0000716  -0.0000991  -0.0000532  -0.0000238   0.0000599
    3  -0.0001076  -0.0000845  -0.0000296  -0.0000053  -0.0000218   0.0001612
           43          44          45          46          47          48
    1  -0.0000067   0.0000075   0.0000300   0.0000467  -0.0000549   0.0000443
    2  -0.0000032   0.0000205  -0.0000032   0.0000602  -0.0000182  -0.0000711
    3   0.0000299  -0.0000403  -0.0000500  -0.0000400  -0.0000161  -0.0000155
           49          50          51          52          53          54
    1  -0.0000191  -0.0000130  -0.0000407   0.0000523  -0.0000498  -0.0000441
    2   0.0000026   0.0000090   0.0001186  -0.0000740   0.0000089  -0.0000897
    3  -0.0000026  -0.0000001  -0.0000855   0.0000992   0.0000479  -0.0000140
           55          56
    1  -0.0000606  -0.0001569
    2  -0.0000510  -0.0000079
    3  -0.0000463  -0.0000410
 Max gradient component =       6.441E-03
 RMS gradient           =       1.259E-03
 Gradient time:  CPU 32.75 s  wall 0.70 s
 Geometry Optimization Parameters
   NAtoms,    NIC,     NZ,  NCons,   NDum,   NFix, NCnnct, MaxDiis
       56     458       0       0       0       0       0       0


** GEOMETRY OPTIMIZATION IN DELOCALIZED INTERNAL COORDINATES **
   Searching for a Minimum

   Optimization Cycle:   1

                       Coordinates (Angstroms)
     ATOM                X               Y               Z
      1  O        -3.3845405929    2.3165569351    1.6014604430
      2  C        -2.9501543673    1.5156833065    0.7456007049
      3  C        -3.7912014053    0.8531139169   -0.4113311230
      4  C        -3.6634811129   -0.7266405669   -0.5595160310
      5  C        -2.5027156093   -1.3731663880    0.2706688757
      6  O        -1.3096990251   -1.2644328302   -0.5107527981
      7  C        -0.1131476892   -1.6081399842    0.2943818276
      8  C         0.8084715427   -2.5887787460   -0.5292721841
      9  O         2.0484120874   -1.9007361684   -0.9622041936
     10  C         2.9151210154   -1.6413754008    0.1488434942
     11  C         4.1691071902   -0.9062648474   -0.4452167431
     12  C         3.8355256686    0.5797253128   -0.9030466584
     13  C         2.3694910415    1.0095441503   -0.5543603779
     14  O         1.7552237306    0.7491592889    0.5103559014
     15  O        -1.5801251447    1.1159901030    0.6600590473
     16  O         1.8262542063    1.7345894800   -1.6490798656
     17  O         2.7132002409   -2.0200451507    1.3207933411
     18  C         0.4492937217    2.2139834195   -1.3641268109
     19  C         5.2853812590   -0.6467191649    0.6480778627
     20  C         6.6326909030   -0.2963068628   -0.0937628759
     21  C         6.3250470148    1.1593800990   -0.6064710517
     22  C         4.8778900133    1.3943000925   -0.0175206234
     23  O         4.8839883038    0.6441969597    1.2572187099
     24  H         4.5485334446   -1.4990718987   -1.2965794124
     25  H         3.9976745849    0.7329637986   -1.9841410762
     26  H         5.3499359116   -1.4332135012    1.4248650050
     27  H         7.4750313045   -0.3033085981    0.6162175642
     28  H         6.8555479565   -0.9985566521   -0.9130091716
     29  H         7.0329541896    1.8943621991   -0.1917386490
     30  H         6.3406298631    1.2345832367   -1.7055394945
     31  H         4.6052368037    2.4536754537    0.1548327629
     32  O        -2.5667250647   -1.8793152728    1.4122512168
     33  C        -0.8005366605    1.6871067374    1.7878215448
     34  C        -5.3258397395    0.9824540314   -0.0401094695
     35  C        -6.2088000601    0.6178731450   -1.2969077921
     36  C        -6.0988310160   -0.9528924603   -1.3068926227
     37  C        -5.1105295915   -1.1903318067   -0.0987638461
     38  O        -5.5242076531   -0.1612442631    0.8820923817
     39  H        -3.5375168580    1.3553666073   -1.3633490855
     40  H        -3.4861358950   -0.9790201013   -1.6204591760
     41  H         0.2576079201    1.4574309177    1.5429532117
     42  H        -5.5743359940    1.9339335345    0.4693324074
     43  H        -7.2483683006    0.9500963196   -1.1479511228
     44  H        -5.8221221463    1.0763685717   -2.2213313328
     45  H        -7.0730892178   -1.4258197063   -1.1046413561
     46  H        -5.7034063946   -1.3480034035   -2.2564004714
     47  H        -5.1433088375   -2.1975119811    0.3601060638
     48  H        -1.0898401397    1.2113270113    2.7458639777
     49  H        -0.9569943486    2.7808007522    1.8713904989
     50  H         0.0119268349    2.4698633211   -2.3465504236
     51  H         0.4827392619    3.1271246349   -0.7351626159
     52  H        -0.1861742336    1.4577639286   -0.8513018155
     53  H         1.0519442792   -3.4895572767    0.0740088219
     54  H         0.2954637389   -2.8968850109   -1.4627297940
     55  H        -0.4461265567   -2.0668891144    1.2491609535
     56  H         0.4512514092   -0.6708635928    0.5060236576
   Point Group: c1    Number of degrees of freedom:   162


   Energy is  -1510.292529209


 Attempting to Generate Delocalized Internal Coordinates

162 Hessian modes will be used to form the next step
  Hessian Eigenvalues:
     0.002000    0.002000    0.002000    0.002000    0.002000    0.002688
     0.002713    0.004289    0.004321    0.004369    0.004377    0.004384
     0.004662    0.004711    0.004719    0.006827    0.006835    0.011308
     0.011639    0.011716    0.012869    0.021628    0.021707    0.026144
     0.026356    0.030593    0.030894    0.035493    0.035525    0.040240
     0.041370    0.041667    0.041853    0.044635    0.046669    0.047590
     0.048145    0.048284    0.049710    0.050813    0.051266    0.053223
     0.053971    0.054273    0.054922    0.055308    0.055355    0.056288
     0.056386    0.058557    0.059142    0.060504    0.060757    0.063630
     0.063869    0.064183    0.064297    0.069986    0.070348    0.072974
     0.073137    0.091581    0.092344    0.092825    0.092977    0.095321
     0.095763    0.095848    0.097854    0.102878    0.104082    0.109784
     0.110784    0.110996    0.112512    0.120596    0.120909    0.136054
     0.137075    0.157085    0.157541    0.160000    0.160000    0.160000
     0.160000    0.160000    0.160000    0.163077    0.163883    0.218929
     0.220581    0.220717    0.221316    0.224930    0.225291    0.238234
     0.238637    0.239911    0.239968    0.246708    0.247677    0.249439
     0.249865    0.249971    0.249984    0.250000    0.250000    0.250000
     0.250000    0.250000    0.250000    0.250000    0.250000    0.253651
     0.253809    0.254168    0.255277    0.259965    0.262525    0.262780
     0.292020    0.292580    0.306312    0.307009    0.321414    0.322888
     0.324798    0.325605    0.325866    0.326745    0.327268    0.328009
     0.328144    0.328643    0.328775    0.328863    0.328907    0.330411
     0.330914    0.331488    0.331755    0.332572    0.334672    0.334801
     0.334828    0.334895    0.334947    0.334990    0.335152    0.335188
     0.339352    0.339825    0.342666    0.342733    0.405914    0.409476
     0.410319    0.423119    0.808873    0.830901    0.832241    0.839614

 Minimum Search - Taking Simple RFO Step
 Searching for Lamda that Minimizes Along All modes
 Value Taken    Lamda =  -0.00991560
 Calculated Step too Large.  Step scaled by  0.390075
 Step Taken.  Stepsize is  0.300000

                             Maximum     Tolerance    Cnvgd?
         Gradient           0.004567      0.000300      NO
         Displacement       0.107565      0.001200      NO
         Energy change     *********      0.000001      NO


 New Cartesian Coordinates Obtained by Inverse Iteration

 Displacement from previous Coordinates is:  3.620145
 Adding empirical dispersion correction 
 ----------------------------------------------------------------
 Doing -D3(op) with
 s6 =   1.00000
 s8 =   0.78311
 a1 =   0.30000
 a2 =   4.25000
 n  =  10.00000
 -D3 energy without 3body term =     -0.0753854987 hartrees
 ----------------------------------------------------------------
             Standard Nuclear Orientation (Angstroms)
    I     Atom           X                Y                Z
 ----------------------------------------------------------------
    1      O      -3.3326928637     2.4795638846     1.5203234453
    2      C      -2.8676624940     1.6700579513     0.6890056874
    3      C      -3.6752622816     0.9638864749    -0.4658899385
    4      C      -3.5285091959    -0.6188698431    -0.5625753606
    5      C      -2.3830502128    -1.2302388899     0.3143198378
    6      O      -1.1954671083    -1.2375820768    -0.4828173859
    7      C      -0.0218313200    -1.6633771476     0.3168395221
    8      C       0.8369824351    -2.6871044962    -0.5221180559
    9      O       2.0879707424    -2.0524298435    -1.0023695821
   10      C       3.0171104322    -1.8595340945     0.0711322073
   11      C       4.1727809341    -0.9691683843    -0.5098319563
   12      C       3.6842269989     0.5026604220    -0.8605037419
   13      C       2.1974513344     0.7667505939    -0.4421719141
   14      O       1.6531277928     0.3975624648     0.6284242015
   15      O      -1.4919877150     1.2831223354     0.6461545492
   16      O       1.5491190603     1.4995497632    -1.4727047544
   17      O       2.8780472148    -2.3032324712     1.2293231230
   18      C       0.1465428449     1.8329270881    -1.1139082854
   19      C       5.2988881608    -0.6725631888     0.5632571225
   20      C       6.5792492874    -0.1493343402    -0.1950951616
   21      C       6.1177002553     1.2989181211    -0.6026411262
   22      C       4.6772694452     1.3572845246     0.0442218843
   23      O       4.8009039956     0.5339317510     1.2669354874
   24      H       4.5743988816    -1.4673750820    -1.4102218119
   25      H       3.7927007770     0.7358252403    -1.9340089351
   26      H       5.4652234351    -1.4960502698     1.2846163103
   27      H       7.4440144878    -0.1194738735     0.4867878978
   28      H       6.8365146669    -0.7752079911    -1.0646272072
   29      H       6.7682534478     2.0713683586    -0.1627646480
   30      H       6.0860522642     1.4433118102    -1.6944550367
   31      H       4.3130588157     2.3729696739     0.2933476173
   32      O      -2.4711724171    -1.7016239095     1.4691165871
   33      C      -0.7459547959     1.8899256997     1.7779120461
   34      C      -5.2190251799     1.0892718100    -0.1337235412
   35      C      -6.0699322767     0.6740471904    -1.3970019352
   36      C      -5.9451573607    -0.8948022042    -1.3519324270
   37      C      -4.9806851133    -1.0811833973    -0.1160464385
   38      O      -5.4258775112    -0.0252732380     0.8214103002
   39      H      -3.4055283005     1.4400222341    -1.4268838383
   40      H      -3.3285876170    -0.9062466790    -1.6104947763
   41      H       0.3200361249     1.6645897822     1.5652197888
   42      H      -5.4885002300     2.0542306048     0.3381724669
   43      H      -7.1156714762     1.0003942837    -1.2822144800
   44      H      -5.6670842316     1.1054988251    -2.3274892067
   45      H      -6.9190234510    -1.3705662648    -1.1543997223
   46      H      -5.5257213178    -1.3175739857    -2.2789412152
   47      H      -5.0132869904    -2.0729706932     0.3752011863
   48      H      -1.0547871726     1.4357171237     2.7403178313
   49      H      -0.9144467115     2.9837862336     1.8298382369
   50      H      -0.3485725017     2.1065941559    -2.0635775504
   51      H       0.1222093103     2.7055291056    -0.4294687908
   52      H      -0.3993534458     0.9923777000    -0.6301110476
   53      H       1.0567734378    -3.5980638004     0.0749229647
   54      H       0.2846360149    -2.9720114762    -1.4403333576
   55      H      -0.3728909865    -2.1032983099     1.2739977995
   56      H       0.6001014680    -0.7622927412     0.5246853397
 ----------------------------------------------------------------
 Molecular Point Group                 C1    NOp =  1
 Largest Abelian Subgroup              C1    NOp =  1
 Nuclear Repulsion Energy =  3250.5563299175 hartrees
 There are      113 alpha and      113 beta electrons
 Applying Cartesian multipole field
    Component          Value
    ---------          -----
     (2,0,0)        1.00000E-12
     (0,2,0)        2.00000E-11
     (0,0,2)       -3.00000E-11
 Nucleus-field energy     =     0.0000000234 hartrees
 Requested basis set is STO-3G
 There are 86 shells and 176 basis functions
 A cutoff of  1.0D-12 yielded   2336 shell pairs
 There are     10922 function pairs
 Smallest overlap matrix eigenvalue = 2.13E-01
 Guess MOs from SCF MO coefficient file
 Reading MOs from coefficient file
 Reading MOs from coefficient file
 A restricted hybrid HF-DFT SCF calculation will be
 performed using Pulay DIIS extrapolation
 Exchange:     0.2000 Hartree-Fock + 0.0800 Slater + 0.7200 B88
 Correlation:  0.1900 VWN1RPA + 0.8100 LYP
 Using SG-1 standard quadrature grid
 Dispersion:   Grimme D3
 SCF converges when DIIS error is below 1.0E-08
 Geometry optimization detected.  Setting ReadMinima to 0
 Setting SaveMinima to 0
 using 48 threads for integral computing
 -------------------------------------------------------
 OpenMP Integral computing Module                
 Release: version 1.0, May 2013, Q-Chem Inc. Pittsburgh 
 -------------------------------------------------------
 -------------------------------------------------------
 OpenMP BLAS3 based DFT computing Module                
 Release: version 1.0, May 2013, Q-Chem Inc. Pittsburgh 
 -------------------------------------------------------
 ---------------------------------------
  Cycle       Energy         DIIS Error
 ---------------------------------------
    1   -1510.2230976121      5.32E-03
    2   -1510.2729804696      6.12E-04
    3   -1510.2706817792      1.02E-03
    4   -1510.2747647299      3.21E-04
    5   -1510.2751990524      6.50E-05
    6   -1510.2752142509      3.24E-05
    7   -1510.2752182918      1.36E-05
    8   -1510.2752190639      4.34E-06
    9   -1510.2752191516      8.97E-07
   10   -1510.2752191538      6.80E-07
   11   -1510.2752191559      1.48E-07
   12   -1510.2752191559      4.73E-08
   13   -1510.2752191560      1.42E-08
   14   -1510.2752191560      3.45E-09 Convergence criterion met
 ---------------------------------------
 SCF time:  CPU 105.11 s  wall 2.20 s
 SCF   energy in the final basis set = -1510.27521916
 Total energy in the final basis set = -1510.27521916
 
 --------------------------------------------------------------
 
                    Orbital Energies (a.u.)
 --------------------------------------------------------------
 
 Alpha MOs
 -- Occupied --
-18.949 -18.947 -18.924 -18.920 -18.895 -18.891 -18.885 -18.883
-18.876 -18.868 -10.116 -10.106 -10.098 -10.094 -10.066 -10.064
-10.061 -10.059 -10.058 -10.057 -10.046 -10.044 -10.041 -10.039
-10.036 -10.031 -10.024 -10.023 -10.020 -10.019  -1.026  -1.021
 -1.008  -1.001  -0.974  -0.969  -0.951  -0.944  -0.936  -0.928
 -0.767  -0.763  -0.728  -0.723  -0.712  -0.706  -0.689  -0.667
 -0.661  -0.616  -0.599  -0.580  -0.549  -0.546  -0.539  -0.536
 -0.518  -0.509  -0.490  -0.477  -0.463  -0.458  -0.453  -0.452
 -0.438  -0.434  -0.425  -0.421  -0.418  -0.406  -0.403  -0.400
 -0.397  -0.385  -0.373  -0.366  -0.364  -0.358  -0.353  -0.349
 -0.348  -0.343  -0.335  -0.333  -0.329  -0.328  -0.323  -0.315
 -0.311  -0.307  -0.306  -0.305  -0.298  -0.288  -0.284  -0.274
 -0.271  -0.266  -0.248  -0.242  -0.238  -0.236  -0.233  -0.189
 -0.183  -0.177  -0.171  -0.160  -0.153  -0.151  -0.148  -0.148
 -0.143
 -- Virtual --
  0.075   0.092   0.105   0.108   0.224   0.230   0.248   0.254
  0.256   0.269   0.280   0.285   0.299   0.306   0.325   0.328
  0.334   0.340   0.345   0.349   0.355   0.358   0.369   0.375
  0.379   0.381   0.389   0.393   0.405   0.407   0.409   0.412
  0.413   0.416   0.417   0.418   0.423   0.426   0.426   0.433
  0.435   0.436   0.440   0.447   0.450   0.463   0.467   0.468
  0.483   0.488   0.493   0.502   0.504   0.509   0.536   0.542
  0.546   0.553   0.559   0.629   0.643   0.653   0.656
 --------------------------------------------------------------
 
          Ground-State Mulliken Net Atomic Charges

     Atom                 Charge (a.u.)
  ----------------------------------------
      1 O                    -0.205715
      2 C                     0.211323
      3 C                    -0.078318
      4 C                    -0.080745
      5 C                     0.209665
      6 O                    -0.181950
      7 C                    -0.086943
      8 C                    -0.053207
      9 O                    -0.181754
     10 C                     0.210773
     11 C                    -0.079040
     12 C                    -0.077069
     13 C                     0.225253
     14 O                    -0.219815
     15 O                    -0.169180
     16 O                    -0.162997
     17 O                    -0.206307
     18 C                    -0.146769
     19 C                     0.024871
     20 C                    -0.143631
     21 C                    -0.143717
     22 C                     0.025456
     23 O                    -0.186012
     24 H                     0.085867
     25 H                     0.089509
     26 H                     0.090745
     27 H                     0.079030
     28 H                     0.073993
     29 H                     0.079013
     30 H                     0.074414
     31 H                     0.082248
     32 O                    -0.214564
     33 C                    -0.135924
     34 C                     0.023843
     35 C                    -0.145028
     36 C                    -0.143176
     37 C                     0.024534
     38 O                    -0.187887
     39 H                     0.082925
     40 H                     0.083976
     41 H                     0.107526
     42 H                     0.090779
     43 H                     0.078600
     44 H                     0.072156
     45 H                     0.078232
     46 H                     0.072539
     47 H                     0.087441
     48 H                     0.093960
     49 H                     0.087772
     50 H                     0.081476
     51 H                     0.076320
     52 H                     0.132598
     53 H                     0.089098
     54 H                     0.090105
     55 H                     0.092820
     56 H                     0.120886
  ----------------------------------------
  Sum of atomic charges =    -0.000000

 -----------------------------------------------------------------
                    Cartesian Multipole Moments
 -----------------------------------------------------------------
    Charge (ESU x 10^10)
                -0.0000
    Dipole Moment (Debye)
         X       1.5993      Y       1.1194      Z      -4.6568
       Tot       5.0494
    Quadrupole Moments (Debye-Ang)
        XX    -150.2027     XY       2.7356     YY    -156.3532
        XZ       5.6180     YZ       2.0662     ZZ    -167.4114
    Octopole Moments (Debye-Ang^2)
       XXX      78.0215    XXY      -7.1279    XYY       4.2741
       YYY      -3.8354    XXZ     -89.1411    XYZ       8.6445
       YYZ      -4.0694    XZZ      -5.0662    YZZ       5.4541
       ZZZ      11.3876
    Hexadecapole Moments (Debye-Ang^3)
      XXXX  -13962.0444   XXXY     168.4180   XXYY   -2756.1442
      XYYY     199.7579   YYYY   -2135.2262   XXXZ      66.1323
      XXYZ     -37.6255   XYYZ       5.5940   YYYZ     -30.9838
      XXZZ   -2698.3925   XYZZ      53.0026   YYZZ    -559.3181
      XZZZ     -79.3691   YZZZ     -34.4930   ZZZZ   -1006.6672
 -----------------------------------------------------------------
 Calculating analytic gradient of the SCF energy
 Gradient of SCF Energy
            1           2           3           4           5           6
    1  -0.0015281   0.0049501   0.0012973  -0.0018456   0.0003804   0.0001326
    2   0.0004596   0.0012087  -0.0000372  -0.0018229   0.0021951  -0.0024937
    3   0.0003267  -0.0000570  -0.0005429   0.0009009   0.0011856   0.0014245
            7           8           9          10          11          12
    1   0.0072935   0.0022554  -0.0002398   0.0021809   0.0001016   0.0005560
    2   0.0149486  -0.0019519   0.0009406  -0.0019401  -0.0007688   0.0010131
    3  -0.0012734  -0.0028172   0.0023107   0.0000483  -0.0013186  -0.0005632
           13          14          15          16          17          18
    1  -0.0031750  -0.0079519   0.0201102  -0.0061172  -0.0018467  -0.0112194
    2  -0.0065106  -0.0131702   0.0041211   0.0011478   0.0020623   0.0006787
    3   0.0121403  -0.0071858  -0.0248705  -0.0011627   0.0006611   0.0149206
           19          20          21          22          23          24
    1   0.0001958  -0.0002984  -0.0000025  -0.0001381   0.0000496  -0.0005710
    2   0.0001675   0.0003401  -0.0004943   0.0008244  -0.0003601  -0.0001617
    3   0.0004591  -0.0001091   0.0000030  -0.0004043  -0.0000751   0.0001783
           25          26          27          28          29          30
    1   0.0000702   0.0001402  -0.0000026   0.0000340   0.0000027  -0.0000440
    2  -0.0000726  -0.0000411  -0.0000445   0.0001119   0.0000096  -0.0000475
    3  -0.0001551   0.0000835   0.0000287   0.0000214  -0.0000279   0.0000242
           31          32          33          34          35          36
    1   0.0000279  -0.0002272  -0.0009349   0.0001265  -0.0001488  -0.0000368
    2  -0.0000364  -0.0024398   0.0013615  -0.0005783   0.0002063   0.0000260
    3  -0.0000287  -0.0012651  -0.0007022  -0.0002020   0.0002548   0.0001147
           37          38          39          40          41          42
    1   0.0000748  -0.0000421  -0.0001020  -0.0002995   0.0019735   0.0001687
    2   0.0003065   0.0000758  -0.0002247  -0.0003921   0.0027187   0.0000677
    3  -0.0004184   0.0001730   0.0000117  -0.0002018  -0.0027462   0.0001684
           43          44          45          46          47          48
    1  -0.0000278  -0.0000194   0.0000143   0.0000507  -0.0000792  -0.0002664
    2  -0.0000500   0.0000398  -0.0000190   0.0000270  -0.0000355   0.0003765
    3  -0.0000303  -0.0000624  -0.0000656  -0.0000505  -0.0000207   0.0003315
           49          50          51          52          53          54
    1   0.0001356  -0.0005972  -0.0017795  -0.0052315  -0.0006953  -0.0000038
    2  -0.0001110  -0.0006144   0.0008301  -0.0046544  -0.0003999   0.0009332
    3   0.0001936   0.0003245   0.0044396   0.0066862  -0.0000390   0.0000740
           55          56
    1   0.0007399   0.0024091
    2   0.0010885   0.0011862
    3   0.0018119  -0.0029049
 Max gradient component =       2.487E-02
 RMS gradient           =       3.831E-03
 Gradient time:  CPU 31.46 s  wall 0.66 s
 Geometry Optimization Parameters
   NAtoms,    NIC,     NZ,  NCons,   NDum,   NFix, NCnnct, MaxDiis
       56     458       0       0       0       0       0       0

 Cartesian Hessian Update
 Hessian Updated using BFGS Update


** GEOMETRY OPTIMIZATION IN DELOCALIZED INTERNAL COORDINATES **
   Searching for a Minimum

   Optimization Cycle:   2

                       Coordinates (Angstroms)
     ATOM                X               Y               Z
      1  O        -3.3326928637    2.4795638846    1.5203234453
      2  C        -2.8676624940    1.6700579513    0.6890056874
      3  C        -3.6752622816    0.9638864749   -0.4658899385
      4  C        -3.5285091959   -0.6188698431   -0.5625753606
      5  C        -2.3830502128   -1.2302388899    0.3143198378
      6  O        -1.1954671083   -1.2375820768   -0.4828173859
      7  C        -0.0218313200   -1.6633771476    0.3168395221
      8  C         0.8369824351   -2.6871044962   -0.5221180559
      9  O         2.0879707424   -2.0524298435   -1.0023695821
     10  C         3.0171104322   -1.8595340945    0.0711322073
     11  C         4.1727809341   -0.9691683843   -0.5098319563
     12  C         3.6842269989    0.5026604220   -0.8605037419
     13  C         2.1974513344    0.7667505939   -0.4421719141
     14  O         1.6531277928    0.3975624648    0.6284242015
     15  O        -1.4919877150    1.2831223354    0.6461545492
     16  O         1.5491190603    1.4995497632   -1.4727047544
     17  O         2.8780472148   -2.3032324712    1.2293231230
     18  C         0.1465428449    1.8329270881   -1.1139082854
     19  C         5.2988881608   -0.6725631888    0.5632571225
     20  C         6.5792492874   -0.1493343402   -0.1950951616
     21  C         6.1177002553    1.2989181211   -0.6026411262
     22  C         4.6772694452    1.3572845246    0.0442218843
     23  O         4.8009039956    0.5339317510    1.2669354874
     24  H         4.5743988816   -1.4673750820   -1.4102218119
     25  H         3.7927007770    0.7358252403   -1.9340089351
     26  H         5.4652234351   -1.4960502698    1.2846163103
     27  H         7.4440144878   -0.1194738735    0.4867878978
     28  H         6.8365146669   -0.7752079911   -1.0646272072
     29  H         6.7682534478    2.0713683586   -0.1627646480
     30  H         6.0860522642    1.4433118102   -1.6944550367
     31  H         4.3130588157    2.3729696739    0.2933476173
     32  O        -2.4711724171   -1.7016239095    1.4691165871
     33  C        -0.7459547959    1.8899256997    1.7779120461
     34  C        -5.2190251799    1.0892718100   -0.1337235412
     35  C        -6.0699322767    0.6740471904   -1.3970019352
     36  C        -5.9451573607   -0.8948022042   -1.3519324270
     37  C        -4.9806851133   -1.0811833973   -0.1160464385
     38  O        -5.4258775112   -0.0252732380    0.8214103002
     39  H        -3.4055283005    1.4400222341   -1.4268838383
     40  H        -3.3285876170   -0.9062466790   -1.6104947763
     41  H         0.3200361249    1.6645897822    1.5652197888
     42  H        -5.4885002300    2.0542306048    0.3381724669
     43  H        -7.1156714762    1.0003942837   -1.2822144800
     44  H        -5.6670842316    1.1054988251   -2.3274892067
     45  H        -6.9190234510   -1.3705662648   -1.1543997223
     46  H        -5.5257213178   -1.3175739857   -2.2789412152
     47  H        -5.0132869904   -2.0729706932    0.3752011863
     48  H        -1.0547871726    1.4357171237    2.7403178313
     49  H        -0.9144467115    2.9837862336    1.8298382369
     50  H        -0.3485725017    2.1065941559   -2.0635775504
     51  H         0.1222093103    2.7055291056   -0.4294687908
     52  H        -0.3993534458    0.9923777000   -0.6301110476
     53  H         1.0567734378   -3.5980638004    0.0749229647
     54  H         0.2846360149   -2.9720114762   -1.4403333576
     55  H        -0.3728909865   -2.1032983099    1.2739977995
     56  H         0.6001014680   -0.7622927412    0.5246853397
   Point Group: c1    Number of degrees of freedom:   162


   Energy is  -1510.275219156

 Hessian Updated using BFGS Update

149 Hessian modes will be used to form the next step
  Hessian Eigenvalues:
     0.000902    0.002064    0.002677    0.002695    0.003492    0.004321
     0.004366    0.004377    0.004450    0.004656    0.004714    0.006125
     0.006826    0.006833    0.011427    0.011715    0.012867    0.021485
     0.021635    0.024909    0.026150    0.030469    0.030878    0.035256
     0.035517    0.039698    0.040245    0.041620    0.041836    0.043078
     0.044629    0.046190    0.047394    0.047946    0.048900    0.050794
     0.051256    0.052015    0.053353    0.054075    0.054273    0.054921
     0.055348    0.055756    0.056346    0.057677    0.058608    0.060459
     0.060712    0.063628    0.063868    0.064178    0.064296    0.069776
     0.070331    0.072939    0.073111    0.083422    0.092196    0.092771
     0.092865    0.094808    0.095330    0.095760    0.097853    0.101568
     0.102885    0.104113    0.109961    0.110978    0.111812    0.113279
     0.120442    0.131281    0.136744    0.144245    0.157524    0.159992
     0.159996    0.162622    0.163628    0.174288    0.218829    0.220210
     0.221297    0.224837    0.225212    0.237877    0.238244    0.239908
     0.239966    0.242442    0.246711    0.247671    0.249332    0.249621
     0.249867    0.249972    0.249984    0.253650    0.253808    0.254133
     0.255274    0.259563    0.262300    0.262778    0.291996    0.292555
     0.306279    0.306769    0.321411    0.322842    0.324798    0.325605
     0.325864    0.326738    0.327268    0.328009    0.328144    0.328640
     0.328775    0.328863    0.328907    0.330411    0.330914    0.331487
     0.331755    0.332572    0.334672    0.334801    0.334828    0.334894
     0.334947    0.334990    0.335151    0.335188    0.338844    0.339823
     0.341407    0.342732    0.405890    0.408269    0.410197    0.423062
     0.808869    0.830900    0.832236    0.839614    5.847240

 Minimum Search - Taking Simple RFO Step
 Searching for Lamda that Minimizes Along All modes
 Value Taken    Lamda =  -0.05362473
 Step Taken.  Stepsize is  0.208725

                             Maximum     Tolerance    Cnvgd?
         Gradient           0.381037      0.000300      NO
         Displacement       0.083650      0.001200      NO
         Energy change      0.017310      0.000001      NO


 New Cartesian Coordinates Obtained by Inverse Iteration

 Displacement from previous Coordinates is:  3.218459
 Adding empirical dispersion correction 
 ----------------------------------------------------------------
 Doing -D3(op) with
 s6 =   1.00000
 s8 =   0.78311
 a1 =   0.30000
 a2 =   4.25000
 n  =  10.00000
 -D3 energy without 3body term =     -0.0720120713 hartrees
 ----------------------------------------------------------------
             Standard Nuclear Orientation (Angstroms)
    I     Atom           X                Y                Z
 ----------------------------------------------------------------
    1      O      -3.6306812442     2.4042445273     1.7439794936
    2      C      -3.0730740957     1.6842314640     0.8875969523
    3      C      -3.7774170309     1.0008912280    -0.3460220199
    4      C      -3.5243030672    -0.5627571234    -0.5232144137
    5      C      -2.3754148526    -1.1506837519     0.3653205556
    6      O      -1.1812656126    -1.1414497357    -0.4246950502
    7      C      -0.0210021484    -1.6139385548     0.3686205905
    8      C       0.8239296362    -2.6339320884    -0.4909576868
    9      O       2.0855882909    -2.0418949252    -1.0042628961
   10      C       3.0359483490    -1.8653840434     0.0536499533
   11      C       4.2141522437    -1.0023804504    -0.5315343679
   12      C       3.7864403516     0.4694427373    -0.9563016318
   13      C       2.2983392974     0.8126060489    -0.6171951650
   14      O       1.6925036931     0.5317311214     0.4471453389
   15      O      -1.6788833324     1.3717295089     0.9070609510
   16      O       1.7403603988     1.5192909645    -1.7171137832
   17      O       2.8805040071    -2.2765304292     1.2217085063
   18      C       0.3407493064     1.9430116050    -1.4612772407
   19      C       5.3180080135    -0.7008100046     0.5621389301
   20      C       6.6368789774    -0.2462973934    -0.1734867514
   21      C       6.2355811969     1.1980069924    -0.6480965505
   22      C       4.7782470450     1.3261726997    -0.0512010311
   23      O       4.8366071356     0.5462408612     1.2055832844
   24      H       4.6249594166    -1.5390574666    -1.4053015202
   25      H       3.9413274861     0.6513741140    -2.0340107692
   26      H       5.4386158686    -1.5029060306     1.3159876500
   27      H       7.4807987881    -0.2183340228     0.5341374268
   28      H       6.8998601730    -0.9122018874    -1.0109954193
   29      H       6.8969582625     1.9658717850    -0.2162467241
   30      H       6.2426032394     1.3021942942    -1.7449805247
   31      H       4.4415964443     2.3626004420     0.1458724546
   32      O      -2.4767235439    -1.6800061750     1.4936706759
   33      C      -1.0365208859     1.9392518728     2.1197492487
   34      C      -5.3377057221     1.0143950742    -0.0760419249
   35      C      -6.1097762541     0.6149972559    -1.3936901117
   36      C      -5.8876518571    -0.9432591581    -1.4205148193
   37      C      -4.9609657488    -1.1334650041    -0.1563639870
   38      O      -5.5090811894    -0.1587496417     0.8129343402
   39      H      -3.4995776522     1.5469123324    -1.2667279395
   40      H      -3.2727869552    -0.7893085526    -1.5748479242
   41      H       0.0508678310     1.7809908666     1.9628837843
   42      H      -5.6864506545     1.9340144157     0.4326332352
   43      H      -7.1778074374     0.8700137611    -1.3071418536
   44      H      -5.6991788493     1.1183792631    -2.2837019081
   45      H      -6.8363720886    -1.4873712377    -1.2872419375
   46      H      -5.4068711800    -1.2914588218    -2.3487029716
   47      H      -4.9491260330    -2.1495643766     0.2833874692
   48      H      -1.3789338587     1.4083996770     3.0301520666
   49      H      -1.2661127938     3.0176639395     2.2288980257
   50      H      -0.0828631977     2.1898698997    -2.4519821226
   51      H       0.3254302782     2.8514075825    -0.8252401485
   52      H      -0.2772832810     1.1595888856    -0.9697115192
   53      H       1.0276358691    -3.5564863258     0.0938086849
   54      H       0.2560506516    -2.8974416102    -1.4060033945
   55      H      -0.3777664791    -2.0685822891     1.3166900837
   56      H       0.6146765824    -0.7270476048     0.5953566178
 ----------------------------------------------------------------
 Molecular Point Group                 C1    NOp =  1
 Largest Abelian Subgroup              C1    NOp =  1
 Nuclear Repulsion Energy =  3207.2239363003 hartrees
 There are      113 alpha and      113 beta electrons
 Applying Cartesian multipole field
    Component          Value
    ---------          -----
     (2,0,0)        1.00000E-12
     (0,2,0)        2.00000E-11
     (0,0,2)       -3.00000E-11
 Nucleus-field energy     =     0.0000000193 hartrees
 Requested basis set is STO-3G
 There are 86 shells and 176 basis functions
 A cutoff of  1.0D-12 yielded   2287 shell pairs
 There are     10714 function pairs
 Smallest overlap matrix eigenvalue = 2.13E-01
 Guess MOs from SCF MO coefficient file
 Reading MOs from coefficient file
 Reading MOs from coefficient file
 A restricted hybrid HF-DFT SCF calculation will be
 performed using Pulay DIIS extrapolation
 Exchange:     0.2000 Hartree-Fock + 0.0800 Slater + 0.7200 B88
 Correlation:  0.1900 VWN1RPA + 0.8100 LYP
 Using SG-1 standard quadrature grid
 Dispersion:   Grimme D3
 SCF converges when DIIS error is below 1.0E-08
 Geometry optimization detected.  Setting ReadMinima to 0
 Setting SaveMinima to 0
 using 48 threads for integral computing
 -------------------------------------------------------
 OpenMP Integral computing Module                
 Release: version 1.0, May 2013, Q-Chem Inc. Pittsburgh 
 -------------------------------------------------------
 -------------------------------------------------------
 OpenMP BLAS3 based DFT computing Module                
 Release: version 1.0, May 2013, Q-Chem Inc. Pittsburgh 
 -------------------------------------------------------
 ---------------------------------------
  Cycle       Energy         DIIS Error
 ---------------------------------------
    1   -1510.2127399305      4.91E-03
    2   -1510.2877479896      4.43E-04
    3   -1510.2877598812      5.15E-04
    4   -1510.2888782538      2.32E-04
    5   -1510.2890983345      6.47E-05
    6   -1510.2891127729      2.93E-05
    7   -1510.2891161094      1.03E-05
    8   -1510.2891165524      3.14E-06
    9   -1510.2891165984      4.30E-07
   10   -1510.2891165993      2.18E-07
   11   -1510.2891165994      1.37E-07
   12   -1510.2891165995      3.79E-08
   13   -1510.2891165995      1.15E-08
   14   -1510.2891165996      4.78E-09 Convergence criterion met
 ---------------------------------------
 SCF time:  CPU 104.40 s  wall 2.18 s
 SCF   energy in the final basis set = -1510.28911660
 Total energy in the final basis set = -1510.28911660
 
 --------------------------------------------------------------
 
                    Orbital Energies (a.u.)
 --------------------------------------------------------------
 
 Alpha MOs
 -- Occupied --
-18.950 -18.937 -18.926 -18.920 -18.891 -18.889 -18.884 -18.877
-18.876 -18.866 -10.113 -10.099 -10.098 -10.093 -10.065 -10.065
-10.065 -10.061 -10.060 -10.056 -10.055 -10.043 -10.039 -10.038
-10.037 -10.034 -10.024 -10.022 -10.019 -10.018  -1.023  -1.013
 -1.008  -1.000  -0.973  -0.967  -0.948  -0.936  -0.936  -0.927
 -0.767  -0.761  -0.728  -0.722  -0.712  -0.704  -0.689  -0.669
 -0.660  -0.616  -0.598  -0.579  -0.549  -0.543  -0.539  -0.535
 -0.516  -0.507  -0.478  -0.476  -0.464  -0.457  -0.451  -0.449
 -0.436  -0.431  -0.423  -0.416  -0.414  -0.409  -0.407  -0.406
 -0.396  -0.381  -0.373  -0.365  -0.363  -0.358  -0.354  -0.348
 -0.347  -0.342  -0.335  -0.333  -0.328  -0.327  -0.323  -0.313
 -0.309  -0.307  -0.305  -0.303  -0.295  -0.285  -0.283  -0.272
 -0.270  -0.259  -0.251  -0.248  -0.238  -0.237  -0.231  -0.188
 -0.179  -0.178  -0.167  -0.157  -0.154  -0.152  -0.148  -0.146
 -0.141
 -- Virtual --
  0.079   0.097   0.104   0.111   0.226   0.230   0.246   0.252
  0.259   0.269   0.280   0.287   0.298   0.307   0.325   0.332
  0.334   0.340   0.346   0.347   0.355   0.357   0.369   0.375
  0.381   0.383   0.389   0.396   0.404   0.407   0.411   0.413
  0.416   0.417   0.418   0.420   0.425   0.426   0.428   0.430
  0.435   0.437   0.437   0.440   0.447   0.450   0.454   0.463
  0.469   0.483   0.490   0.500   0.504   0.507   0.531   0.537
  0.543   0.549   0.554   0.635   0.645   0.651   0.657
 --------------------------------------------------------------
 
          Ground-State Mulliken Net Atomic Charges

     Atom                 Charge (a.u.)
  ----------------------------------------
      1 O                    -0.210072
      2 C                     0.209422
      3 C                    -0.077978
      4 C                    -0.080652
      5 C                     0.211195
      6 O                    -0.180601
      7 C                    -0.081276
      8 C                    -0.053001
      9 O                    -0.179514
     10 C                     0.210695
     11 C                    -0.078840
     12 C                    -0.077756
     13 C                     0.221737
     14 O                    -0.217129
     15 O                    -0.172681
     16 O                    -0.163180
     17 O                    -0.206788
     18 C                    -0.134810
     19 C                     0.024605
     20 C                    -0.143671
     21 C                    -0.143778
     22 C                     0.025443
     23 O                    -0.185762
     24 H                     0.085130
     25 H                     0.088666
     26 H                     0.090862
     27 H                     0.078918
     28 H                     0.073852
     29 H                     0.078781
     30 H                     0.074236
     31 H                     0.082303
     32 O                    -0.215973
     33 C                    -0.129941
     34 C                     0.023786
     35 C                    -0.145218
     36 C                    -0.143209
     37 C                     0.024658
     38 O                    -0.188027
     39 H                     0.081787
     40 H                     0.083465
     41 H                     0.100365
     42 H                     0.090866
     43 H                     0.078204
     44 H                     0.071899
     45 H                     0.077941
     46 H                     0.072125
     47 H                     0.086610
     48 H                     0.093699
     49 H                     0.090009
     50 H                     0.089779
     51 H                     0.084599
     52 H                     0.111709
     53 H                     0.089254
     54 H                     0.089988
     55 H                     0.095379
     56 H                     0.117890
  ----------------------------------------
  Sum of atomic charges =    -0.000000

 -----------------------------------------------------------------
                    Cartesian Multipole Moments
 -----------------------------------------------------------------
    Charge (ESU x 10^10)
                -0.0000
    Dipole Moment (Debye)
         X       1.9487      Y       1.1435      Z      -4.7348
       Tot       5.2463
    Quadrupole Moments (Debye-Ang)
        XX    -152.1065     XY       1.8250     YY    -155.3105
        XZ       6.2224     YZ       1.5913     ZZ    -166.2235
    Octopole Moments (Debye-Ang^2)
       XXX      97.3998    XXY      -9.1480    XYY       5.7867
       YYY      -1.8065    XXZ     -93.1792    XYZ       7.7896
       YYZ      -4.9924    XZZ      -1.8876    YZZ       6.4466
       ZZZ      12.7552
    Hexadecapole Moments (Debye-Ang^3)
      XXXX  -14424.7714   XXXY     177.3911   XXYY   -2828.7690
      XYYY     220.3703   YYYY   -2111.2309   XXXZ     204.9810
      XXYZ     -40.9822   XYYZ      44.9151   YYYZ     -39.9267
      XXZZ   -2804.9271   XYZZ      59.7575   YYZZ    -582.0157
      XZZZ      40.6058   YZZZ     -41.5729   ZZZZ   -1166.8253
 -----------------------------------------------------------------
 Calculating analytic gradient of the SCF energy
 Gradient of SCF Energy
            1           2           3           4           5           6
    1   0.0000463   0.0004543   0.0005318  -0.0002786   0.0014901  -0.0004576
    2  -0.0005220   0.0017113  -0.0000066  -0.0048874   0.0072774  -0.0030268
    3   0.0001789  -0.0019371   0.0006449  -0.0014602   0.0036847   0.0001291
            7           8           9          10          11          12
    1   0.0000192   0.0023464   0.0011517   0.0048547   0.0000668   0.0002203
    2   0.0064287   0.0004774  -0.0001991  -0.0085241   0.0022961   0.0013749
    3  -0.0018905   0.0008511  -0.0003337  -0.0002087   0.0002963  -0.0004463
           13          14          15          16          17          18
    1  -0.0002080  -0.0045411  -0.0000260   0.0010429  -0.0027172   0.0007676
    2   0.0013198  -0.0107039   0.0028459   0.0006662   0.0027189   0.0002892
    3  -0.0018621   0.0004940   0.0023126   0.0007692  -0.0000918  -0.0016339
           19          20          21          22          23          24
    1  -0.0005385  -0.0002332  -0.0000712  -0.0000713  -0.0002360  -0.0014021
    2  -0.0000773   0.0005993  -0.0006159   0.0006780  -0.0003827   0.0001689
    3   0.0004101  -0.0002570   0.0001852  -0.0000978   0.0005079   0.0000203
           25          26          27          28          29          30
    1  -0.0008029   0.0004763  -0.0000065   0.0000100   0.0000395  -0.0000684
    2   0.0000971  -0.0001851  -0.0000193   0.0000944   0.0000163  -0.0001085
    3  -0.0001191  -0.0000795   0.0000610  -0.0000075  -0.0000047  -0.0000307
           31          32          33          34          35          36
    1   0.0002801  -0.0006031  -0.0017761  -0.0000517   0.0004636  -0.0003038
    2   0.0001565  -0.0043552   0.0023024  -0.0004175   0.0003173   0.0002041
    3  -0.0002881  -0.0025890   0.0057830   0.0002438  -0.0001137   0.0002816
           37          38          39          40          41          42
    1   0.0001244   0.0001354  -0.0002351  -0.0008902   0.0021071   0.0000924
    2   0.0012581   0.0005142  -0.0004119  -0.0015042  -0.0003762  -0.0000971
    3  -0.0005023   0.0002593  -0.0001950  -0.0001338  -0.0021102   0.0002341
           43          44          45          46          47          48
    1   0.0000010  -0.0001574  -0.0000190   0.0001445   0.0000488  -0.0010133
    2  -0.0000742  -0.0000025   0.0000414  -0.0000587   0.0000695   0.0003732
    3   0.0000211  -0.0000204  -0.0000494  -0.0000774   0.0000188  -0.0007455
           49          50          51          52          53          54
    1  -0.0009455   0.0002258   0.0003465  -0.0018006  -0.0009935   0.0010809
    2  -0.0005777   0.0000823   0.0000386   0.0008618  -0.0004710   0.0017101
    3  -0.0001081   0.0000781  -0.0005498  -0.0003969  -0.0000506  -0.0003476
           55          56
    1   0.0016034   0.0002760
    2   0.0013104  -0.0006950
    3   0.0020476  -0.0007744
 Max gradient component =       1.070E-02
 RMS gradient           =       1.817E-03
 Gradient time:  CPU 29.86 s  wall 0.63 s
 Geometry Optimization Parameters
   NAtoms,    NIC,     NZ,  NCons,   NDum,   NFix, NCnnct, MaxDiis
       56     458       0       0       0       0       0       0

 Cartesian Hessian Update
 Hessian Updated using BFGS Update


** GEOMETRY OPTIMIZATION IN DELOCALIZED INTERNAL COORDINATES **
   Searching for a Minimum

   Optimization Cycle:   3

                       Coordinates (Angstroms)
     ATOM                X               Y               Z
      1  O        -3.6306812442    2.4042445273    1.7439794936
      2  C        -3.0730740957    1.6842314640    0.8875969523
      3  C        -3.7774170309    1.0008912280   -0.3460220199
      4  C        -3.5243030672   -0.5627571234   -0.5232144137
      5  C        -2.3754148526   -1.1506837519    0.3653205556
      6  O        -1.1812656126   -1.1414497357   -0.4246950502
      7  C        -0.0210021484   -1.6139385548    0.3686205905
      8  C         0.8239296362   -2.6339320884   -0.4909576868
      9  O         2.0855882909   -2.0418949252   -1.0042628961
     10  C         3.0359483490   -1.8653840434    0.0536499533
     11  C         4.2141522437   -1.0023804504   -0.5315343679
     12  C         3.7864403516    0.4694427373   -0.9563016318
     13  C         2.2983392974    0.8126060489   -0.6171951650
     14  O         1.6925036931    0.5317311214    0.4471453389
     15  O        -1.6788833324    1.3717295089    0.9070609510
     16  O         1.7403603988    1.5192909645   -1.7171137832
     17  O         2.8805040071   -2.2765304292    1.2217085063
     18  C         0.3407493064    1.9430116050   -1.4612772407
     19  C         5.3180080135   -0.7008100046    0.5621389301
     20  C         6.6368789774   -0.2462973934   -0.1734867514
     21  C         6.2355811969    1.1980069924   -0.6480965505
     22  C         4.7782470450    1.3261726997   -0.0512010311
     23  O         4.8366071356    0.5462408612    1.2055832844
     24  H         4.6249594166   -1.5390574666   -1.4053015202
     25  H         3.9413274861    0.6513741140   -2.0340107692
     26  H         5.4386158686   -1.5029060306    1.3159876500
     27  H         7.4807987881   -0.2183340228    0.5341374268
     28  H         6.8998601730   -0.9122018874   -1.0109954193
     29  H         6.8969582625    1.9658717850   -0.2162467241
     30  H         6.2426032394    1.3021942942   -1.7449805247
     31  H         4.4415964443    2.3626004420    0.1458724546
     32  O        -2.4767235439   -1.6800061750    1.4936706759
     33  C        -1.0365208859    1.9392518728    2.1197492487
     34  C        -5.3377057221    1.0143950742   -0.0760419249
     35  C        -6.1097762541    0.6149972559   -1.3936901117
     36  C        -5.8876518571   -0.9432591581   -1.4205148193
     37  C        -4.9609657488   -1.1334650041   -0.1563639870
     38  O        -5.5090811894   -0.1587496417    0.8129343402
     39  H        -3.4995776522    1.5469123324   -1.2667279395
     40  H        -3.2727869552   -0.7893085526   -1.5748479242
     41  H         0.0508678310    1.7809908666    1.9628837843
     42  H        -5.6864506545    1.9340144157    0.4326332352
     43  H        -7.1778074374    0.8700137611   -1.3071418536
     44  H        -5.6991788493    1.1183792631   -2.2837019081
     45  H        -6.8363720886   -1.4873712377   -1.2872419375
     46  H        -5.4068711800   -1.2914588218   -2.3487029716
     47  H        -4.9491260330   -2.1495643766    0.2833874692
     48  H        -1.3789338587    1.4083996770    3.0301520666
     49  H        -1.2661127938    3.0176639395    2.2288980257
     50  H        -0.0828631977    2.1898698997   -2.4519821226
     51  H         0.3254302782    2.8514075825   -0.8252401485
     52  H        -0.2772832810    1.1595888856   -0.9697115192
     53  H         1.0276358691   -3.5564863258    0.0938086849
     54  H         0.2560506516   -2.8974416102   -1.4060033945
     55  H        -0.3777664791   -2.0685822891    1.3166900837
     56  H         0.6146765824   -0.7270476048    0.5953566178
   Point Group: c1    Number of degrees of freedom:   162


   Energy is  -1510.289116600

 Hessian Updated using BFGS Update

152 Hessian modes will be used to form the next step
  Hessian Eigenvalues:
     0.001072    0.002001    0.002064    0.002687    0.002695    0.003606
     0.004321    0.004367    0.004377    0.004465    0.004654    0.004714
     0.006129    0.006823    0.006850    0.011396    0.011715    0.012865
     0.021470    0.021636    0.024876    0.026148    0.030477    0.030875
     0.035274    0.035524    0.039688    0.040181    0.041619    0.041794
     0.042859    0.044757    0.046050    0.047454    0.047940    0.048894
     0.050796    0.051256    0.052009    0.053355    0.054077    0.054274
     0.054922    0.055348    0.055754    0.056332    0.057673    0.058609
     0.060449    0.060702    0.063628    0.063868    0.064178    0.064296
     0.069777    0.070331    0.072940    0.073110    0.083323    0.092146
     0.092780    0.092858    0.094866    0.095330    0.095767    0.097853
     0.101584    0.102888    0.104110    0.110007    0.110985    0.111879
     0.113402    0.120610    0.131009    0.136736    0.144411    0.157521
     0.159990    0.159996    0.160003    0.162654    0.163693    0.173452
     0.218939    0.219982    0.221312    0.224947    0.225248    0.237798
     0.238248    0.239908    0.239965    0.241573    0.246709    0.247678
     0.248918    0.249470    0.249866    0.249972    0.249984    0.250117
     0.253650    0.253808    0.254103    0.255255    0.259626    0.262311
     0.262778    0.291979    0.292554    0.306284    0.306779    0.321408
     0.322844    0.324798    0.325605    0.325860    0.326737    0.327268
     0.328009    0.328144    0.328640    0.328775    0.328863    0.328907
     0.330411    0.330914    0.331487    0.331754    0.332572    0.334672
     0.334801    0.334828    0.334895    0.334947    0.334990    0.335152
     0.335188    0.338899    0.339813    0.341566    0.342731    0.405876
     0.408076    0.410177    0.423039    0.808826    0.830899    0.832234
     0.839613    5.319826

 Minimum Search - Taking Simple RFO Step
 Searching for Lamda that Minimizes Along All modes
 Value Taken    Lamda =  -0.04283834
 Calculated Step too Large.  Step scaled by  0.354852
 Step Taken.  Stepsize is  0.300000

                             Maximum     Tolerance    Cnvgd?
         Gradient           0.050142      0.000300      NO
         Displacement       0.194386      0.001200      NO
         Energy change     -0.013897      0.000001      NO


 New Cartesian Coordinates Obtained by Inverse Iteration

 Displacement from previous Coordinates is:  3.959846
 Adding empirical dispersion correction 
 ----------------------------------------------------------------
 Doing -D3(op) with
 s6 =   1.00000
 s8 =   0.78311
 a1 =   0.30000
 a2 =   4.25000
 n  =  10.00000
 -D3 energy without 3body term =     -0.0710501180 hartrees
 ----------------------------------------------------------------
             Standard Nuclear Orientation (Angstroms)
    I     Atom           X                Y                Z
 ----------------------------------------------------------------
    1      O      -3.6127890751     2.3300075622     1.6187925541
    2      C      -3.1234001185     1.5647190475     0.7599078930
    3      C      -3.8930494111     0.8772144673    -0.4277948932
    4      C      -3.6731701415    -0.6913445521    -0.5489470668
    5      C      -2.5248199780    -1.2515512955     0.3580603454
    6      O      -1.3151280688    -1.2165754287    -0.4055460275
    7      C      -0.1569632546    -1.6133788373     0.4319850467
    8      C       0.7757850830    -2.5751646533    -0.3962685563
    9      O       2.0140437187    -1.9143809900    -0.8904973362
   10      C       2.9702375239    -1.6935849891     0.1574988969
   11      C       4.1870678231    -0.9245665055    -0.4869270578
   12      C       3.8831754916     0.5789281641    -0.9183608295
   13      C       2.4756065505     1.1042012458    -0.4870369631
   14      O       1.9412918794     0.9530578520     0.6388487054
   15      O      -1.7453765932     1.1855367756     0.7168918086
   16      O       1.9065422997     1.8341673380    -1.5648234443
   17      O       2.8457390497    -2.1036528958     1.3297826734
   18      C       0.5933242053     2.4172212707    -1.1926503968
   19      C       5.3701447350    -0.7100278719     0.5438213307
   20      C       6.6877425852    -0.4038878356    -0.2677646657
   21      C       6.4087045039     1.0627518845    -0.7584961132
   22      C       5.0057768544     1.3476799555    -0.0915655092
   23      O       5.0501757386     0.5910227556     1.1803437716
   24      H       4.5074734776    -1.5117678003    -1.3664064451
   25      H       3.9915152052     0.7198330316    -2.0078249417
   26      H       5.4527039886    -1.5070248312     1.3080378223
   27      H       7.5660821186    -0.4468025521     0.3958307894
   28      H       6.8391047677    -1.1095800185    -1.1003226228
   29      H       7.1648837171     1.7687051297    -0.3799102925
   30      H       6.3683765572     1.1438237244    -1.8566084156
   31      H       4.7853527292     2.4164676700     0.0967163637
   32      O      -2.6227906289    -1.7180715172     1.5141879069
   33      C      -1.0036460426     1.7468239881     1.8730824561
   34      C      -5.4471671038     0.9343689224    -0.1289622604
   35      C      -6.2492507054     0.5056612096    -1.4197805138
   36      C      -6.0569140902    -1.0577526421    -1.3984635798
   37      C      -5.1139694721    -1.2240367192    -0.1429385948
   38      O      -5.6279225521    -0.2059333421     0.8003145832
   39      H      -3.6204289703     1.3847720640    -1.3718368641
   40      H      -3.4352539808    -0.9566648392    -1.5945304713
   41      H       0.0621010377     1.5254641205     1.6621983204
   42      H      -5.7681480012     1.8773196502     0.3546286260
   43      H      -7.3105626108     0.7846970902    -1.3249873727
   44      H      -5.8436462649     0.9707183819    -2.3326597059
   45      H      -7.0134665013    -1.5786009788    -1.2322288227
   46      H      -5.5981400690    -1.4456649795    -2.3219393304
   47      H      -5.1137937901    -2.2238981662     0.3327868457
   48      H      -1.3179664996     1.2587188650     2.8172095534
   49      H      -1.1663977379     2.8390884826     1.9652510459
   50      H       0.0997811425     2.6811876665    -2.1459466402
   51      H       0.7372197262     3.3380511910    -0.5913180133
   52      H      -0.0477172141     1.7164944883    -0.6138394325
   53      H       1.0226208751    -3.4820779559     0.1961182529
   54      H       0.2458744785    -2.8765933232    -1.3227234143
   55      H      -0.5169679390    -2.0854047066     1.3698556021
   56      H       0.4140207389    -0.6864872533     0.6719156115
 ----------------------------------------------------------------
 Molecular Point Group                 C1    NOp =  1
 Largest Abelian Subgroup              C1    NOp =  1
 Nuclear Repulsion Energy =  3180.3995413830 hartrees
 There are      113 alpha and      113 beta electrons
 Applying Cartesian multipole field
    Component          Value
    ---------          -----
     (2,0,0)        1.00000E-12
     (0,2,0)        2.00000E-11
     (0,0,2)       -3.00000E-11
 Nucleus-field energy     =     0.0000000231 hartrees
 Requested basis set is STO-3G
 There are 86 shells and 176 basis functions
 A cutoff of  1.0D-12 yielded   2269 shell pairs
 There are     10618 function pairs
 Smallest overlap matrix eigenvalue = 2.13E-01
 Guess MOs from SCF MO coefficient file
 Reading MOs from coefficient file
 Reading MOs from coefficient file
 A restricted hybrid HF-DFT SCF calculation will be
 performed using Pulay DIIS extrapolation
 Exchange:     0.2000 Hartree-Fock + 0.0800 Slater + 0.7200 B88
[...]
      7  C        -0.0966628821   -1.7130049216    0.5858622791
      8  C         0.8579271241   -2.6783416893   -0.1978368401
      9  O         1.9654369456   -1.9229548402   -0.8354240614
     10  C         3.0893419294   -1.8577397355    0.0558734290
     11  C         4.1935774265   -0.9517356700   -0.5929064306
     12  C         3.7067920344    0.5248859952   -0.9175356342
     13  C         2.1928915335    0.7670741641   -0.5895743527
     14  O         1.6565071298    0.7384312661    0.5452804554
     15  O        -1.6638573070    1.4063942449    0.8594677636
     16  O         1.5227401923    1.0410578582   -1.8113791857
     17  O         3.1549947154   -2.4568852406    1.1503469514
     18  C         0.0619812783    1.2072655300   -1.6038087352
     19  C         5.3486442722   -0.6700655914    0.4521078392
     20  C         6.5965851069   -0.0810585588   -0.3134871580
     21  C         6.1060103583    1.3855576573   -0.6110422559
     22  C         4.6655835748    1.3615926234    0.0364991587
     23  O         4.8283459475    0.4869480269    1.2184779863
     24  H         4.5650829166   -1.4512158688   -1.5065147165
     25  H         3.8660612103    0.7714583014   -1.9814933982
     26  H         5.5506354081   -1.5212847884    1.1308873380
     27  H         7.4848482139   -0.0852106953    0.3379491366
     28  H         6.8278550607   -0.6472525289   -1.2300740116
     29  H         6.7403278494    2.1334745241   -0.1092567239
     30  H         6.0740542349    1.6140425010   -1.6883005627
     31  H         4.2655833993    2.3492012651    0.3376483281
     32  O        -2.5553706960   -1.3029832335    1.5380968629
     33  C        -0.8208631800    1.7624833988    2.0227203009
     34  C        -5.3634309535    0.9706445362    0.1041575143
     35  C        -6.1166570992    0.8766393951   -1.2791170463
     36  C        -5.6907506088   -0.5620595169   -1.7574472126
     37  C        -4.8004679397   -1.0391445628   -0.5413597477
     38  O        -5.4437512509   -0.4111811082    0.6342468786
     39  H        -3.6449719759    1.8849592655   -1.0040510098
     40  H        -2.9747379606   -0.3093071630   -1.6447584548
     41  H         0.2136148218    1.5237632361    1.6960119748
     42  H        -5.7776034545    1.6910885445    0.8362940300
     43  H        -7.2059491399    0.9449570988   -1.1294658814
     44  H        -5.8056978571    1.6686280321   -1.9790732415
     45  H        -6.5629015542   -1.2239595828   -1.8781109300
     46  H        -5.1254689735   -0.5462950013   -2.7031034605
     47  H        -4.7340317975   -2.1360665532   -0.4057279834
     48  H        -1.0932523132    1.1579977908    2.9113033308
     49  H        -0.9144601969    2.8373141829    2.2772847649
     50  H        -0.3547906165    1.4179808622   -2.6053693614
     51  H        -0.1569142982    2.0575618610   -0.9281001392
     52  H        -0.4035539978    0.2837315970   -1.1761472314
     53  H         1.2806762245   -3.4249962092    0.5081403578
     54  H         0.3078086710   -3.1906711619   -1.0132287152
     55  H        -0.6123535972   -2.2316081041    1.4217484251
     56  H         0.5000784625   -0.8592087838    0.9841782605
   Point Group: c1    Number of degrees of freedom:   162


   Energy is  -1510.300314145

 Hessian Updated using BFGS Update

162 Hessian modes will be used to form the next step
  Hessian Eigenvalues:
     0.000500    0.002022    0.002244    0.002559    0.003427    0.004819
     0.005167    0.007036    0.007599    0.009902    0.013809    0.014700
     0.017247    0.020586    0.021831    0.021851    0.025668    0.026078
     0.027076    0.031101    0.031577    0.033292    0.033988    0.035356
     0.038843    0.040144    0.040995    0.041740    0.043246    0.043630
     0.044670    0.047484    0.048610    0.049668    0.051126    0.052769
     0.052832    0.053592    0.054252    0.054769    0.055128    0.055395
     0.056184    0.056523    0.057005    0.057938    0.060904    0.063566
     0.063797    0.063994    0.064142    0.064306    0.066134    0.069076
     0.070035    0.071284    0.073041    0.073811    0.081609    0.086773
     0.091165    0.092870    0.093308    0.097925    0.099083    0.099890
     0.100735    0.104022    0.104886    0.106545    0.110643    0.113368
     0.114559    0.126291    0.128032    0.139837    0.143594    0.145224
     0.159622    0.160015    0.161136    0.162474    0.162558    0.163753
     0.167782    0.171630    0.185318    0.196989    0.209799    0.221287
     0.222684    0.232278    0.235087    0.236506    0.239765    0.239873
     0.240845    0.245151    0.247493    0.248323    0.248985    0.249614
     0.249718    0.251757    0.252264    0.253411    0.253730    0.254816
     0.258650    0.262075    0.264163    0.265026    0.272902    0.285655
     0.292138    0.294162    0.304945    0.306091    0.318754    0.321405
     0.324366    0.325089    0.325611    0.327053    0.327510    0.328041
     0.328129    0.328654    0.328778    0.328862    0.328897    0.329680
     0.330581    0.330924    0.331527    0.331631    0.332511    0.334675
     0.334807    0.334824    0.334860    0.334974    0.335014    0.335155
     0.335191    0.335679    0.342125    0.347538    0.359925    0.389680
     0.408077    0.413877    0.417695    0.471096    0.619058    0.793819
     0.831634    0.833556    0.838289    0.915089    1.208885    3.901193

 Minimum Search - Taking Simple RFO Step
 Searching for Lamda that Minimizes Along All modes
 Value Taken    Lamda =   0.00000000
 Step Taken.  Stepsize is  0.006183

                             Maximum     Tolerance    Cnvgd?
         Gradient           0.000269      0.000300     YES
         Displacement       0.002514      0.001200      NO
         Energy change     -0.000001      0.000001     YES

 Final energy is   -1510.30031414523     


 ******************************
 **  OPTIMIZATION CONVERGED  **
 ******************************

                       Coordinates (Angstroms)
     ATOM                X               Y               Z
      1  O        -3.5125256142    2.2330182725    2.1048235667
      2  C        -3.0466607557    1.6800881061    1.0876727006
      3  C        -3.8190449422    1.1663700719   -0.1817206206
      4  C        -3.3953505315   -0.2994887677   -0.6242655704
      5  C        -2.3589102567   -0.9507524169    0.3556172218
      6  O        -1.1193725038   -1.1759114008   -0.3488559709
      7  C        -0.0966628821   -1.7130049216    0.5858622791
      8  C         0.8579271241   -2.6783416893   -0.1978368401
      9  O         1.9654369456   -1.9229548402   -0.8354240614
     10  C         3.0893419294   -1.8577397355    0.0558734290
     11  C         4.1935774265   -0.9517356700   -0.5929064306
     12  C         3.7067920344    0.5248859952   -0.9175356342
     13  C         2.1928915335    0.7670741641   -0.5895743527
     14  O         1.6565071298    0.7384312661    0.5452804554
     15  O        -1.6638573070    1.4063942449    0.8594677636
     16  O         1.5227401923    1.0410578582   -1.8113791857
     17  O         3.1549947154   -2.4568852406    1.1503469514
     18  C         0.0619812783    1.2072655300   -1.6038087352
     19  C         5.3486442722   -0.6700655914    0.4521078392
     20  C         6.5965851069   -0.0810585588   -0.3134871580
     21  C         6.1060103583    1.3855576573   -0.6110422559
     22  C         4.6655835748    1.3615926234    0.0364991587
     23  O         4.8283459475    0.4869480269    1.2184779863
     24  H         4.5650829166   -1.4512158688   -1.5065147165
     25  H         3.8660612103    0.7714583014   -1.9814933982
     26  H         5.5506354081   -1.5212847884    1.1308873380
     27  H         7.4848482139   -0.0852106953    0.3379491366
     28  H         6.8278550607   -0.6472525289   -1.2300740116
     29  H         6.7403278494    2.1334745241   -0.1092567239
     30  H         6.0740542349    1.6140425010   -1.6883005627
     31  H         4.2655833993    2.3492012651    0.3376483281
     32  O        -2.5553706960   -1.3029832335    1.5380968629
     33  C        -0.8208631800    1.7624833988    2.0227203009
     34  C        -5.3634309535    0.9706445362    0.1041575143
     35  C        -6.1166570992    0.8766393951   -1.2791170463
     36  C        -5.6907506088   -0.5620595169   -1.7574472126
     37  C        -4.8004679397   -1.0391445628   -0.5413597477
     38  O        -5.4437512509   -0.4111811082    0.6342468786
     39  H        -3.6449719759    1.8849592655   -1.0040510098
     40  H        -2.9747379606   -0.3093071630   -1.6447584548
     41  H         0.2136148218    1.5237632361    1.6960119748
     42  H        -5.7776034545    1.6910885445    0.8362940300
     43  H        -7.2059491399    0.9449570988   -1.1294658814
     44  H        -5.8056978571    1.6686280321   -1.9790732415
     45  H        -6.5629015542   -1.2239595828   -1.8781109300
     46  H        -5.1254689735   -0.5462950013   -2.7031034605
     47  H        -4.7340317975   -2.1360665532   -0.4057279834
     48  H        -1.0932523132    1.1579977908    2.9113033308
     49  H        -0.9144601969    2.8373141829    2.2772847649
     50  H        -0.3547906165    1.4179808622   -2.6053693614
     51  H        -0.1569142982    2.0575618610   -0.9281001392
     52  H        -0.4035539978    0.2837315970   -1.1761472314
     53  H         1.2806762245   -3.4249962092    0.5081403578
     54  H         0.3078086710   -3.1906711619   -1.0132287152
     55  H        -0.6123535972   -2.2316081041    1.4217484251
     56  H         0.5000784625   -0.8592087838    0.9841782605

Z-matrix Print:
$molecule
0 1
O 
C  1 1.443410
O  2 1.249368 1 123.572471
C  1 1.485969 2 109.901916 3 -7.186074 0
H  4 1.110672 1 108.821262 2 25.541373 0
H  4 1.115224 1 108.434560 2 -93.735920 0
C  4 1.567578 1 109.099855 2 147.772034 0
H  7 1.109043 4 110.486467 1 -31.910094 0
H  7 1.111132 4 109.138573 1 -153.241616 0
O  7 1.484488 4 110.835287 1 86.299073 0
C  10 1.435906 7 109.904871 4 91.124872 0
O  11 1.249463 10 124.268575 7 6.034487 0
C  2 1.567968 1 109.112786 3 -176.397993 0
H  13 1.103819 2 108.795345 1 8.206795 0
C  11 1.568788 10 108.690924 7 -175.180160 0
H  15 1.105521 11 108.504139 10 -65.524432 0
C  15 1.582900 11 110.082518 10 171.117269 0
H  17 1.107301 15 113.641883 11 34.768023 0
O  17 1.482132 15 102.950740 11 -84.542536 0
C  19 1.479381 17 94.992825 15 -57.471434 0
H  20 1.107277 19 110.473503 17 179.892240 0
C  17 1.578107 15 108.855448 11 165.848050 0
H  22 1.101543 17 110.448411 15 -167.377876 0
H  22 1.101904 17 112.193503 15 -45.923684 0
C  22 1.574854 17 101.122863 15 74.466023 0
H  25 1.101602 22 111.520900 17 117.182654 0
H  25 1.101686 22 112.763560 17 -120.132428 0
C  15 1.588319 11 113.935396 10 58.331987 0
H  28 1.103708 15 111.130386 11 -124.509013 0
C  28 1.567836 15 113.377755 11 -2.839446 0
O  30 1.255557 28 126.731029 15 64.878163 0
O  30 1.420203 28 107.786986 15 -115.667995 0
C  32 1.484765 30 111.442416 28 176.730037 0
H  33 1.105090 32 105.407507 30 179.787370 0
H  33 1.107927 32 111.441546 30 61.225855 0
H  33 1.119166 32 111.733354 30 -60.403903 0
C  13 1.588743 2 112.670646 1 -116.035692 0
H  37 1.105848 13 110.513797 2 124.983898 0
C  37 1.572210 13 113.288475 2 3.500252 0
O  39 1.247941 37 128.276407 13 -132.860718 0
O  39 1.427982 37 106.503548 13 47.770039 0
C  41 1.480066 39 112.323227 37 -176.296258 0
H  42 1.108524 41 111.449054 39 -59.019167 0
H  42 1.108683 41 111.026879 39 62.568700 0
H  42 1.110797 41 104.333430 39 -178.594174 0
C  37 1.582771 13 101.328495 2 -116.593904 0
H  46 1.107521 37 113.819272 13 153.783294 0
O  46 1.482190 37 103.459561 13 33.863613 0
C  48 1.479933 46 95.044861 37 -56.435829 0
H  49 1.107270 48 110.434114 46 -179.670794 0
C  46 1.577858 37 108.349847 13 -75.456572 0
H  51 1.101644 46 110.440492 37 -168.563334 0
H  51 1.101762 46 112.296514 37 -47.039833 0
C  51 1.574818 46 101.046364 37 73.402511 0
H  54 1.101507 51 111.598628 46 118.775018 0
H  54 1.101843 51 112.728203 46 -118.548183 0
$end

 
 --------------------------------------------------------------
 
                    Orbital Energies (a.u.)
 --------------------------------------------------------------
 
 Alpha MOs
 -- Occupied --
-18.937 -18.937 -18.936 -18.933 -18.889 -18.888 -18.883 -18.879
-18.876 -18.873 -10.104 -10.103 -10.103 -10.100 -10.073 -10.062
-10.062 -10.062 -10.059 -10.058 -10.049 -10.041 -10.041 -10.040
-10.038 -10.038 -10.022 -10.022 -10.021 -10.020  -1.019  -1.015
 -1.009  -1.006  -0.971  -0.970  -0.943  -0.938  -0.936  -0.936
 -0.766  -0.764  -0.729  -0.724  -0.712  -0.706  -0.698  -0.657
 -0.655  -0.618  -0.598  -0.581  -0.548  -0.545  -0.539  -0.537
 -0.512  -0.511  -0.487  -0.474  -0.459  -0.458  -0.455  -0.453
 -0.437  -0.432  -0.430  -0.418  -0.415  -0.409  -0.401  -0.398
 -0.391  -0.383  -0.372  -0.367  -0.364  -0.362  -0.355  -0.351
 -0.342  -0.341  -0.338  -0.332  -0.331  -0.327  -0.324  -0.312
 -0.311  -0.307  -0.306  -0.302  -0.292  -0.289  -0.285  -0.275
 -0.273  -0.263  -0.254  -0.245  -0.242  -0.235  -0.234  -0.185
 -0.178  -0.174  -0.171  -0.163  -0.159  -0.153  -0.151  -0.145
 -0.144
 -- Virtual --
  0.087   0.093   0.103   0.109   0.224   0.227   0.252   0.256
  0.260   0.263   0.283   0.283   0.298   0.306   0.323   0.330
  0.335   0.339   0.345   0.346   0.358   0.359   0.370   0.376
  0.379   0.382   0.383   0.397   0.400   0.406   0.409   0.411
  0.416   0.417   0.419   0.420   0.428   0.430   0.432   0.435
  0.437   0.438   0.442   0.444   0.447   0.459   0.465   0.465
  0.482   0.485   0.487   0.488   0.496   0.504   0.510   0.539
  0.540   0.550   0.550   0.636   0.643   0.649   0.656
 --------------------------------------------------------------
 
          Ground-State Mulliken Net Atomic Charges

     Atom                 Charge (a.u.)
  ----------------------------------------
      1 O                    -0.205845
      2 C                     0.213330
      3 C                    -0.078653
      4 C                    -0.078869
      5 C                     0.216524
      6 O                    -0.174870
      7 C                    -0.063189
      8 C                    -0.053654
      9 O                    -0.174407
     10 C                     0.211076
     11 C                    -0.078187
     12 C                    -0.079314
     13 C                     0.218031
     14 O                    -0.228114
     15 O                    -0.176233
     16 O                    -0.166343
     17 O                    -0.208438
     18 C                    -0.148468
     19 C                     0.024415
     20 C                    -0.144227
     21 C                    -0.143669
     22 C                     0.025478
     23 O                    -0.186666
     24 H                     0.086091
     25 H                     0.087128
     26 H                     0.090855
     27 H                     0.078791
     28 H                     0.073267
     29 H                     0.078385
     30 H                     0.073771
     31 H                     0.083157
     32 O                    -0.211824
     33 C                    -0.140399
     34 C                     0.023974
     35 C                    -0.143723
     36 C                    -0.144141
     37 C                     0.025843
     38 O                    -0.185621
     39 H                     0.083520
     40 H                     0.084549
     41 H                     0.112774
     42 H                     0.091180
     43 H                     0.078758
     44 H                     0.072793
     45 H                     0.078525
     46 H                     0.072925
     47 H                     0.083559
     48 H                     0.089161
     49 H                     0.084170
     50 H                     0.078878
     51 H                     0.083937
     52 H                     0.113417
     53 H                     0.099837
     54 H                     0.092069
     55 H                     0.099664
     56 H                     0.105022
  ----------------------------------------
  Sum of atomic charges =     0.000000

 -----------------------------------------------------------------
                    Cartesian Multipole Moments
 -----------------------------------------------------------------
    Charge (ESU x 10^10)
                -0.0000
    Dipole Moment (Debye)
         X       1.3365      Y       0.3215      Z      -4.6656
       Tot       4.8639
    Quadrupole Moments (Debye-Ang)
        XX    -152.6142     XY       0.5302     YY    -154.9795
        XZ       6.1820     YZ       0.6442     ZZ    -167.7345
    Octopole Moments (Debye-Ang^2)
       XXX      76.0717    XXY      10.1481    XYY       0.6032
       YYY     -10.4410    XXZ     -99.2574    XYZ       9.0897
       YYZ      -6.1205    XZZ       0.5158    YZZ      -0.2891
       ZZZ       4.1422
    Hexadecapole Moments (Debye-Ang^3)
      XXXX  -14102.6809   XXXY     192.2312   XXYY   -2743.7693
      XYYY     306.1503   YYYY   -1931.1755   XXXZ     127.4160
      XXYZ     -15.0660   XYYZ      23.6638   YYYZ     -43.5214
      XXZZ   -2763.6417   XYZZ      98.9261   YYZZ    -566.8821
      XZZZ      16.3007   YZZZ     -63.1006   ZZZZ   -1268.2261
 -----------------------------------------------------------------
Archival summary:
1\1\vega02.cac.cornell.edu\OPT\ProcedureUnspecified\STO-3G\102026\jj585\TueJan1619:31:372018TueJan1619:31:372018\0\\#,OPT,ProcedureUnspecified,STO-3G,\\0,1\O\C,1,1.44341\O,2,1.24937,1,123.572\C,1,1.48597,2,109.902,3,-7.18607,0\H,4,1.11067,1,108.821,2,25.5414,0\H,4,1.11522,1,108.435,2,-93.7359,0\C,4,1.56758,1,109.1,2,147.772,0\H,7,1.10904,4,110.486,1,-31.9101,0\H,7,1.11113,4,109.139,1,-153.242,0\O,7,1.48449,4,110.835,1,86.2991,0\C,10,1.43591,7,109.905,4,91.1249,0\O,11,1.24946,10,124.269,7,6.03449,0\C,2,1.56797,1,109.113,3,-176.398,0\H,13,1.10382,2,108.795,1,8.20679,0\C,11,1.56879,10,108.691,7,-175.18,0\H,15,1.10552,11,108.504,10,-65.5244,0\C,15,1.5829,11,110.083,10,171.117,0\H,17,1.1073,15,113.642,11,34.768,0\O,17,1.48213,15,102.951,11,-84.5425,0\C,19,1.47938,17,94.9928,15,-57.4714,0\H,20,1.10728,19,110.474,17,179.892,0\C,17,1.57811,15,108.855,11,165.848,0\H,22,1.10154,17,110.448,15,-167.378,0\H,22,1.1019,17,112.194,15,-45.9237,0\C,22,1.57485,17,101.123,15,74.466,0\H,25,1.1016,22,111.521,17,117.183,0\H,25,1.10169,22,112.764,17,-120.132,0\C,15,1.58832,11,113.935,10,58.332,0\H,28,1.10371,15,111.13,11,-124.509,0\C,28,1.56784,15,113.378,11,-2.83945,0\O,30,1.25556,28,126.731,15,64.8782,0\O,30,1.4202,28,107.787,15,-115.668,0\C,32,1.48476,30,111.442,28,176.73,0\H,33,1.10509,32,105.408,30,179.787,0\H,33,1.10793,32,111.442,30,61.2259,0\H,33,1.11917,32,111.733,30,-60.4039,0\C,13,1.58874,2,112.671,1,-116.036,0\H,37,1.10585,13,110.514,2,124.984,0\C,37,1.57221,13,113.288,2,3.50025,0\O,39,1.24794,37,128.276,13,-132.861,0\O,39,1.42798,37,106.504,13,47.77,0\C,41,1.48007,39,112.323,37,-176.296,0\H,42,1.10852,41,111.449,39,-59.0192,0\H,42,1.10868,41,111.027,39,62.5687,0\H,42,1.1108,41,104.333,39,-178.594,0\C,37,1.58277,13,101.328,2,-116.594,0\H,46,1.10752,37,113.819,13,153.783,0\O,46,1.48219,37,103.46,13,33.8636,0\C,48,1.47993,46,95.0449,37,-56.4358,0\H,49,1.10727,48,110.434,46,-179.671,0\C,46,1.57786,37,108.35,13,-75.4566,0\H,51,1.10164,46,110.44,37,-168.563,0\H,51,1.10176,46,112.297,37,-47.0398,0\C,51,1.57482,46,101.046,37,73.4025,0\H,54,1.10151,51,111.599,46,118.775,0\H,54,1.10184,51,112.728,46,-118.548,0\\\@

 Total job time:  104.79s(wall), 4999.52s(cpu) 
 Tue Jan 16 19:31:37 2018

        *************************************************************
        *                                                           *
        *  Thank you very much for using Q-Chem.  Have a nice day.  *
        *                                                           *
        *************************************************************


0 sent ACK to 0 
now end server 0 ... 
