mFile = /opt/software/qchem/qchem-5.0.1//bin/mpi/machines
Process 0 of 1 is on vega02.cac.cornell.edu - thread support 0
initial socket setup ...start
initial socket setup ...done 
now start server 0 ... 
vega02.cac.cornell.edu 10.84.3
Q-Chem Developer Version! Running on 10.84.3.*
                  Welcome to Q-Chem
     A Quantum Leap Into The Future Of Chemistry


 Q-Chem 5.0, Q-Chem, Inc., Pleasanton, CA (2017)

 Yihan Shao,  Zhengting Gan,  E. Epifanovsky,  A. T. B. Gilbert,  M. Wormit,  
 J. Kussmann,  A. W. Lange,  A. Behn,  Jia Deng,  Xintian Feng,  D. Ghosh,  
 M. Goldey,  P. R. Horn,  L. D. Jacobson,  I. Kaliman,  T. Kus,  A. Landau,  
 Jie Liu,  E. I. Proynov,  R. M. Richard,  R. P. Steele,  E. J. Sundstrom,  
 H. L. Woodcock III,  P. M. Zimmerman,  D. Zuev,  B. Albrecht,  E. Alguire,  
 S. A. Baeppler,  Z. Benda,  Y. A. Bernard,  E. J. Berquist,  K. B. Bravaya,  
 D. Casanova,  Chun-Min Chang,  Yunqing Chen,  A. Chien,  K. D. Closser,  
 M. P. Coons,  S. Dasgupta,  M. Diedenhofen,  Hainam Do,  R. G. Edgar,  
 Po-Tung Fang,  S. Fatehi,  Qingguo Feng,  Qinghui Ge,  A. Ghysels,  
 J. Gomes,  J. Gonthier,  A. Gunina,  M. W. D. Hanson-Heine,  
 P. H. P. Harbach,  A. W. Hauser,  J. E. Herr,  E. G. Hohenstein,  
 Z. C. Holden,  Kerwin Hui,  T.-C. Jagau,  Hyunjun Ji,  B. Kaduk,  
 K. Khistyaev,  Jaehoon Kim,  P. Klunzinger,  K. Koh,  D. Kosenkov,  
 T. Kowalczyk,  C. M. Krauter,  A. Kunitsa,  Ka Un Lao,  A. Laurent,  
 K. V. Lawler,  Joonho Lee,  D. Lefrancois,  S. Lehtola,  D. S. Levine,  
 Yi-Pei Li,  You-Sheng Lin,  Fenglai Liu,  E. Livshits,  A. Luenser,  
 P. Manohar,  E. Mansoor,  S. F. Manzer,  Shan-Ping Mao,  Yuezhi Mao,  
 N. Mardirossian,  A. V. Marenich,  L. A. Martinez-Martinez,  S. A. Maurer,  
 N. J. Mayhall,  S. C. McKenzie,  J.-M. Mewes,  A. F. Morrison,  K. Nanda,  
 T. S. Nguyen-Beck,  R. Olivares-Amaya,  J. A. Parkhill,  T. M. Perrine,  
 F. Plasser,  S. Prager,  A. Prociuk,  D. R. Rehn,  F. Rob,  M. Schneider,  
 N. Sergueev,  S. M. Sharada,  S. Sharma,  D. W. Small,  T. Stauch,  
 T. Stein,  Yu-Chuan Su,  A. J. W. Thom,  T. Tsuchimochi,  L. Vogt,  
 O. Vydrov,  M. A. Watson,  J. Wenzel,  M. de Wergifosse,  T. A. Wesolowski,  
 A. White,  J. Witte,  A. Yamada,  Jun Yang,  K. Yao,  S. Yeganeh,  
 S. R. Yost,  Zhi-Qiang You,  A. Zech,  Igor Ying Zhang,  Xing Zhang,  
 Yan Zhao,  Ying Zhu,  B. R. Brooks,  G. K. L. Chan,  C. J. Cramer,  
 M. S. Gordon,  W. J. Hehre,  A. Klamt,  M. W. Schmidt,  C. D. Sherrill,  
 D. G. Truhlar,  A. Aspuru-Guzik,  R. Baer,  A. T. Bell,  N. A. Besley,  
 Jeng-Da Chai,  A. Dreuw,  B. D. Dunietz,  T. R. Furlani,  Chao-Ping Hsu,  
 Yousung Jung,  Jing Kong,  D. S. Lambrecht,  WanZhen Liang,  C. Ochsenfeld,  
 V. A. Rassolov,  L. V. Slipchenko,  J. E. Subotnik,  T. Van Voorhis,  
 J. M. Herbert,  A. I. Krylov,  P. M. W. Gill,  M. Head-Gordon

 Contributors to earlier versions of Q-Chem not listed above: 
 R. D. Adamson,  B. Austin,  J. Baker,  G. J. O. Beran,  K. Brandhorst,  
 S. T. Brown,  E. F. C. Byrd,  A. K. Chakraborty,  C.-L. Cheng,  
 Siu Hung Chien,  D. M. Chipman,  D. L. Crittenden,  H. Dachsel,  
 R. A. DiStasio Jr.,  R. J. Doerksen,  A. D. Dutoi,  L. Fusti-Molnar,  
 W. A. Goddard III,  A. Golubeva-Zadorozhnaya,  S. R. Gwaltney,  G. Hawkins,  
 A. Heyden,  S. Hirata,  G. Kedziora,  F. J. Keil,  C. Kelley,  Jihan Kim,  
 R. A. King,  R. Z. Khaliullin,  P. P. Korambath,  W. Kurlancheek,  
 A. M. Lee,  M. S. Lee,  S. V. Levchenko,  Ching Yeh Lin,  D. Liotard,  
 R. C. Lochan,  I. Lotan,  P. E. Maslen,  N. Nair,  D. P. O'Neill,  
 D. Neuhauser,  E. Neuscamman,  C. M. Oana,  R. Olson,  B. Peters,  
 R. Peverati,  P. A. Pieniazek,  Y. M. Rhee,  J. Ritchie,  M. A. Rohrdanz,  
 E. Rosta,  N. J. Russ,  H. F. Schaefer III,  N. E. Schultz,  N. Shenvi,  
 A. C. Simmonett,  A. Sodt,  D. Stuck,  K. S. Thanthiriwatte,  V. Vanovschi,  
 Tao Wang,  A. Warshel,  C. F. Williams,  Q. Wu,  X. Xu,  W. Zhang

 Please cite Q-Chem as follows:
 Y. Shao et al., Mol. Phys. 113, 184-215 (2015)
 DOI: 10.1080/00268976.2014.952696

 Q-Chem 5.0.1 for Intel X86 EM64T Linux

 Parts of Q-Chem use Armadillo 5.200.1 (Boston Tea Smuggler).
 http://arma.sourceforge.net/

 Q-Chem begins on Tue Jan 16 19:57:41 2018  

Host: vega02.cac.cornell.edu
0

     Scratch files written to /scratch/jj585/SOT1001/1257r.save//
 Parallel job on  1  processors

Checking the input file for inconsistencies... 	...done.

--------------------------------------------------------------
User input:
--------------------------------------------------------------
$molecule
0  1
O -3.39471111 -2.5553771856 -1.4596026168
C -2.995694116 -1.6435826787 -0.7051728355
C -3.8392785065 -0.9070051479 0.4040847551
C -3.6523320099 0.6728807519 0.4322692875
C -2.4324223187 1.1850992783 -0.4094041923
O -1.3081399533 1.2596853233 0.4765713934
C -0.1098404014 1.7280652427 -0.2572963426
C 0.771702822 2.6268884335 0.6840908546
O 1.9959634805 1.9183275591 1.1352621743
C 2.9627361171 1.8461799966 0.0816739234
C 4.1312544747 0.9231064315 0.5819225421
C 3.7428380831 -0.5985357356 0.8071198624
C 2.287323852 -0.986295984 0.3793355737
O 1.6592178349 -0.5864007563 -0.6317323831
O -1.6626283371 -1.1171095044 -0.729023737
O 1.7811723098 -1.8831241932 1.3604591227
O 2.8717328064 2.4420840242 -1.0120192328
C 0.4161564607 -2.3678571123 1.040413589
C 5.2744349603 0.7907905587 -0.509730564
C 6.5914764423 0.2999283569 0.2059052536
C 6.2295975761 -1.2028694063 0.5016576236
C 4.7962373937 -1.3088131547 -0.1553873757
O 4.8602534616 -0.3868006608 -1.3090398088
H 4.5199627245 1.3506934776 1.5242902816
H 3.8780916742 -0.905209076 1.8587224541
H 5.3769822368 1.6799118629 -1.1617976548
H 7.4518961711 0.3793740352 -0.4774430835
H 6.8113245399 0.8737601572 1.1203121115
H 6.9312709624 -1.8950713333 0.0098935772
H 6.2062085496 -1.4295532386 1.5795657629
H 4.5033583034 -2.3251602995 -0.4838760898
O -2.4294494371 1.5582685967 -1.6029860254
C -0.9139652797 -1.6018593761 -1.9157504081
C -5.3688692601 -1.0112400383 0.0095447293
C -6.2602614884 -0.4974227863 1.2079187015
C -6.0940516268 1.0622096406 1.0711561236
C -5.0627289137 1.1487440012 -0.1214751767
O -5.4957926059 0.0513787592 -1.0166577694
H -3.6156062577 -1.3571177099 1.3890803137
H -3.5007771732 1.0105485449 1.4726545064
H -1.2760002194 -1.093834393 -2.8317678422
H -5.64956872 -1.994174034 -0.4165519521
H -7.3081554743 -0.8080164836 1.0711346352
H -5.9040038503 -0.8784746816 2.1784937594
H -7.0444270818 1.5440342099 0.7910176408
H -5.7142762585 1.5347884171 1.9910453471
H -5.0407560534 2.1095225249 -0.6711959631
H -1.0260361765 -2.696829531 -2.0410948243
H 0.1434167617 -1.331055608 -1.7132306187
H -0.0003043128 -2.7426049651 1.9935177683
H 0.4673039903 -3.2078002495 0.3174630541
H -0.2494808175 -1.5806059288 0.6199417146
H 1.046013194 3.5676194566 0.161074965
H 0.2105529913 2.8705850822 1.6091980829
H -0.4358457936 2.2830911933 -1.1621342977
H 0.4914403891 0.8423220822 -0.5755549004
$end

$rem
JOBTYPE                   OPT
METHOD                    B3LYP
DFT_D                     d3_op
BASIS                     STO-3G
GEOM_OPT_MAX_CYCLES       100
GEOM_OPT_TOL_GRADIENT     300
GEOM_OPT_TOL_DISPLACEMENT 1200
GEOM_OPT_TOL_ENERGY       100
SYMMETRY                  False
THRESH                    12
SCF_CONVERGENCE           8
MAX_SUB_FILE_NUM          128
MEM_STATIC                400
MEM_TOTAL                 4000
$end
--------------------------------------------------------------
 Adding empirical dispersion correction 
 ----------------------------------------------------------------
 Doing -D3(op) with
 s6 =   1.00000
 s8 =   0.78311
 a1 =   0.30000
 a2 =   4.25000
 n  =  10.00000
 -D3 energy without 3body term =     -0.0729636611 hartrees
 ----------------------------------------------------------------
             Standard Nuclear Orientation (Angstroms)
    I     Atom           X                Y                Z
 ----------------------------------------------------------------
    1      O       3.4402921109    -2.5866739948     1.1985983906
    2      C       3.0140807397    -1.6339946175     0.5126727747
    3      C       3.8291514653    -0.8065496557    -0.5529857223
    4      C       3.6108910154     0.7674406778    -0.4711344977
    5      C       2.3917475033     1.1961558305     0.4170401106
    6      O       1.2552616071     1.3078752281    -0.4492423131
    7      C       0.0572391801     1.7006409727     0.3281512508
    8      C      -0.8534436870     2.6432453007    -0.5398148974
    9      O      -2.0690879594     1.9421634887    -1.0247082138
   10      C      -3.0210502957     1.7787403348     0.0321566722
   11      C      -4.1773681838     0.8681671116    -0.5169644312
   12      C      -3.7619939627    -0.6263657481    -0.8498484930
   13      C      -2.2939293532    -1.0125167096    -0.4657224431
   14      O      -1.6612404850    -0.6696064400     0.5632620652
   15      O       1.6713380230    -1.1377155898     0.5872137898
   16      O      -1.7825393021    -1.8299640544    -1.5113579880
   17      O      -2.9281366672     2.3005655483     1.1629145759
   18      C      -0.4043879582    -2.3073595861    -1.2403306933
   19      C      -5.3040350991     0.6385324508     0.5757227159
   20      C      -6.6200050017     0.1707014423    -0.1571046531
   21      C      -6.2324104924    -1.3007752456    -0.5587932744
   22      C      -4.7891683441    -1.4218772795     0.0735357698
   23      O      -4.8568863210    -0.5820161975     1.2881001652
   24      H      -4.5861111823     1.3508638974    -1.4235595536
   25      H      -3.9042988656    -0.8634601057    -1.9183734870
   26      H      -5.4158803107     1.4789338878     1.2880851250
   27      H      -7.4732338861     0.1858585246     0.5395799305
   28      H      -6.8624557700     0.8008209367    -1.0276924262
   29      H      -6.9141765365    -2.0390329582    -0.1076929120
   30      H      -6.2180137587    -1.4530503087    -1.6498586264
   31      H      -4.4723230255    -2.4520261233     0.3285787453
   32      O       2.3963277165     1.4870910286     1.6332791919
   33      C       0.9471852100    -1.7173020256     1.7463001845
   34      C       5.3652925805    -0.9061157862    -0.1834837905
   35      C       6.2314201989    -0.2938262210    -1.3537884036
   36      C       6.0363443654     1.2491599759    -1.1089986094
   37      C       5.0184676037     1.2332359274     0.0981291698
   38      O       5.4841136627     0.0865715760     0.9114194766
   39      H       3.6020977621    -1.1930604107    -1.5638778510
   40      H       3.4397806666     1.1719622011    -1.4842847316
   41      H       1.3105675803    -1.2655035483     2.6907989983
   42      H       5.6705223130    -1.9098276045     0.1713502621
   43      H       7.2868327747    -0.5915308573    -1.2501719204
   44      H       5.8706410407    -0.6151415549    -2.3441069634
   45      H       6.9804964590     1.7301217543    -0.8071731922
   46      H       5.6359288320     1.7753875081    -1.9901956355
   47      H       4.9844926757     2.1537251792     0.7123899961
   48      H       1.0822824669    -2.8157446786     1.7953228115
   49      H      -0.1177511534    -1.4550069271     1.5744934596
   50      H       0.0074363807    -2.6077859103    -2.2213647617
   51      H      -0.4300222133    -3.1954256334    -0.5759064313
   52      H       0.2508566289    -1.5371121338    -0.7744901600
   53      H      -1.1396272324     3.5403988291     0.0492361900
   54      H      -0.3087605179     2.9607514503    -1.4522899180
   55      H       0.3835397665     2.1993462022     1.2651069958
   56      H      -0.5225248850     0.7831907408     0.5918304985
 ----------------------------------------------------------------
 Molecular Point Group                 C1    NOp =  1
 Largest Abelian Subgroup              C1    NOp =  1
 Nuclear Repulsion Energy =  3214.3439346127 hartrees
 There are      113 alpha and      113 beta electrons
 Requested basis set is STO-3G
 There are 86 shells and 176 basis functions

 Total QAlloc Memory Limit   4000 MB
 Mega-Array Size       392 MB
 MEM_STATIC part       400 MB
 A cutoff of  1.0D-12 yielded   2301 shell pairs
 There are     10770 function pairs
 
 -------------------------------------------------------
 OpenMP Integral Computing Module                       
 Release: version 1.0, May 2013, Q-Chem Inc. Pittsburgh 
 -------------------------------------------------------
 Integral Job Info:
 Integral job number is                      11
 Integral operator is                         1
 short-range coefficients                     0
 long-range coefficients              100000000
 Omega coefficients                           0
 if combine SR and LR in K                    0
 Integral screening is                        0
 Integral computing path is                   2
 max size of driver memory is            800000
 size of driver memory is                 45569
 size of scratch memory is              1046100
 max col of scratch BK array                289
 max len of scratch array in speh3           22
 max len of scratch index in speh4            8
 max int batch size is                      520
 min int batch size is                       52
 fixed nKL is                                52
 max L of basis functions is                  1
 order of int derivative is                   0
 number of shells is                         86
 number of basis is                         176
 number of cartesian basis is               176
 number of contracted shell pairs          2301
 number of primitive shell pairs          11693
 maxK2 (contraction) of shell pair            9
 max number of K2 of shell pair               1
 max number of CS2 of shell pair            352
 max number of PS2 of shell pair           1314
 mem total for path MDJ                   49782
 -------------------------------------------------------
 Smallest overlap matrix eigenvalue = 2.13E-01

 Scale SEOQF with 1.000000e-02/1.000000e-01/1.000000e-01

 Standard Electronic Orientation quadrupole field applied
 Nucleus-field energy     =     0.0000000261 hartrees
 Guess from superposition of atomic densities
 Warning:  Energy on first SCF cycle will be non-variational
 A restricted hybrid HF-DFT SCF calculation will be
 performed using Pulay DIIS extrapolation
 Exchange:     0.2000 Hartree-Fock + 0.0800 Slater + 0.7200 B88
 Correlation:  0.1900 VWN1RPA + 0.8100 LYP
 Using SG-1 standard quadrature grid
 Dispersion:   Grimme D3
 SCF converges when DIIS error is below 1.0E-08
 using 48 threads for integral computing
 -------------------------------------------------------
 OpenMP Integral computing Module                
 Release: version 1.0, May 2013, Q-Chem Inc. Pittsburgh 
 -------------------------------------------------------
 -------------------------------------------------------
 OpenMP BLAS3 based DFT computing Module                
 Release: version 1.0, May 2013, Q-Chem Inc. Pittsburgh 
 -------------------------------------------------------
 ---------------------------------------
  Cycle       Energy         DIIS Error
 ---------------------------------------
    1   -1507.6571506568      7.47E-02
    2   -1509.7568929124      1.04E-02
    3   -1507.3258613027      2.77E-02
    4   -1510.1923040433      4.75E-03
    5   -1510.2837164118      1.49E-03
    6   -1510.2926991455      4.25E-04
    7   -1510.2934235343      1.49E-04
    8   -1510.2935189809      3.53E-05
    9   -1510.2935243538      8.58E-06
   10   -1510.2935246449      3.62E-06
   11   -1510.2935246904      1.74E-06
   12   -1510.2935247035      2.64E-07
   13   -1510.2935247038      1.11E-07
   14   -1510.2935247037      6.19E-08
   15   -1510.2935247037      1.29E-08
   16   -1510.2935247038      4.11E-09 Convergence criterion met
 ---------------------------------------
 SCF time:  CPU 119.77 s  wall 2.55 s
 SCF   energy in the final basis set = -1510.29352470
 Total energy in the final basis set = -1510.29352470
 
 --------------------------------------------------------------
 
                    Orbital Energies (a.u.)
 --------------------------------------------------------------
 
 Alpha MOs
 -- Occupied --
-18.949 -18.941 -18.929 -18.918 -18.891 -18.890 -18.884 -18.882
-18.877 -18.861 -10.115 -10.103 -10.100 -10.092 -10.068 -10.065
-10.061 -10.060 -10.057 -10.057 -10.051 -10.046 -10.044 -10.040
-10.039 -10.033 -10.024 -10.022 -10.020 -10.018  -1.022  -1.016
 -1.010  -0.998  -0.974  -0.968  -0.948  -0.940  -0.937  -0.925
 -0.767  -0.761  -0.728  -0.722  -0.713  -0.705  -0.692  -0.669
 -0.657  -0.616  -0.598  -0.579  -0.548  -0.544  -0.539  -0.535
 -0.517  -0.507  -0.482  -0.477  -0.464  -0.457  -0.454  -0.450
 -0.435  -0.432  -0.424  -0.416  -0.414  -0.409  -0.407  -0.402
 -0.394  -0.382  -0.374  -0.366  -0.363  -0.358  -0.355  -0.348
 -0.346  -0.341  -0.334  -0.333  -0.329  -0.327  -0.325  -0.313
 -0.310  -0.307  -0.306  -0.305  -0.298  -0.285  -0.284  -0.274
 -0.271  -0.261  -0.250  -0.246  -0.238  -0.237  -0.232  -0.190
 -0.179  -0.177  -0.168  -0.161  -0.156  -0.153  -0.148  -0.144
 -0.142
 -- Virtual --
  0.080   0.093   0.103   0.116   0.225   0.230   0.247   0.253
  0.258   0.266   0.280   0.287   0.299   0.307   0.324   0.332
  0.333   0.339   0.345   0.347   0.357   0.358   0.368   0.374
  0.380   0.382   0.389   0.392   0.403   0.408   0.410   0.412
  0.414   0.416   0.418   0.419   0.426   0.428   0.431   0.434
  0.436   0.437   0.440   0.444   0.447   0.452   0.463   0.468
  0.476   0.485   0.490   0.498   0.501   0.507   0.509   0.539
  0.542   0.548   0.554   0.634   0.644   0.649   0.659
 --------------------------------------------------------------
 
          Ground-State Mulliken Net Atomic Charges

     Atom                 Charge (a.u.)
  ----------------------------------------
      1 O                    -0.205966
      2 C                     0.213243
      3 C                    -0.077546
      4 C                    -0.081222
      5 C                     0.214195
      6 O                    -0.179442
      7 C                    -0.069969
      8 C                    -0.052011
      9 O                    -0.177946
     10 C                     0.211273
     11 C                    -0.079179
     12 C                    -0.077644
     13 C                     0.222362
     14 O                    -0.217978
     15 O                    -0.172413
     16 O                    -0.163986
     17 O                    -0.208046
     18 C                    -0.140721
     19 C                     0.024753
     20 C                    -0.143753
     21 C                    -0.143915
     22 C                     0.025783
     23 O                    -0.186514
     24 H                     0.085459
     25 H                     0.089340
     26 H                     0.091213
     27 H                     0.079072
     28 H                     0.073796
     29 H                     0.078913
     30 H                     0.074243
     31 H                     0.082199
     32 O                    -0.221132
     33 C                    -0.140568
     34 C                     0.023681
     35 C                    -0.145028
     36 C                    -0.142944
     37 C                     0.024309
     38 O                    -0.188701
     39 H                     0.083668
     40 H                     0.083420
     41 H                     0.091246
     42 H                     0.090203
     43 H                     0.078302
     44 H                     0.072293
     45 H                     0.077953
     46 H                     0.072605
     47 H                     0.087001
     48 H                     0.087474
     49 H                     0.111396
     50 H                     0.088471
     51 H                     0.081834
     52 H                     0.112563
     53 H                     0.091187
     54 H                     0.092317
     55 H                     0.095643
     56 H                     0.105216
  ----------------------------------------
  Sum of atomic charges =     0.000000

 -----------------------------------------------------------------
                    Cartesian Multipole Moments
 -----------------------------------------------------------------
    Charge (ESU x 10^10)
                -0.0000
    Dipole Moment (Debye)
         X      -1.6051      Y      -0.5356      Z      -4.6750
       Tot       4.9719
    Quadrupole Moments (Debye-Ang)
        XX    -149.5235     XY       4.6918     YY    -155.6602
        XZ      -5.0133     YZ      -1.2285     ZZ    -166.9041
    Octopole Moments (Debye-Ang^2)
       XXX     -77.4743    XXY      15.1525    XYY      -7.6253
       YYY       9.7085    XXZ     -87.4362    XYZ       9.1884
       YYZ      -4.7291    XZZ       4.4613    YZZ      -5.8303
       ZZZ       8.9910
    Hexadecapole Moments (Debye-Ang^3)
      XXXX  -14434.6056   XXXY      24.3119   XXYY   -2868.2380
      XYYY      34.7304   YYYY   -2223.4852   XXXZ    -105.7286
      XXYZ      24.8479   XYYZ     -14.6839   YYYZ      -0.0851
      XXZZ   -2778.3709   XYZZ     -19.5266   YYZZ    -559.0368
      XZZZ      31.9619   YZZZ      -7.1606   ZZZZ    -974.6447
 -----------------------------------------------------------------
 Calculating analytic gradient of the SCF energy
 Gradient of SCF Energy
            1           2           3           4           5           6
    1  -0.0003661  -0.0005213  -0.0004160   0.0021246  -0.0016907   0.0005206
    2  -0.0005402   0.0006290  -0.0005275   0.0044420  -0.0022189  -0.0034590
    3  -0.0005139   0.0003262  -0.0016887   0.0016866  -0.0006144   0.0025963
            7           8           9          10          11          12
    1  -0.0004767   0.0016163  -0.0023260  -0.0023593   0.0014537   0.0007358
    2   0.0003647  -0.0017537   0.0019063   0.0027252  -0.0013802   0.0014312
    3  -0.0042475   0.0000322   0.0019652  -0.0000553  -0.0008462  -0.0009285
           13          14          15          16          17          18
    1  -0.0020588   0.0010219  -0.0000491  -0.0000349   0.0002537   0.0000220
    2  -0.0039911   0.0024991   0.0000935  -0.0000223   0.0000220   0.0000339
    3   0.0028833  -0.0014670   0.0000659   0.0001029   0.0000531  -0.0000749
           19          20          21          22          23          24
    1   0.0000290  -0.0001795  -0.0000674   0.0003235   0.0001621   0.0000253
    2  -0.0002111   0.0001058  -0.0001344   0.0001077   0.0000948  -0.0000794
    3   0.0002523  -0.0000884  -0.0000386  -0.0001009  -0.0000978   0.0000466
           25          26          27          28          29          30
    1   0.0000623   0.0000861   0.0000573   0.0000737   0.0000315   0.0000759
    2  -0.0000490  -0.0000033  -0.0000413  -0.0000912  -0.0000116   0.0000412
    3   0.0000508   0.0000675   0.0000052   0.0000385  -0.0000330   0.0000185
           31          32          33          34          35          36
    1   0.0000282   0.0000902   0.0001727   0.0000971  -0.0002741   0.0001728
    2  -0.0000018  -0.0000053  -0.0000486  -0.0000569   0.0002013  -0.0000253
    3   0.0000124   0.0000997   0.0000561  -0.0001183   0.0000182  -0.0000925
           37          38          39          40          41          42
    1   0.0000856   0.0000578  -0.0000205   0.0001819   0.0000804   0.0000670
    2  -0.0000613   0.0000051   0.0000154  -0.0001474   0.0000391   0.0000593
    3   0.0002754   0.0000335   0.0000182  -0.0000090  -0.0000016  -0.0000125
           43          44          45          46          47          48
    1   0.0000086   0.0000929   0.0000406   0.0000076   0.0000795   0.0000710
    2  -0.0000143  -0.0000058  -0.0000021  -0.0000218   0.0000011  -0.0000177
    3  -0.0000030  -0.0000028  -0.0000004   0.0000439   0.0000462  -0.0000003
           49          50          51          52          53          54
    1   0.0001221   0.0000580   0.0001101   0.0000429   0.0000597   0.0001145
    2  -0.0000448   0.0000216  -0.0001114   0.0000756  -0.0000635   0.0000832
    3   0.0000679   0.0000183  -0.0000220   0.0001225   0.0000212  -0.0000254
           55          56
    1   0.0001136   0.0002102
    2   0.0000647   0.0000796
    3   0.0000319   0.0000267
 Max gradient component =       4.442E-03
 RMS gradient           =       9.643E-04
 Gradient time:  CPU 32.63 s  wall 0.70 s
 Geometry Optimization Parameters
   NAtoms,    NIC,     NZ,  NCons,   NDum,   NFix, NCnnct, MaxDiis
       56     458       0       0       0       0       0       0


** GEOMETRY OPTIMIZATION IN DELOCALIZED INTERNAL COORDINATES **
   Searching for a Minimum

   Optimization Cycle:   1

                       Coordinates (Angstroms)
     ATOM                X               Y               Z
      1  O         3.4402921109   -2.5866739948    1.1985983906
      2  C         3.0140807397   -1.6339946175    0.5126727747
      3  C         3.8291514653   -0.8065496557   -0.5529857223
      4  C         3.6108910154    0.7674406778   -0.4711344977
      5  C         2.3917475033    1.1961558305    0.4170401106
      6  O         1.2552616071    1.3078752281   -0.4492423131
      7  C         0.0572391801    1.7006409727    0.3281512508
      8  C        -0.8534436870    2.6432453007   -0.5398148974
      9  O        -2.0690879594    1.9421634887   -1.0247082138
     10  C        -3.0210502957    1.7787403348    0.0321566722
     11  C        -4.1773681838    0.8681671116   -0.5169644312
     12  C        -3.7619939627   -0.6263657481   -0.8498484930
     13  C        -2.2939293532   -1.0125167096   -0.4657224431
     14  O        -1.6612404850   -0.6696064400    0.5632620652
     15  O         1.6713380230   -1.1377155898    0.5872137898
     16  O        -1.7825393021   -1.8299640544   -1.5113579880
     17  O        -2.9281366672    2.3005655483    1.1629145759
     18  C        -0.4043879582   -2.3073595861   -1.2403306933
     19  C        -5.3040350991    0.6385324508    0.5757227159
     20  C        -6.6200050017    0.1707014423   -0.1571046531
     21  C        -6.2324104924   -1.3007752456   -0.5587932744
     22  C        -4.7891683441   -1.4218772795    0.0735357698
     23  O        -4.8568863210   -0.5820161975    1.2881001652
     24  H        -4.5861111823    1.3508638974   -1.4235595536
     25  H        -3.9042988656   -0.8634601057   -1.9183734870
     26  H        -5.4158803107    1.4789338878    1.2880851250
     27  H        -7.4732338861    0.1858585246    0.5395799305
     28  H        -6.8624557700    0.8008209367   -1.0276924262
     29  H        -6.9141765365   -2.0390329582   -0.1076929120
     30  H        -6.2180137587   -1.4530503087   -1.6498586264
     31  H        -4.4723230255   -2.4520261233    0.3285787453
     32  O         2.3963277165    1.4870910286    1.6332791919
     33  C         0.9471852100   -1.7173020256    1.7463001845
     34  C         5.3652925805   -0.9061157862   -0.1834837905
     35  C         6.2314201989   -0.2938262210   -1.3537884036
     36  C         6.0363443654    1.2491599759   -1.1089986094
     37  C         5.0184676037    1.2332359274    0.0981291698
     38  O         5.4841136627    0.0865715760    0.9114194766
     39  H         3.6020977621   -1.1930604107   -1.5638778510
     40  H         3.4397806666    1.1719622011   -1.4842847316
     41  H         1.3105675803   -1.2655035483    2.6907989983
     42  H         5.6705223130   -1.9098276045    0.1713502621
     43  H         7.2868327747   -0.5915308573   -1.2501719204
     44  H         5.8706410407   -0.6151415549   -2.3441069634
     45  H         6.9804964590    1.7301217543   -0.8071731922
     46  H         5.6359288320    1.7753875081   -1.9901956355
     47  H         4.9844926757    2.1537251792    0.7123899961
     48  H         1.0822824669   -2.8157446786    1.7953228115
     49  H        -0.1177511534   -1.4550069271    1.5744934596
     50  H         0.0074363807   -2.6077859103   -2.2213647617
     51  H        -0.4300222133   -3.1954256334   -0.5759064313
     52  H         0.2508566289   -1.5371121338   -0.7744901600
     53  H        -1.1396272324    3.5403988291    0.0492361900
     54  H        -0.3087605179    2.9607514503   -1.4522899180
     55  H         0.3835397665    2.1993462022    1.2651069958
     56  H        -0.5225248850    0.7831907408    0.5918304985
   Point Group: c1    Number of degrees of freedom:   162


   Energy is  -1510.293524704


 Attempting to Generate Delocalized Internal Coordinates

162 Hessian modes will be used to form the next step
  Hessian Eigenvalues:
     0.002000    0.002000    0.002000    0.002000    0.002000    0.002691
     0.002723    0.004189    0.004244    0.004431    0.004437    0.004465
     0.004574    0.004605    0.004908    0.006820    0.006834    0.011219
     0.011232    0.011446    0.012688    0.021642    0.021718    0.026201
     0.026258    0.030688    0.030762    0.035371    0.035488    0.040438
     0.041257    0.041498    0.041802    0.045241    0.045437    0.047012
     0.047094    0.047820    0.049053    0.051237    0.051378    0.053515
     0.054001    0.054666    0.054713    0.055319    0.055469    0.056227
     0.056681    0.058666    0.059008    0.060575    0.060613    0.063618
     0.063746    0.064124    0.064337    0.070031    0.070208    0.072931
     0.073150    0.091822    0.092642    0.092792    0.092936    0.095230
     0.095799    0.096193    0.098304    0.103009    0.104274    0.110495
     0.110513    0.111162    0.113609    0.120581    0.120751    0.136455
     0.137899    0.157161    0.157846    0.160000    0.160000    0.160000
     0.160000    0.160000    0.160000    0.163278    0.163506    0.219013
     0.220325    0.220682    0.220906    0.225062    0.227389    0.238298
     0.238691    0.239696    0.239846    0.245411    0.247958    0.249360
     0.249956    0.249995    0.249996    0.250000    0.250000    0.250000
     0.250000    0.250000    0.250000    0.250000    0.250000    0.253274
     0.253766    0.255329    0.258616    0.259474    0.261673    0.263466
     0.291946    0.293024    0.306168    0.307919    0.318848    0.322439
     0.325207    0.325540    0.325854    0.326632    0.326956    0.327846
     0.328336    0.328619    0.328684    0.328812    0.329041    0.330462
     0.330737    0.330884    0.332154    0.332735    0.334752    0.334897
     0.334910    0.334942    0.334942    0.335020    0.335158    0.335189
     0.340335    0.340572    0.341761    0.344360    0.404962    0.405100
     0.407392    0.421077    0.811787    0.830301    0.836451    0.836749

 Minimum Search - Taking Simple RFO Step
 Searching for Lamda that Minimizes Along All modes
 Value Taken    Lamda =  -0.01254719
 Calculated Step too Large.  Step scaled by  0.380458
 Step Taken.  Stepsize is  0.300000

                             Maximum     Tolerance    Cnvgd?
         Gradient           0.012002      0.000300      NO
         Displacement       0.196852      0.001200      NO
         Energy change     *********      0.000001      NO


 New Cartesian Coordinates Obtained by Inverse Iteration

 Displacement from previous Coordinates is:  5.169439
 Adding empirical dispersion correction 
 ----------------------------------------------------------------
 Doing -D3(op) with
 s6 =   1.00000
 s8 =   0.78311
 a1 =   0.30000
 a2 =   4.25000
 n  =  10.00000
 -D3 energy without 3body term =     -0.0703000981 hartrees
 ----------------------------------------------------------------
             Standard Nuclear Orientation (Angstroms)
    I     Atom           X                Y                Z
 ----------------------------------------------------------------
    1      O       3.4576612627    -2.3123098882     1.6859991097
    2      C       3.0131996570    -1.4650739510     0.8832611868
    3      C       3.7883098545    -0.8250013979    -0.3306656389
    4      C       3.6088205381     0.7500856882    -0.4691183517
    5      C       2.4520903983     1.3382029490     0.4109984004
    6      O       1.2760550643     1.3812443499    -0.4074076559
    7      C       0.0983681177     1.7553270945     0.4094389928
    8      C      -0.8657523897     2.6640147892    -0.4366248085
    9      O      -2.0560132174     1.9166422892    -0.9154684180
   10      C      -2.9436143609     1.6190755416     0.1679118036
   11      C      -4.1529851475     0.8106996357    -0.4261666316
   12      C      -3.7955878613    -0.6197132677    -1.0104579890
   13      C      -2.3130738194    -1.0777360263    -0.7999426525
   14      O      -1.6138716393    -0.9425072887     0.2342347833
   15      O       1.6825792612    -0.9345114778     0.9400019556
   16      O      -1.8949296162    -1.7210672331    -1.9976279630
   17      O      -2.7849074350     2.0027710573     1.3456621581
   18      C      -0.5212985388    -2.2723769850    -1.9002379676
   19      C      -5.2089157253     0.4317956691     0.6949557678
   20      C      -6.5813676616     0.0974115179    -0.0064827485
   21      C      -6.2556225747    -1.3002892573    -0.6523369170
   22      C      -4.7761385917    -1.5347394286    -0.1486257912
   23      O      -4.7430656884    -0.8890910320     1.1810598600
   24      H      -4.6105949664     1.4281082922    -1.2208248051
   25      H      -4.0166167260    -0.6852457942    -2.0898666102
   26      H      -5.2538724211     1.1552510381     1.5320873014
   27      H      -7.3853015061     0.0167792928     0.7424121152
   28      H      -6.8674509593     0.8559874141    -0.7525342315
   29      H      -6.9222836524    -2.0900833975    -0.2713599159
   30      H      -6.3186222197    -1.2845445939    -1.7521708562
   31      H      -4.4667717509    -2.5956928051    -0.0757923452
   32      O       2.5211430474     1.7555430363     1.5878184783
   33      C       0.9994736983    -1.3212840808     2.2000441498
   34      C       5.3390423980    -0.9157184212    -0.0261757219
   35      C       6.1556649038    -0.5054321833    -1.3144177910
   36      C       6.0073942449     1.0618110795    -1.2885001589
   37      C       5.0547301880     1.2504294452    -0.0435118353
   38      O       5.5373182624     0.2206713171     0.9048622356
   39      H       3.5004832384    -1.3478821921    -1.2615920293
   40      H       3.3932506526     1.0132629252    -1.5197148663
   41      H       1.4101148267    -0.7442160774     3.0524231914
   42      H       5.6398798323    -1.8662005895     0.4561448950
   43      H       7.2082795113    -0.8158945296    -1.2203098199
   44      H       5.7359108117    -0.9559858828    -2.2281886981
   45      H       6.9763794538     1.5536085511    -1.1068130819
   46      H       5.5725565007     1.4664993291    -2.2163824887
   47      H       5.0735125196     2.2505827536     0.4309212274
   48      H       1.1182049433    -2.4034423973     2.4050819806
   49      H      -0.0674214550    -1.0630103794     2.0338690939
   50      H      -0.1815961202    -2.4168910261    -2.9423563096
   51      H      -0.5391611061    -3.2571207447    -1.3897167948
   52      H       0.1889920816    -1.6073117687    -1.3592783197
   53      H      -1.1787055225     3.5422371849     0.1672249124
   54      H      -0.3522518973     3.0138795226    -1.3552471301
   55      H       0.4392866303     2.2697356512     1.3325374287
   56      H      -0.4471414490     0.8239967821     0.6969186371
 ----------------------------------------------------------------
 Molecular Point Group                 C1    NOp =  1
 Largest Abelian Subgroup              C1    NOp =  1
 Nuclear Repulsion Energy =  3193.2735151256 hartrees
 There are      113 alpha and      113 beta electrons
 Applying Cartesian multipole field
    Component          Value
    ---------          -----
     (2,0,0)        1.00000E-12
     (0,2,0)        2.00000E-11
     (0,0,2)       -3.00000E-11
 Nucleus-field energy     =     0.0000000164 hartrees
 Requested basis set is STO-3G
 There are 86 shells and 176 basis functions
 A cutoff of  1.0D-12 yielded   2277 shell pairs
 There are     10677 function pairs
 Smallest overlap matrix eigenvalue = 2.13E-01
 Guess MOs from SCF MO coefficient file
 Reading MOs from coefficient file
 Reading MOs from coefficient file
 A restricted hybrid HF-DFT SCF calculation will be
 performed using Pulay DIIS extrapolation
 Exchange:     0.2000 Hartree-Fock + 0.0800 Slater + 0.7200 B88
 Correlation:  0.1900 VWN1RPA + 0.8100 LYP
 Using SG-1 standard quadrature grid
 Dispersion:   Grimme D3
 SCF converges when DIIS error is below 1.0E-08
 Geometry optimization detected.  Setting ReadMinima to 0
 Setting SaveMinima to 0
 using 48 threads for integral computing
 -------------------------------------------------------
 OpenMP Integral computing Module                
 Release: version 1.0, May 2013, Q-Chem Inc. Pittsburgh 
 -------------------------------------------------------
 -------------------------------------------------------
 OpenMP BLAS3 based DFT computing Module                
 Release: version 1.0, May 2013, Q-Chem Inc. Pittsburgh 
 -------------------------------------------------------
 ---------------------------------------
  Cycle       Energy         DIIS Error
 ---------------------------------------
    1   -1509.9439573881      8.35E-03
    2   -1510.2797551016      1.11E-03
    3   -1510.2752806278      1.64E-03
    4   -1510.2858019464      6.02E-04
    5   -1510.2873339871      1.43E-04
    6   -1510.2874187757      5.43E-05
    7   -1510.2874290062      2.97E-05
    8   -1510.2874328132      7.51E-06
    9   -1510.2874330796      1.15E-06
   10   -1510.2874330860      6.42E-07
   11   -1510.2874330876      4.24E-07
   12   -1510.2874330883      9.82E-08
   13   -1510.2874330884      3.84E-08
   14   -1510.2874330884      1.81E-08
   15   -1510.2874330885      5.47E-09 Convergence criterion met
 ---------------------------------------
 SCF time:  CPU 109.11 s  wall 2.28 s
 SCF   energy in the final basis set = -1510.28743309
 Total energy in the final basis set = -1510.28743309
 
 --------------------------------------------------------------
 
                    Orbital Energies (a.u.)
 --------------------------------------------------------------
 
 Alpha MOs
 -- Occupied --
-18.943 -18.933 -18.931 -18.920 -18.890 -18.884 -18.877 -18.877
-18.876 -18.863 -10.105 -10.100 -10.098 -10.094 -10.071 -10.068
-10.063 -10.059 -10.056 -10.056 -10.055 -10.055 -10.040 -10.038
-10.038 -10.033 -10.023 -10.021 -10.019 -10.018  -1.016  -1.012
 -1.010  -0.998  -0.972  -0.967  -0.940  -0.938  -0.934  -0.926
 -0.765  -0.761  -0.727  -0.722  -0.712  -0.704  -0.693  -0.668
 -0.655  -0.616  -0.597  -0.580  -0.547  -0.543  -0.538  -0.535
 -0.514  -0.506  -0.479  -0.474  -0.464  -0.455  -0.451  -0.448
 -0.433  -0.430  -0.419  -0.414  -0.413  -0.410  -0.407  -0.404
 -0.392  -0.381  -0.372  -0.367  -0.359  -0.358  -0.354  -0.348
 -0.346  -0.342  -0.333  -0.333  -0.329  -0.327  -0.325  -0.312
 -0.308  -0.306  -0.304  -0.302  -0.295  -0.285  -0.283  -0.274
 -0.270  -0.256  -0.251  -0.244  -0.239  -0.236  -0.231  -0.183
 -0.180  -0.173  -0.162  -0.160  -0.155  -0.152  -0.146  -0.144
 -0.141
 -- Virtual --
  0.088   0.096   0.105   0.115   0.226   0.231   0.247   0.253
  0.260   0.264   0.281   0.288   0.300   0.308   0.325   0.332
  0.335   0.339   0.345   0.348   0.358   0.359   0.370   0.374
  0.381   0.384   0.387   0.398   0.402   0.409   0.410   0.412
  0.415   0.417   0.419   0.420   0.426   0.428   0.429   0.433
  0.435   0.437   0.438   0.440   0.441   0.446   0.449   0.464
  0.468   0.485   0.490   0.492   0.500   0.502   0.508   0.540
  0.542   0.549   0.554   0.638   0.645   0.651   0.658
 --------------------------------------------------------------
 
          Ground-State Mulliken Net Atomic Charges

     Atom                 Charge (a.u.)
  ----------------------------------------
      1 O                    -0.209159
      2 C                     0.210792
      3 C                    -0.077382
      4 C                    -0.080955
      5 C                     0.215421
      6 O                    -0.177897
      7 C                    -0.060303
      8 C                    -0.050570
      9 O                    -0.176065
     10 C                     0.211492
     11 C                    -0.079254
     12 C                    -0.078362
     13 C                     0.214813
     14 O                    -0.218459
     15 O                    -0.171342
     16 O                    -0.167323
     17 O                    -0.210091
     18 C                    -0.130604
     19 C                     0.024442
     20 C                    -0.143674
     21 C                    -0.144028
     22 C                     0.025711
     23 O                    -0.187126
     24 H                     0.084909
     25 H                     0.087534
     26 H                     0.090686
     27 H                     0.078747
     28 H                     0.073481
     29 H                     0.078449
     30 H                     0.074047
     31 H                     0.082094
     32 O                    -0.221007
     33 C                    -0.131727
     34 C                     0.023746
     35 C                    -0.145032
     36 C                    -0.143034
     37 C                     0.024316
     38 O                    -0.188608
     39 H                     0.082705
     40 H                     0.083062
     41 H                     0.091546
     42 H                     0.090488
     43 H                     0.078136
     44 H                     0.072034
     45 H                     0.077754
     46 H                     0.072317
     47 H                     0.086210
     48 H                     0.091962
     49 H                     0.105597
     50 H                     0.090570
     51 H                     0.085431
     52 H                     0.101529
     53 H                     0.089977
     54 H                     0.093825
     55 H                     0.098881
     56 H                     0.099296
  ----------------------------------------
  Sum of atomic charges =    -0.000000

 -----------------------------------------------------------------
                    Cartesian Multipole Moments
 -----------------------------------------------------------------
    Charge (ESU x 10^10)
                -0.0000
    Dipole Moment (Debye)
         X      -1.8174      Y      -0.2896      Z      -4.6777
       Tot       5.0267
    Quadrupole Moments (Debye-Ang)
        XX    -151.0231     XY       1.1407     YY    -154.9587
        XZ      -6.7098     YZ       0.5156     ZZ    -165.7384
    Octopole Moments (Debye-Ang^2)
       XXX     -94.8262    XXY      11.7651    XYY     -10.2798
       YYY       8.7352    XXZ     -87.6398    XYZ       3.6988
       YYZ     -11.3765    XZZ      -1.3081    YZZ      -5.4234
       ZZZ       7.6912
    Hexadecapole Moments (Debye-Ang^3)
      XXXX  -14402.0063   XXXY    -132.7299   XXYY   -2826.1301
      XYYY     -94.0406   YYYY   -2076.7756   XXXZ    -253.2860
      XXYZ       6.9894   XYYZ     -52.5519   YYYZ     -45.3329
      XXZZ   -2824.3583   XYZZ     -57.1726   YYZZ    -596.2095
      XZZZ     -88.6299   YZZZ     -60.3582   ZZZZ   -1266.8709
 -----------------------------------------------------------------
 Calculating analytic gradient of the SCF energy
 Gradient of SCF Energy
            1           2           3           4           5           6
    1  -0.0011568   0.0032460  -0.0005366   0.0013263  -0.0019388   0.0019119
    2   0.0003538  -0.0003095  -0.0002854   0.0017211   0.0011393  -0.0017917
    3  -0.0008122  -0.0015265  -0.0014924   0.0009032  -0.0018286   0.0020210
            7           8           9          10          11          12
    1   0.0010779   0.0023218  -0.0015751   0.0002807   0.0006517   0.0005570
    2   0.0033911   0.0003671   0.0002269   0.0009789   0.0001337   0.0016076
    3  -0.0023857  -0.0007843   0.0018870   0.0015368  -0.0004526   0.0007821
           13          14          15          16          17          18
    1  -0.0034791   0.0009687  -0.0024778  -0.0029424  -0.0002932  -0.0009033
    2  -0.0047582  -0.0009228   0.0003923   0.0007703   0.0000906   0.0000942
    3  -0.0099885   0.0053316   0.0019275   0.0040990  -0.0002347  -0.0029465
           19          20          21          22          23          24
    1  -0.0003661   0.0001690  -0.0000302  -0.0003794   0.0004308   0.0000070
    2   0.0000778   0.0000496  -0.0001564  -0.0004700  -0.0001032  -0.0005089
    3  -0.0002406  -0.0000844   0.0001206   0.0004303  -0.0001798  -0.0003199
           25          26          27          28          29          30
    1   0.0006813  -0.0001302  -0.0000123  -0.0001033   0.0000944   0.0001115
    2  -0.0000395  -0.0000736  -0.0000051  -0.0000103  -0.0000390   0.0001508
    3  -0.0000860   0.0000315  -0.0000052   0.0000244  -0.0000740   0.0000159
           31          32          33          34          35          36
    1   0.0000211   0.0000950   0.0010718   0.0001212   0.0001780  -0.0002664
    2  -0.0000961  -0.0006799  -0.0006226   0.0002535  -0.0001133  -0.0001843
    3  -0.0000149   0.0002264   0.0055322   0.0004819  -0.0001811  -0.0000567
           37          38          39          40          41          42
    1  -0.0001709   0.0000866   0.0001021   0.0003528   0.0005517   0.0001617
    2  -0.0001889  -0.0002921  -0.0002191   0.0003972  -0.0004680  -0.0000100
    3   0.0001922  -0.0000402   0.0001079   0.0000934  -0.0008017   0.0000759
           43          44          45          46          47          48
    1  -0.0000016  -0.0000555  -0.0000531   0.0000434   0.0000689   0.0010105
    2  -0.0000669  -0.0000167  -0.0000192   0.0000188  -0.0000410   0.0002478
    3   0.0000494   0.0000297   0.0000520  -0.0000562   0.0000495  -0.0002093
           49          50          51          52          53          54
    1  -0.0022290  -0.0006495  -0.0004675   0.0044700   0.0004565  -0.0003635
    2   0.0026285  -0.0002968   0.0000808  -0.0009187  -0.0002276   0.0000226
    3  -0.0018550   0.0001071  -0.0008253   0.0003432   0.0001312  -0.0004078
           55          56
    1  -0.0007509  -0.0012945
    2  -0.0000851  -0.0011744
    3   0.0000700   0.0012372
 Max gradient component =       9.989E-03
 RMS gradient           =       1.489E-03
 Gradient time:  CPU 31.10 s  wall 0.66 s
 Geometry Optimization Parameters
   NAtoms,    NIC,     NZ,  NCons,   NDum,   NFix, NCnnct, MaxDiis
       56     458       0       0       0       0       0       0

 Cartesian Hessian Update
 Hessian Updated using BFGS Update


** GEOMETRY OPTIMIZATION IN DELOCALIZED INTERNAL COORDINATES **
   Searching for a Minimum

   Optimization Cycle:   2

                       Coordinates (Angstroms)
     ATOM                X               Y               Z
      1  O         3.4576612627   -2.3123098882    1.6859991097
      2  C         3.0131996570   -1.4650739510    0.8832611868
      3  C         3.7883098545   -0.8250013979   -0.3306656389
      4  C         3.6088205381    0.7500856882   -0.4691183517
      5  C         2.4520903983    1.3382029490    0.4109984004
      6  O         1.2760550643    1.3812443499   -0.4074076559
      7  C         0.0983681177    1.7553270945    0.4094389928
      8  C        -0.8657523897    2.6640147892   -0.4366248085
      9  O        -2.0560132174    1.9166422892   -0.9154684180
     10  C        -2.9436143609    1.6190755416    0.1679118036
     11  C        -4.1529851475    0.8106996357   -0.4261666316
     12  C        -3.7955878613   -0.6197132677   -1.0104579890
     13  C        -2.3130738194   -1.0777360263   -0.7999426525
     14  O        -1.6138716393   -0.9425072887    0.2342347833
     15  O         1.6825792612   -0.9345114778    0.9400019556
     16  O        -1.8949296162   -1.7210672331   -1.9976279630
     17  O        -2.7849074350    2.0027710573    1.3456621581
     18  C        -0.5212985388   -2.2723769850   -1.9002379676
     19  C        -5.2089157253    0.4317956691    0.6949557678
     20  C        -6.5813676616    0.0974115179   -0.0064827485
     21  C        -6.2556225747   -1.3002892573   -0.6523369170
     22  C        -4.7761385917   -1.5347394286   -0.1486257912
     23  O        -4.7430656884   -0.8890910320    1.1810598600
     24  H        -4.6105949664    1.4281082922   -1.2208248051
     25  H        -4.0166167260   -0.6852457942   -2.0898666102
     26  H        -5.2538724211    1.1552510381    1.5320873014
     27  H        -7.3853015061    0.0167792928    0.7424121152
     28  H        -6.8674509593    0.8559874141   -0.7525342315
     29  H        -6.9222836524   -2.0900833975   -0.2713599159
     30  H        -6.3186222197   -1.2845445939   -1.7521708562
     31  H        -4.4667717509   -2.5956928051   -0.0757923452
     32  O         2.5211430474    1.7555430363    1.5878184783
     33  C         0.9994736983   -1.3212840808    2.2000441498
     34  C         5.3390423980   -0.9157184212   -0.0261757219
     35  C         6.1556649038   -0.5054321833   -1.3144177910
     36  C         6.0073942449    1.0618110795   -1.2885001589
     37  C         5.0547301880    1.2504294452   -0.0435118353
     38  O         5.5373182624    0.2206713171    0.9048622356
     39  H         3.5004832384   -1.3478821921   -1.2615920293
     40  H         3.3932506526    1.0132629252   -1.5197148663
     41  H         1.4101148267   -0.7442160774    3.0524231914
     42  H         5.6398798323   -1.8662005895    0.4561448950
     43  H         7.2082795113   -0.8158945296   -1.2203098199
     44  H         5.7359108117   -0.9559858828   -2.2281886981
     45  H         6.9763794538    1.5536085511   -1.1068130819
     46  H         5.5725565007    1.4664993291   -2.2163824887
     47  H         5.0735125196    2.2505827536    0.4309212274
     48  H         1.1182049433   -2.4034423973    2.4050819806
     49  H        -0.0674214550   -1.0630103794    2.0338690939
     50  H        -0.1815961202   -2.4168910261   -2.9423563096
     51  H        -0.5391611061   -3.2571207447   -1.3897167948
     52  H         0.1889920816   -1.6073117687   -1.3592783197
     53  H        -1.1787055225    3.5422371849    0.1672249124
     54  H        -0.3522518973    3.0138795226   -1.3552471301
     55  H         0.4392866303    2.2697356512    1.3325374287
     56  H        -0.4471414490    0.8239967821    0.6969186371
   Point Group: c1    Number of degrees of freedom:   162


   Energy is  -1510.287433089

 Hessian Updated using BFGS Update

149 Hessian modes will be used to form the next step
  Hessian Eigenvalues:
     0.001907    0.002245    0.002691    0.002711    0.004082    0.004252
     0.004428    0.004462    0.004553    0.004605    0.004806    0.005795
     0.006790    0.006821    0.010316    0.011242    0.012679    0.021503
     0.021646    0.025006    0.026197    0.030584    0.030761    0.035321
     0.035371    0.039088    0.040397    0.041422    0.041771    0.043581
     0.045379    0.045438    0.047035    0.047541    0.048479    0.050807
     0.051329    0.051398    0.053592    0.054242    0.054666    0.054836
     0.055438    0.055979    0.056536    0.057227    0.058951    0.060534
     0.060578    0.063617    0.063745    0.064122    0.064333    0.069763
     0.070178    0.072931    0.073124    0.078308    0.092210    0.092623
     0.092809    0.093637    0.095262    0.096165    0.098262    0.098728
     0.103536    0.104405    0.110489    0.111026    0.111157    0.113656
     0.120574    0.130134    0.136853    0.143265    0.157245    0.159592
     0.159990    0.163186    0.163497    0.185224    0.218980    0.220041
     0.220682    0.224926    0.226401    0.233827    0.238337    0.239661
     0.239762    0.239959    0.245404    0.247942    0.249098    0.249535
     0.249959    0.249995    0.249996    0.253273    0.253766    0.255316
     0.258594    0.259081    0.261635    0.263427    0.291862    0.293019
     0.305946    0.306998    0.318514    0.321984    0.325162    0.325237
     0.325544    0.326621    0.326953    0.327820    0.328334    0.328618
     0.328683    0.328812    0.329041    0.330462    0.330732    0.330883
     0.332153    0.332734    0.334752    0.334896    0.334910    0.334939
     0.334942    0.335020    0.335158    0.335189    0.338235    0.340547
     0.341588    0.344323    0.403074    0.405098    0.407382    0.420992
     0.506882    0.816009    0.830301    0.836682    0.836830

 Minimum Search - Taking Simple RFO Step
 Searching for Lamda that Minimizes Along All modes
 Value Taken    Lamda =  -0.00985564
 Calculated Step too Large.  Step scaled by  0.633097
 Step Taken.  Stepsize is  0.300000

                             Maximum     Tolerance    Cnvgd?
         Gradient           0.040431      0.000300      NO
         Displacement       0.120895      0.001200      NO
         Energy change      0.006092      0.000001      NO


 New Cartesian Coordinates Obtained by Inverse Iteration

 Displacement from previous Coordinates is:  4.522330
 Adding empirical dispersion correction 
 ----------------------------------------------------------------
 Doing -D3(op) with
 s6 =   1.00000
 s8 =   0.78311
 a1 =   0.30000
 a2 =   4.25000
 n  =  10.00000
 -D3 energy without 3body term =     -0.0736391367 hartrees
 ----------------------------------------------------------------
             Standard Nuclear Orientation (Angstroms)
    I     Atom           X                Y                Z
 ----------------------------------------------------------------
    1      O       3.1827217843    -2.2682607152     1.7594191003
    2      C       2.7709047304    -1.4417606801     0.9183122350
    3      C       3.5683807478    -0.8893749274    -0.3231070395
    4      C       3.4786854186     0.6874149595    -0.5281931349
    5      C       2.4004574238     1.3996175763     0.3607991388
    6      O       1.2048443031     1.5127407026    -0.4219070090
    7      C       0.0626888486     1.8895283958     0.4434876446
    8      C      -0.9173999707     2.8142750573    -0.3667898020
    9      O      -2.0860257656     2.0515389672    -0.8693388151
   10      C      -2.9659147380     1.7056819386     0.2062040027
   11      C      -4.1040683112     0.8086890157    -0.3963879908
   12      C      -3.5965482362    -0.5710476357    -0.9820627615
   13      C      -2.0743368440    -0.8482562522    -0.7364230892
   14      O      -1.4305464671    -0.6587954339     0.3240223484
   15      O       1.4339157187    -0.9267895890     0.8919747686
   16      O      -1.5390861099    -1.4149220230    -1.9264650779
   17      O      -2.8294332011     2.0788791845     1.3901085013
   18      C      -0.1111001200    -1.7800899803    -1.7689138725
   19      C      -5.1283119880     0.3208432376     0.7113381999
   20      C      -6.4521919271    -0.1447943123    -0.0083265993
   21      C      -5.9801537045    -1.4986163915    -0.6588175346
   22      C      -4.4900644682    -1.5874133378    -0.1389114112
   23      O      -4.5394401294    -0.9510534008     1.1950395039
   24      H      -4.6079907849     1.3877319414    -1.1920188016
   25      H      -3.7892082485    -0.6506808167    -2.0660042556
   26      H      -5.2535857472     1.0305636049     1.5520265757
   27      H      -7.2524515248    -0.3108022384     0.7304227343
   28      H      -6.8045662701     0.5865553522    -0.7532986218
   29      H      -6.5685762578    -2.3537403904    -0.2900806123
   30      H      -6.0325965345    -1.4819571741    -1.7592169478
   31      H      -4.0757867016    -2.6120158991    -0.0674302798
   32      O       2.5354554242     1.8375522783     1.5243133111
   33      C       0.6821344416    -1.3071369920     2.1136995225
   34      C       5.1158303139    -1.0597183917    -0.0374511013
   35      C       5.9294393401    -0.7662168172    -1.3591456736
   36      C       5.8746845489     0.8060676919    -1.4130368959
   37      C       4.9636498210     1.1147415270    -0.1612459489
   38      O       5.4024705922     0.1067600090     0.8305126847
   39      H       3.2404089073    -1.4346810575    -1.2275362489
   40      H       3.2510286452     0.9198821126    -1.5835575001
   41      H       1.0256735402    -0.7079227828     2.9806194138
   42      H       5.3672167771    -2.0025748080     0.4863486583
   43      H       6.9634074385    -1.1346718272    -1.2677716217
   44      H       5.4643870113    -1.2363962451    -2.2405475832
   45      H       6.8749762198     1.2469573614    -1.2758340702
   46      H       5.4440679055     1.1886339063    -2.3522358279
   47      H       5.0547238226     2.1340719941     0.2611232761
   48      H       0.8090676613    -2.3831619919     2.3447010923
   49      H      -0.3776699253    -1.0778949633     1.8799253074
   50      H       0.2944900750    -1.8667722276    -2.7938486789
   51      H      -0.0184228530    -2.7614586836    -1.2597803184
   52      H       0.4703062835    -1.0269043640    -1.1927986100
   53      H      -1.2424094001     3.6707569750     0.2616623680
   54      H      -0.4131380800     3.1954512023    -1.2778611988
   55      H       0.4320141865     2.3799582656     1.3687176493
   56      H      -0.4832417428     0.9562691927     0.7215192191
 ----------------------------------------------------------------
 Molecular Point Group                 C1    NOp =  1
 Largest Abelian Subgroup              C1    NOp =  1
 Nuclear Repulsion Energy =  3247.9472880560 hartrees
 There are      113 alpha and      113 beta electrons
 Applying Cartesian multipole field
    Component          Value
    ---------          -----
     (2,0,0)        1.00000E-12
     (0,2,0)        2.00000E-11
     (0,0,2)       -3.00000E-11
 Nucleus-field energy     =     0.0000000159 hartrees
 Requested basis set is STO-3G
 There are 86 shells and 176 basis functions
 A cutoff of  1.0D-12 yielded   2357 shell pairs
 There are     11078 function pairs
 Smallest overlap matrix eigenvalue = 2.13E-01
 Guess MOs from SCF MO coefficient file
 Reading MOs from coefficient file
 Reading MOs from coefficient file
 A restricted hybrid HF-DFT SCF calculation will be
 performed using Pulay DIIS extrapolation
 Exchange:     0.2000 Hartree-Fock + 0.0800 Slater + 0.7200 B88
 Correlation:  0.1900 VWN1RPA + 0.8100 LYP
 Using SG-1 standard quadrature grid
 Dispersion:   Grimme D3
 SCF converges when DIIS error is below 1.0E-08
 Geometry optimization detected.  Setting ReadMinima to 0
 Setting SaveMinima to 0
 using 48 threads for integral computing
 -------------------------------------------------------
 OpenMP Integral computing Module                
 Release: version 1.0, May 2013, Q-Chem Inc. Pittsburgh 
 -------------------------------------------------------
 -------------------------------------------------------
 OpenMP BLAS3 based DFT computing Module                
 Release: version 1.0, May 2013, Q-Chem Inc. Pittsburgh 
 -------------------------------------------------------
 ---------------------------------------
  Cycle       Energy         DIIS Error
 ---------------------------------------
    1   -1510.2155320079      4.57E-03
    2   -1510.2888288831      5.14E-04
    3   -1510.2860946540      1.00E-03
    4   -1510.2902819723      1.96E-04
    5   -1510.2904419674      5.73E-05
    6   -1510.2904539957      3.06E-05
    7   -1510.2904578592      1.17E-05
    8   -1510.2904584609      2.39E-06
    9   -1510.2904584900      9.91E-07
   10   -1510.2904584929      7.13E-07
   11   -1510.2904584952      1.55E-07
   12   -1510.2904584953      3.85E-08
   13   -1510.2904584954      1.56E-08
   14   -1510.2904584954      8.79E-09 Convergence criterion met
 ---------------------------------------
 SCF time:  CPU 102.02 s  wall 2.13 s
 SCF   energy in the final basis set = -1510.29045850
 Total energy in the final basis set = -1510.29045850
 
 --------------------------------------------------------------
 
                    Orbital Energies (a.u.)
 --------------------------------------------------------------
 
 Alpha MOs
 -- Occupied --
-18.949 -18.931 -18.930 -18.920 -18.892 -18.886 -18.883 -18.878
-18.874 -18.866 -10.113 -10.101 -10.096 -10.094 -10.070 -10.066
-10.065 -10.061 -10.056 -10.055 -10.051 -10.045 -10.043 -10.040
-10.038 -10.033 -10.025 -10.023 -10.019 -10.018  -1.022  -1.012
 -1.009  -0.999  -0.974  -0.967  -0.947  -0.939  -0.932  -0.928
 -0.768  -0.760  -0.729  -0.722  -0.713  -0.704  -0.693  -0.669
 -0.652  -0.616  -0.598  -0.580  -0.549  -0.543  -0.539  -0.535
 -0.517  -0.506  -0.479  -0.476  -0.465  -0.457  -0.453  -0.448
 -0.435  -0.432  -0.422  -0.417  -0.413  -0.411  -0.408  -0.401
 -0.392  -0.381  -0.373  -0.369  -0.360  -0.358  -0.355  -0.349
 -0.346  -0.338  -0.334  -0.333  -0.328  -0.326  -0.324  -0.314
 -0.308  -0.307  -0.306  -0.301  -0.295  -0.286  -0.282  -0.275
 -0.270  -0.261  -0.252  -0.242  -0.240  -0.238  -0.231  -0.188
 -0.180  -0.172  -0.166  -0.161  -0.154  -0.154  -0.148  -0.145
 -0.141
 -- Virtual --
  0.082   0.098   0.103   0.112   0.227   0.231   0.248   0.253
  0.262   0.266   0.280   0.288   0.297   0.309   0.324   0.330
  0.337   0.340   0.344   0.349   0.357   0.357   0.368   0.374
  0.380   0.384   0.386   0.394   0.402   0.408   0.409   0.412
  0.415   0.416   0.419   0.420   0.425   0.427   0.430   0.435
  0.437   0.438   0.442   0.443   0.447   0.452   0.461   0.465
  0.469   0.485   0.490   0.496   0.502   0.507   0.508   0.538
  0.543   0.547   0.554   0.639   0.646   0.652   0.656
 --------------------------------------------------------------
 
          Ground-State Mulliken Net Atomic Charges

     Atom                 Charge (a.u.)
  ----------------------------------------
      1 O                    -0.209628
      2 C                     0.209746
      3 C                    -0.077979
      4 C                    -0.080965
      5 C                     0.213169
      6 O                    -0.179134
      7 C                    -0.066142
      8 C                    -0.050947
      9 O                    -0.177447
     10 C                     0.210822
     11 C                    -0.079586
     12 C                    -0.078098
     13 C                     0.221907
     14 O                    -0.217964
     15 O                    -0.174302
     16 O                    -0.163952
     17 O                    -0.209057
     18 C                    -0.135042
     19 C                     0.024635
     20 C                    -0.143489
     21 C                    -0.143846
     22 C                     0.025587
     23 O                    -0.187146
     24 H                     0.085351
     25 H                     0.088629
     26 H                     0.091090
     27 H                     0.079152
     28 H                     0.073855
     29 H                     0.079036
     30 H                     0.074383
     31 H                     0.082525
     32 O                    -0.216472
     33 C                    -0.139429
     34 C                     0.023808
     35 C                    -0.145068
     36 C                    -0.143264
     37 C                     0.024534
     38 O                    -0.187993
     39 H                     0.081485
     40 H                     0.082599
     41 H                     0.086524
     42 H                     0.090567
     43 H                     0.078033
     44 H                     0.071532
     45 H                     0.077752
     46 H                     0.072119
     47 H                     0.085815
     48 H                     0.086767
     49 H                     0.115128
     50 H                     0.088538
     51 H                     0.084466
     52 H                     0.110126
     53 H                     0.090502
     54 H                     0.093274
     55 H                     0.097301
     56 H                     0.106195
  ----------------------------------------
  Sum of atomic charges =    -0.000000

 -----------------------------------------------------------------
                    Cartesian Multipole Moments
 -----------------------------------------------------------------
    Charge (ESU x 10^10)
                 0.0000
    Dipole Moment (Debye)
         X      -2.1460      Y      -0.4292      Z      -4.8075
       Tot       5.2822
    Quadrupole Moments (Debye-Ang)
        XX    -151.0290     XY       1.1575     YY    -155.9160
        XZ      -7.1046     YZ       0.6116     ZZ    -166.5798
    Octopole Moments (Debye-Ang^2)
       XXX     -95.2606    XXY       2.2617    XYY      -8.2531
       YYY       4.3940    XXZ     -84.1164    XYZ       4.4043
       YYZ     -10.2561    XZZ      -1.7815    YZZ      -5.4154
       ZZZ       5.0520
    Hexadecapole Moments (Debye-Ang^3)
      XXXX  -13420.9037   XXXY     -54.8812   XXYY   -2648.2978
      XYYY     -22.9915   YYYY   -2056.3248   XXXZ    -133.3838
      XXYZ      11.3213   XYYZ     -15.4602   YYYZ     -31.0062
      XXZZ   -2636.4843   XYZZ     -21.6786   YYZZ    -595.9265
      XZZZ      17.3367   YZZZ     -36.9825   ZZZZ   -1245.1300
 -----------------------------------------------------------------
 Calculating analytic gradient of the SCF energy
 Gradient of SCF Energy
            1           2           3           4           5           6
    1  -0.0019438   0.0059459  -0.0011776  -0.0002802  -0.0007245   0.0006485
    2  -0.0014227   0.0036240  -0.0015611  -0.0000877   0.0029579   0.0013233
    3  -0.0019773   0.0019300  -0.0027179   0.0004113  -0.0004760   0.0004708
            7           8           9          10          11          12
    1   0.0016283  -0.0005718   0.0003220  -0.0000315   0.0013521  -0.0000230
    2  -0.0003504   0.0005033  -0.0008975   0.0017864  -0.0018630   0.0013340
    3  -0.0022811  -0.0001995   0.0010069  -0.0003841   0.0000327   0.0007092
           13          14          15          16          17          18
    1   0.0011346   0.0056710  -0.0033020  -0.0009641   0.0003876  -0.0026772
    2   0.0011118  -0.0013161  -0.0030320  -0.0013094  -0.0010068  -0.0001213
    3  -0.0024423   0.0057204   0.0010815   0.0004351   0.0003477  -0.0004592
           19          20          21          22          23          24
    1  -0.0004637  -0.0001673   0.0001370  -0.0006469  -0.0002497   0.0004366
    2   0.0001470  -0.0003264   0.0001269  -0.0005225  -0.0002039  -0.0002441
    3  -0.0000080  -0.0000364   0.0002296   0.0001877  -0.0002212  -0.0005066
           25          26          27          28          29          30
    1   0.0000713   0.0000081  -0.0000805   0.0000319  -0.0000908   0.0001135
    2   0.0005112   0.0000056   0.0000700   0.0000351  -0.0000060   0.0001048
    3  -0.0000966   0.0001431   0.0000383  -0.0000391  -0.0000911   0.0000313
           31          32          33          34          35          36
    1   0.0000613   0.0001867  -0.0010521   0.0000006   0.0001498  -0.0002730
    2   0.0000013   0.0012139   0.0012380  -0.0000418   0.0002020  -0.0000633
    3   0.0000038   0.0001866  -0.0009367   0.0004561  -0.0000594  -0.0003092
           37          38          39          40          41          42
    1  -0.0008719  -0.0000068   0.0005017   0.0008372  -0.0003938   0.0002465
    2  -0.0006206  -0.0002390  -0.0006847   0.0004621   0.0001333  -0.0000193
    3   0.0004813   0.0002356   0.0002979  -0.0000174  -0.0003228  -0.0000655
           43          44          45          46          47          48
    1  -0.0000061  -0.0000099   0.0000202  -0.0000215  -0.0000838  -0.0002838
    2  -0.0001454   0.0000484  -0.0000533   0.0000305  -0.0001119   0.0000106
    3   0.0000367   0.0000057   0.0000931  -0.0000727   0.0002055  -0.0001359
           49          50          51          52          53          54
    1  -0.0036186  -0.0000224  -0.0002733   0.0028417   0.0010004  -0.0006619
    2   0.0019080   0.0000469  -0.0002368  -0.0000610   0.0002910  -0.0007882
    3  -0.0002443   0.0001401  -0.0006077  -0.0021466   0.0000584  -0.0006330
           55          56
    1  -0.0013144  -0.0014464
    2  -0.0011446  -0.0007463
    3   0.0014156   0.0010955
 Max gradient component =       5.946E-03
 RMS gradient           =       1.262E-03
 Gradient time:  CPU 30.86 s  wall 0.65 s
 Geometry Optimization Parameters
   NAtoms,    NIC,     NZ,  NCons,   NDum,   NFix, NCnnct, MaxDiis
       56     458       0       0       0       0       0       0

 Cartesian Hessian Update
 Hessian Updated using BFGS Update


** GEOMETRY OPTIMIZATION IN DELOCALIZED INTERNAL COORDINATES **
   Searching for a Minimum

   Optimization Cycle:   3

                       Coordinates (Angstroms)
     ATOM                X               Y               Z
      1  O         3.1827217843   -2.2682607152    1.7594191003
      2  C         2.7709047304   -1.4417606801    0.9183122350
      3  C         3.5683807478   -0.8893749274   -0.3231070395
      4  C         3.4786854186    0.6874149595   -0.5281931349
      5  C         2.4004574238    1.3996175763    0.3607991388
      6  O         1.2048443031    1.5127407026   -0.4219070090
      7  C         0.0626888486    1.8895283958    0.4434876446
      8  C        -0.9173999707    2.8142750573   -0.3667898020
      9  O        -2.0860257656    2.0515389672   -0.8693388151
     10  C        -2.9659147380    1.7056819386    0.2062040027
     11  C        -4.1040683112    0.8086890157   -0.3963879908
     12  C        -3.5965482362   -0.5710476357   -0.9820627615
     13  C        -2.0743368440   -0.8482562522   -0.7364230892
     14  O        -1.4305464671   -0.6587954339    0.3240223484
     15  O         1.4339157187   -0.9267895890    0.8919747686
     16  O        -1.5390861099   -1.4149220230   -1.9264650779
     17  O        -2.8294332011    2.0788791845    1.3901085013
     18  C        -0.1111001200   -1.7800899803   -1.7689138725
     19  C        -5.1283119880    0.3208432376    0.7113381999
     20  C        -6.4521919271   -0.1447943123   -0.0083265993
     21  C        -5.9801537045   -1.4986163915   -0.6588175346
     22  C        -4.4900644682   -1.5874133378   -0.1389114112
     23  O        -4.5394401294   -0.9510534008    1.1950395039
     24  H        -4.6079907849    1.3877319414   -1.1920188016
     25  H        -3.7892082485   -0.6506808167   -2.0660042556
     26  H        -5.2535857472    1.0305636049    1.5520265757
     27  H        -7.2524515248   -0.3108022384    0.7304227343
     28  H        -6.8045662701    0.5865553522   -0.7532986218
     29  H        -6.5685762578   -2.3537403904   -0.2900806123
     30  H        -6.0325965345   -1.4819571741   -1.7592169478
     31  H        -4.0757867016   -2.6120158991   -0.0674302798
     32  O         2.5354554242    1.8375522783    1.5243133111
     33  C         0.6821344416   -1.3071369920    2.1136995225
     34  C         5.1158303139   -1.0597183917   -0.0374511013
     35  C         5.9294393401   -0.7662168172   -1.3591456736
     36  C         5.8746845489    0.8060676919   -1.4130368959
     37  C         4.9636498210    1.1147415270   -0.1612459489
     38  O         5.4024705922    0.1067600090    0.8305126847
     39  H         3.2404089073   -1.4346810575   -1.2275362489
     40  H         3.2510286452    0.9198821126   -1.5835575001
     41  H         1.0256735402   -0.7079227828    2.9806194138
     42  H         5.3672167771   -2.0025748080    0.4863486583
     43  H         6.9634074385   -1.1346718272   -1.2677716217
     44  H         5.4643870113   -1.2363962451   -2.2405475832
     45  H         6.8749762198    1.2469573614   -1.2758340702
     46  H         5.4440679055    1.1886339063   -2.3522358279
     47  H         5.0547238226    2.1340719941    0.2611232761
     48  H         0.8090676613   -2.3831619919    2.3447010923
     49  H        -0.3776699253   -1.0778949633    1.8799253074
     50  H         0.2944900750   -1.8667722276   -2.7938486789
     51  H        -0.0184228530   -2.7614586836   -1.2597803184
     52  H         0.4703062835   -1.0269043640   -1.1927986100
     53  H        -1.2424094001    3.6707569750    0.2616623680
     54  H        -0.4131380800    3.1954512023   -1.2778611988
     55  H         0.4320141865    2.3799582656    1.3687176493
     56  H        -0.4832417428    0.9562691927    0.7215192191
   Point Group: c1    Number of degrees of freedom:   162


   Energy is  -1510.290458495

 Hessian Updated using BFGS Update

152 Hessian modes will be used to form the next step
  Hessian Eigenvalues:
     0.001141    0.002137    0.002220    0.002689    0.002809    0.003945
     0.004310    0.004449    0.004528    0.004598    0.004624    0.005385
     0.006199    0.006805    0.007332    0.011027    0.012668    0.020960
     0.021604    0.023682    0.024962    0.026491    0.030717    0.031358
     0.035326    0.035746    0.037457    0.040779    0.041135    0.041709
     0.042502    0.045292    0.045745    0.046999    0.047638    0.050349
     0.051169    0.051318    0.053493    0.053835    0.054327    0.054687
     0.054836    0.055475    0.056235    0.056458    0.058208    0.058983
     0.060565    0.061076    0.063622    0.063745    0.064126    0.064333
     0.069908    0.070153    0.072908    0.073056    0.078564    0.091530
     0.092416    0.092758    0.093516    0.094756    0.095473    0.098018
     0.098546    0.102847    0.104140    0.109792    0.110502    0.111254
     0.112844    0.115203    0.123361    0.138983    0.141753    0.151818
     0.157960    0.159602    0.160007    0.160171    0.163312    0.165368
     0.212718    0.219040    0.220692    0.224588    0.226179    0.235710
     0.237982    0.238432    0.239704    0.239829    0.241070    0.245455
     0.247965    0.249389    0.249959    0.249995    0.249996    0.250263
     0.253275    0.253766    0.255320    0.258434    0.259129    0.261641
     0.263206    0.291903    0.293019    0.306161    0.307679    0.318773
     0.322212    0.325203    0.325530    0.325582    0.326628    0.326954
     0.327837    0.328335    0.328619    0.328684    0.328812    0.329041
     0.330462    0.330735    0.330883    0.332153    0.332734    0.334752
     0.334897    0.334910    0.334941    0.334942    0.335020    0.335158
     0.335189    0.338112    0.340540    0.341617    0.343940    0.401774
     0.404957    0.407274    0.420759    0.807626    0.830182    0.836398
     0.836722    1.056117

 Minimum Search - Taking Simple RFO Step
 Searching for Lamda that Minimizes Along All modes
 Value Taken    Lamda =  -0.02749928
 Calculated Step too Large.  Step scaled by  0.438110
 Step Taken.  Stepsize is  0.300000

                             Maximum     Tolerance    Cnvgd?
         Gradient           0.057120      0.000300      NO
         Displacement       0.123189      0.001200      NO
         Energy change     -0.003025      0.000001      NO


 New Cartesian Coordinates Obtained by Inverse Iteration

 Displacement from previous Coordinates is:  5.536129
 Adding empirical dispersion correction 
 ----------------------------------------------------------------
 Doing -D3(op) with
 s6 =   1.00000
 s8 =   0.78311
 a1 =   0.30000
 a2 =   4.25000
 n  =  10.00000
 -D3 energy without 3body term =     -0.0755604123 hartrees
 ----------------------------------------------------------------
             Standard Nuclear Orientation (Angstroms)
    I     Atom           X                Y                Z
 ----------------------------------------------------------------
    1      O       3.5359492082    -2.4214865073     1.6828705802
    2      C       2.9842831624    -1.6366976712     0.8821076835
    3      C       3.6408732502    -0.9905240891    -0.3940874372
    4      C       3.3997849762     0.5753006775    -0.5903518038
    5      C       2.3347898895     1.2407460208     0.3532143235
    6      O       1.1174903093     1.3791233694    -0.3945653083
    7      C      -0.0030103519     1.7883713834     0.4881656512
    8      C      -0.9291578716     2.7604604388    -0.3367046277
    9      O      -2.1005443673     2.0413370662    -0.8887848598
   10      C      -3.0755673153     1.7906741414     0.1311005616
   11      C      -4.1792875558     0.8889097547    -0.5186736416
   12      C      -3.5998131833    -0.5165618276    -0.9289443099
   13      C      -2.1226444044    -0.6857757300    -0.4376583211
   14      O      -1.6726892498    -0.3652313354     0.6861899435
   15      O       1.6006979772    -1.2821331282     0.9346626781
   16      O      -1.3507907752    -1.3038899040    -1.4601846431
   17      O      -3.0322012276     2.2410152424     1.2951124415
   18      C       0.0325152008    -1.5100139785    -0.9750122108
   19      C      -5.3297978244     0.4786796940     0.4906090340
   20      C      -6.5532234806    -0.0531319123    -0.3515799208
   21      C      -6.0008579903    -1.4484330657    -0.8369502979
   22      C      -4.5863387414    -1.4817511008    -0.1306475585
   23      O      -4.8074846253    -0.7494173795     1.1348525209
   24      H      -4.5815998868     1.4120287574    -1.4058152892
   25      H      -3.6439399843    -0.6829487142    -2.0193258022
   26      H      -5.5542481228     1.2458906354     1.2567844389
   27      H      -7.4390329992    -0.1727043099     0.2924864413
   28      H      -6.8112037011     0.6176086733    -1.1869108227
   29      H      -6.6293220912    -2.2801361559    -0.4807234256
   30      H      -5.9166286603    -1.5142586956    -1.9335817873
   31      H      -4.1782146841    -2.4907123325     0.0737438777
   32      O       2.5163794522     1.7038812222     1.5003817210
   33      C       0.9726204357    -1.8071064932     2.1709960547
   34      C       5.2114570435    -1.0210977776    -0.2035259115
   35      C       5.9173364787    -0.6572115263    -1.5688664355
   36      C       5.7236785284     0.9030328768    -1.6100254490
   37      C       4.8625695953     1.1278262965    -0.3070441214
   38      O       5.4440987068     0.1641447095     0.6541855572
   39      H       3.3138055669    -1.5654909381    -1.2803547438
   40      H       3.0994363964     0.7880438844    -1.6317633462
   41      H       1.2809602490    -1.2060971821     3.0505300579
   42      H       5.5753935010    -1.9395077536     0.2969919592
   43      H       6.9830053865    -0.9340432179    -1.5405094973
   44      H       5.4437258849    -1.1652337677    -2.4243751491
   45      H       6.6878814343     1.4296250858    -1.5275622319
   46      H       5.2078259050     1.2478463960    -2.5204641958
   47      H       4.8880467224     2.1521339781     0.1123217775
   48      H       1.2486835051    -2.8662482602     2.3430618316
   49      H      -0.1169929251    -1.7176397173     2.0055366454
   50      H       0.6630293244    -1.6376301005    -1.8745917703
   51      H       0.0944897043    -2.4247001895    -0.3496845012
   52      H       0.3880504677    -0.6470090520    -0.3741218646
   53      H      -1.2374014246     3.6361134565     0.2740074023
   54      H      -0.3775947456     3.1120027712    -1.2318356988
   55      H       0.3798338521     2.2522064192     1.4215665546
   56      H      -0.5853380451     0.8731009621     0.7436995685
 ----------------------------------------------------------------
 Molecular Point Group                 C1    NOp =  1
 Largest Abelian Subgroup              C1    NOp =  1
 Nuclear Repulsion Energy =  3252.4712283879 hartrees
 There are      113 alpha and      113 beta electrons
 Applying Cartesian multipole field
    Component          Value
    ---------          -----
     (2,0,0)        1.00000E-12
     (0,2,0)        2.00000E-11
     (0,0,2)       -3.00000E-11
 Nucleus-field energy     =     0.0000000190 hartrees
 Requested basis set is STO-3G
 There are 86 shells and 176 basis functions
 A cutoff of  1.0D-12 yielded   2335 shell pairs
 There are     10966 function pairs
 Smallest overlap matrix eigenvalue = 2.13E-01
 Guess MOs from SCF MO coefficient file
 Reading MOs from coefficient file
 Reading MOs from coefficient file
 A restricted hybrid HF-DFT SCF calculation will be
[...]
      7  C         0.0764074056    1.6912398451    0.6459084411
      8  C        -0.8942608306    2.6768482015   -0.0915626007
      9  O        -1.9979614351    1.9353555408   -0.7518936553
     10  C        -3.1006812915    1.7894920170    0.1561408986
     11  C        -4.1976416842    0.8998129439   -0.5283396531
     12  C        -3.6931237835   -0.5577606158   -0.9078731995
     13  C        -2.1773099335   -0.7924058956   -0.5821676827
     14  O        -1.6420657915   -0.7768678870    0.5537014389
     15  O         1.7144679144   -1.3644378106    0.8514238900
     16  O        -1.5023648384   -1.0372448073   -1.8070849316
     17  O        -3.1554749394    2.3158774409    1.2878150105
     18  C        -0.0408467477   -1.1934614861   -1.5972902956
     19  C        -5.3527472743    0.5646736013    0.5007895414
     20  C        -6.5916078516   -0.0086685971   -0.2916927459
     21  C        -6.0840912504   -1.4575105008   -0.6428061267
     22  C        -4.6456893244   -1.4418390830    0.0094136165
     23  O        -4.8226403207   -0.6158048204    1.2238495099
     24  H        -4.5721561078    1.4295180779   -1.4234459783
     25  H        -3.8451773350   -0.7659421434   -1.9811229585
     26  H        -5.5674637377    1.3858975260    1.2117100019
     27  H        -7.4820556955   -0.0391056310    0.3560948198
     28  H        -6.8269518402    0.5890141405   -1.1871156651
     29  H        -6.7108766110   -2.2305551395   -0.1704468554
     30  H        -6.0480658196   -1.6456690484   -1.7277495087
     31  H        -4.2358299586   -2.4360131831    0.2734739112
     32  O         2.5693222106    1.3766429879    1.5450329491
     33  C         0.8816649991   -1.7604668920    2.0091322396
     34  C         5.3977634978   -0.8359208825    0.0691557165
     35  C         6.1316178148   -0.7238877979   -1.3234051924
     36  C         5.6708129562    0.7064697430   -1.7935199839
     37  C         4.7872476195    1.1637348732   -0.5653222510
     38  O         5.4571240453    0.5463373748    0.6012094631
     39  H         3.6853025783   -1.7808689730   -1.0221034745
     40  H         2.9612903892    0.4004328664   -1.6462558108
     41  H         1.1350114196   -1.1609406005    2.9066732957
     42  H         5.8349812853   -1.5495669538    0.7944454628
     43  H         7.2238187696   -0.7703999435   -1.1873164782
     44  H         5.8280879425   -1.5208453439   -2.0209789799
     45  H         6.5276882584    1.3860157552   -1.9247712413
     46  H         5.0931352724    0.6807769392   -2.7314806937
     47  H         4.7000565792    2.2587592356   -0.4263986417
     48  H         1.0057502931   -2.8356526321    2.2490346998
     49  H        -0.1597272310   -1.5479973391    1.6860369738
     50  H         0.3815682692   -1.3787272239   -2.6014955639
     51  H         0.1825572007   -2.0566886050   -0.9396886574
     52  H         0.4133681142   -0.2740277731   -1.1490025514
     53  H        -1.3176447182    3.3916833081    0.6462418785
     54  H        -0.3569267727    3.2262588636   -0.8910476184
     55  H         0.5927423089    2.1799051096    1.4992866875
     56  H        -0.5092144333    0.8145223754    1.0099172004
   Point Group: c1    Number of degrees of freedom:   162


   Energy is  -1510.300266693

 Hessian Updated using BFGS Update

162 Hessian modes will be used to form the next step
  Hessian Eigenvalues:
     0.001497    0.002302    0.002449    0.002515    0.002998    0.004501
     0.004733    0.005607    0.006309    0.007256    0.012517    0.013886
     0.017380    0.019774    0.021791    0.021954    0.024224    0.025671
     0.027242    0.030012    0.031218    0.031987    0.034397    0.035195
     0.039345    0.039929    0.040202    0.041602    0.042436    0.043424
     0.043531    0.045766    0.047522    0.048650    0.050938    0.052016
     0.052509    0.053454    0.054437    0.054592    0.054820    0.055007
     0.056121    0.056308    0.057098    0.057715    0.059013    0.061921
     0.063389    0.063780    0.064011    0.064143    0.064337    0.068083
     0.069999    0.070663    0.072337    0.073256    0.074389    0.084879
     0.088695    0.092840    0.093028    0.097778    0.098760    0.099818
     0.100016    0.103786    0.104230    0.106429    0.110761    0.114008
     0.115233    0.121012    0.126429    0.141219    0.142133    0.144798
     0.158892    0.159559    0.160281    0.161141    0.161456    0.162327
     0.165474    0.166703    0.181337    0.201166    0.211521    0.220527
     0.222786    0.234325    0.235130    0.237773    0.239331    0.239677
     0.240613    0.245082    0.246432    0.247860    0.249203    0.249706
     0.250293    0.251789    0.253326    0.253875    0.254731    0.256873
     0.257854    0.259710    0.262757    0.268467    0.276266    0.292226
     0.292480    0.295144    0.305930    0.308112    0.318217    0.321978
     0.325207    0.325506    0.326193    0.326984    0.327254    0.328170
     0.328311    0.328623    0.328700    0.328816    0.329040    0.330318
     0.330469    0.330931    0.332153    0.332706    0.333735    0.334753
     0.334896    0.334907    0.334933    0.334943    0.335021    0.335159
     0.335192    0.340166    0.344062    0.349373    0.371281    0.395676
     0.400814    0.412548    0.441627    0.466653    0.527246    0.760810
     0.806912    0.832989    0.836666    0.845591    0.907707    2.794123

 Minimum Search - Taking Simple RFO Step
 Searching for Lamda that Minimizes Along All modes
 Value Taken    Lamda =  -0.00000129
 Step Taken.  Stepsize is  0.016744

                             Maximum     Tolerance    Cnvgd?
         Gradient           0.000147      0.000300     YES
         Displacement       0.005693      0.001200      NO
         Energy change      0.000001      0.000001     YES

 Final energy is   -1510.30026669303     


 ******************************
 **  OPTIMIZATION CONVERGED  **
 ******************************

                       Coordinates (Angstroms)
     ATOM                X               Y               Z
      1  O         3.5920021746   -2.1362391502    2.0902167811
      2  C         3.1060176310   -1.5964219222    1.0755294195
      3  C         3.8548917555   -1.0618469065   -0.1991840751
      4  C         3.3968965758    0.3966886902   -0.6320389216
      5  C         2.3619240060    1.0209474183    0.3653575875
      6  O         1.1008441504    1.2021608124   -0.3130371204
      7  C         0.0764074056    1.6912398451    0.6459084411
      8  C        -0.8942608306    2.6768482015   -0.0915626007
      9  O        -1.9979614351    1.9353555408   -0.7518936553
     10  C        -3.1006812915    1.7894920170    0.1561408986
     11  C        -4.1976416842    0.8998129439   -0.5283396531
     12  C        -3.6931237835   -0.5577606158   -0.9078731995
     13  C        -2.1773099335   -0.7924058956   -0.5821676827
     14  O        -1.6420657915   -0.7768678870    0.5537014389
     15  O         1.7144679144   -1.3644378106    0.8514238900
     16  O        -1.5023648384   -1.0372448073   -1.8070849316
     17  O        -3.1554749394    2.3158774409    1.2878150105
     18  C        -0.0408467477   -1.1934614861   -1.5972902956
     19  C        -5.3527472743    0.5646736013    0.5007895414
     20  C        -6.5916078516   -0.0086685971   -0.2916927459
     21  C        -6.0840912504   -1.4575105008   -0.6428061267
     22  C        -4.6456893244   -1.4418390830    0.0094136165
     23  O        -4.8226403207   -0.6158048204    1.2238495099
     24  H        -4.5721561078    1.4295180779   -1.4234459783
     25  H        -3.8451773350   -0.7659421434   -1.9811229585
     26  H        -5.5674637377    1.3858975260    1.2117100019
     27  H        -7.4820556955   -0.0391056310    0.3560948198
     28  H        -6.8269518402    0.5890141405   -1.1871156651
     29  H        -6.7108766110   -2.2305551395   -0.1704468554
     30  H        -6.0480658196   -1.6456690484   -1.7277495087
     31  H        -4.2358299586   -2.4360131831    0.2734739112
     32  O         2.5693222106    1.3766429879    1.5450329491
     33  C         0.8816649991   -1.7604668920    2.0091322396
     34  C         5.3977634978   -0.8359208825    0.0691557165
     35  C         6.1316178148   -0.7238877979   -1.3234051924
     36  C         5.6708129562    0.7064697430   -1.7935199839
     37  C         4.7872476195    1.1637348732   -0.5653222510
     38  O         5.4571240453    0.5463373748    0.6012094631
     39  H         3.6853025783   -1.7808689730   -1.0221034745
     40  H         2.9612903892    0.4004328664   -1.6462558108
     41  H         1.1350114196   -1.1609406005    2.9066732957
     42  H         5.8349812853   -1.5495669538    0.7944454628
     43  H         7.2238187696   -0.7703999435   -1.1873164782
     44  H         5.8280879425   -1.5208453439   -2.0209789799
     45  H         6.5276882584    1.3860157552   -1.9247712413
     46  H         5.0931352724    0.6807769392   -2.7314806937
     47  H         4.7000565792    2.2587592356   -0.4263986417
     48  H         1.0057502931   -2.8356526321    2.2490346998
     49  H        -0.1597272310   -1.5479973391    1.6860369738
     50  H         0.3815682692   -1.3787272239   -2.6014955639
     51  H         0.1825572007   -2.0566886050   -0.9396886574
     52  H         0.4133681142   -0.2740277731   -1.1490025514
     53  H        -1.3176447182    3.3916833081    0.6462418785
     54  H        -0.3569267727    3.2262588636   -0.8910476184
     55  H         0.5927423089    2.1799051096    1.4992866875
     56  H        -0.5092144333    0.8145223754    1.0099172004

Z-matrix Print:
$molecule
0 1
O 
C  1 1.443392
O  2 1.249467 1 123.575182
C  1 1.486017 2 109.897132 3 -7.487857 0
H  4 1.110698 1 108.671051 2 22.837557 0
H  4 1.115387 1 108.291825 2 -96.420672 0
C  2 1.567057 1 109.141608 3 -177.036265 0
H  7 1.103813 2 108.833720 1 9.081229 0
C  4 1.567636 1 109.281486 2 145.179731 0
H  9 1.108944 4 110.525334 1 -31.713914 0
H  9 1.111125 4 109.150207 1 -153.015353 0
O  9 1.484589 4 110.827444 1 86.340871 0
C  12 1.435895 9 109.900981 4 89.551921 0
O  13 1.249308 12 124.313365 9 5.823750 0
C  13 1.569511 12 108.574686 9 -175.273044 0
H  15 1.105470 13 108.559355 12 -63.430596 0
C  15 1.582938 13 110.273251 12 173.060174 0
H  17 1.107213 15 113.698257 13 34.933611 0
O  17 1.482349 15 102.989403 13 -84.403794 0
C  19 1.479358 17 94.991677 15 -57.446064 0
H  20 1.107292 19 110.477403 17 179.881736 0
C  17 1.578457 15 108.857776 13 166.020136 0
H  22 1.101568 17 110.440160 15 -167.333476 0
H  22 1.101995 17 112.244572 15 -45.893761 0
C  22 1.574800 17 101.138261 15 74.522663 0
H  25 1.101627 22 111.508593 17 117.064919 0
H  25 1.101728 22 112.781863 17 -120.268821 0
C  15 1.588428 13 113.726147 12 60.298370 0
H  28 1.103778 15 111.201204 13 -124.361076 0
C  28 1.568067 15 113.248467 13 -2.697865 0
O  30 1.255757 28 126.730956 15 63.535237 0
O  30 1.419831 28 107.826551 15 -116.810591 0
C  32 1.484740 30 111.356865 28 176.721936 0
H  33 1.105073 32 105.397168 30 179.947535 0
H  33 1.107931 32 111.366427 30 61.448772 0
H  33 1.119210 32 111.694034 30 -60.287930 0
C  7 1.588851 2 112.499379 1 -115.057735 0
H  37 1.105870 7 110.482832 2 125.083406 0
C  37 1.572093 7 113.311971 2 3.723339 0
O  39 1.247868 37 128.382169 7 -132.373823 0
O  39 1.428443 37 106.356740 7 48.484000 0
C  41 1.480097 39 112.455495 37 -177.143612 0
H  42 1.108591 41 111.456457 39 -59.215577 0
H  42 1.108691 41 111.097342 39 62.413583 0
H  42 1.110870 41 104.406674 39 -178.751869 0
C  37 1.582246 7 101.315324 2 -116.492271 0
H  46 1.107472 37 113.829805 7 153.752551 0
O  46 1.482310 37 103.478074 7 33.796665 0
C  48 1.480105 46 95.046233 37 -56.409689 0
H  49 1.107240 48 110.443385 46 -179.709583 0
C  46 1.578075 37 108.296770 7 -75.498367 0
H  51 1.101629 46 110.428753 37 -168.579573 0
H  51 1.101763 46 112.287002 37 -47.069876 0
C  51 1.574570 46 101.061716 37 73.379124 0
H  54 1.101474 51 111.613802 46 118.834531 0
H  54 1.101881 51 112.730543 46 -118.475013 0
$end

 
 --------------------------------------------------------------
 
                    Orbital Energies (a.u.)
 --------------------------------------------------------------
 
 Alpha MOs
 -- Occupied --
-18.938 -18.937 -18.935 -18.933 -18.889 -18.888 -18.882 -18.879
-18.877 -18.874 -10.104 -10.103 -10.103 -10.100 -10.073 -10.062
-10.062 -10.060 -10.059 -10.058 -10.050 -10.042 -10.041 -10.040
-10.039 -10.038 -10.022 -10.022 -10.021 -10.021  -1.019  -1.015
 -1.009  -1.006  -0.971  -0.970  -0.943  -0.938  -0.937  -0.936
 -0.766  -0.764  -0.729  -0.724  -0.712  -0.707  -0.698  -0.657
 -0.655  -0.618  -0.598  -0.581  -0.549  -0.545  -0.539  -0.537
 -0.512  -0.511  -0.486  -0.474  -0.459  -0.458  -0.455  -0.453
 -0.437  -0.432  -0.430  -0.418  -0.416  -0.409  -0.401  -0.398
 -0.391  -0.383  -0.372  -0.368  -0.364  -0.362  -0.355  -0.352
 -0.342  -0.341  -0.338  -0.332  -0.331  -0.327  -0.325  -0.312
 -0.311  -0.307  -0.306  -0.302  -0.292  -0.289  -0.285  -0.275
 -0.273  -0.263  -0.254  -0.245  -0.242  -0.235  -0.234  -0.185
 -0.178  -0.174  -0.171  -0.162  -0.159  -0.153  -0.151  -0.145
 -0.144
 -- Virtual --
  0.087   0.093   0.103   0.109   0.224   0.227   0.252   0.256
  0.260   0.263   0.283   0.283   0.298   0.306   0.323   0.330
  0.335   0.339   0.345   0.346   0.358   0.360   0.370   0.375
  0.379   0.382   0.383   0.397   0.400   0.407   0.409   0.411
  0.416   0.417   0.419   0.420   0.428   0.430   0.432   0.434
  0.437   0.438   0.441   0.443   0.447   0.459   0.465   0.465
  0.482   0.485   0.487   0.487   0.497   0.504   0.510   0.539
  0.540   0.550   0.550   0.638   0.643   0.649   0.656
 --------------------------------------------------------------
 
          Ground-State Mulliken Net Atomic Charges

     Atom                 Charge (a.u.)
  ----------------------------------------
      1 O                    -0.205719
      2 C                     0.213108
      3 C                    -0.078567
      4 C                    -0.078790
      5 C                     0.216394
      6 O                    -0.174900
      7 C                    -0.064340
      8 C                    -0.053455
      9 O                    -0.174823
     10 C                     0.210707
     11 C                    -0.078185
     12 C                    -0.079226
     13 C                     0.217746
     14 O                    -0.227573
     15 O                    -0.176585
     16 O                    -0.166091
     17 O                    -0.208322
     18 C                    -0.147890
     19 C                     0.024469
     20 C                    -0.144203
     21 C                    -0.143648
     22 C                     0.025507
     23 O                    -0.186465
     24 H                     0.085979
     25 H                     0.087184
     26 H                     0.090675
     27 H                     0.078754
     28 H                     0.073243
     29 H                     0.078398
     30 H                     0.073773
     31 H                     0.083046
     32 O                    -0.211399
     33 C                    -0.140137
     34 C                     0.023900
     35 C                    -0.143681
     36 C                    -0.144155
     37 C                     0.025829
     38 O                    -0.185511
     39 H                     0.083554
     40 H                     0.084711
     41 H                     0.089106
     42 H                     0.091193
     43 H                     0.078772
     44 H                     0.072782
     45 H                     0.078566
     46 H                     0.072941
     47 H                     0.083669
     48 H                     0.084120
     49 H                     0.112321
     50 H                     0.079248
     51 H                     0.083759
     52 H                     0.113794
     53 H                     0.099187
     54 H                     0.091957
     55 H                     0.100251
     56 H                     0.105020
  ----------------------------------------
  Sum of atomic charges =    -0.000000

 -----------------------------------------------------------------
                    Cartesian Multipole Moments
 -----------------------------------------------------------------
    Charge (ESU x 10^10)
                -0.0000
    Dipole Moment (Debye)
         X      -1.3567      Y      -0.3078      Z      -4.6873
       Tot       4.8894
    Quadrupole Moments (Debye-Ang)
        XX    -152.9591     XY       0.0939     YY    -154.7673
        XZ      -6.2411     YZ      -0.5655     ZZ    -167.8609
    Octopole Moments (Debye-Ang^2)
       XXX     -83.4487    XXY     -11.9763    XYY      -3.8284
       YYY       3.4218    XXZ    -102.3090    XYZ       5.9821
       YYZ      -7.1631    XZZ      -0.8748    YZZ      -2.8080
       ZZZ      -2.6110
    Hexadecapole Moments (Debye-Ang^3)
      XXXX  -14149.4814   XXXY      55.5016   XXYY   -2746.7170
      XYYY     166.7553   YYYY   -1890.8629   XXXZ    -103.0656
      XXYZ      10.8407   XYYZ     -12.9729   YYYZ      29.8693
      XXZZ   -2774.8845   XYZZ      52.2563   YYZZ    -564.2528
      XZZZ      20.0872   YZZZ      46.3288   ZZZZ   -1279.9333
 -----------------------------------------------------------------
Archival summary:
1\1\vega02.cac.cornell.edu\OPT\ProcedureUnspecified\STO-3G\102026\jj585\TueJan1619:59:132018TueJan1619:59:132018\0\\#,OPT,ProcedureUnspecified,STO-3G,\\0,1\O\C,1,1.44339\O,2,1.24947,1,123.575\C,1,1.48602,2,109.897,3,-7.48786,0\H,4,1.1107,1,108.671,2,22.8376,0\H,4,1.11539,1,108.292,2,-96.4207,0\C,2,1.56706,1,109.142,3,-177.036,0\H,7,1.10381,2,108.834,1,9.08123,0\C,4,1.56764,1,109.281,2,145.18,0\H,9,1.10894,4,110.525,1,-31.7139,0\H,9,1.11112,4,109.15,1,-153.015,0\O,9,1.48459,4,110.827,1,86.3409,0\C,12,1.43589,9,109.901,4,89.5519,0\O,13,1.24931,12,124.313,9,5.82375,0\C,13,1.56951,12,108.575,9,-175.273,0\H,15,1.10547,13,108.559,12,-63.4306,0\C,15,1.58294,13,110.273,12,173.06,0\H,17,1.10721,15,113.698,13,34.9336,0\O,17,1.48235,15,102.989,13,-84.4038,0\C,19,1.47936,17,94.9917,15,-57.4461,0\H,20,1.10729,19,110.477,17,179.882,0\C,17,1.57846,15,108.858,13,166.02,0\H,22,1.10157,17,110.44,15,-167.333,0\H,22,1.102,17,112.245,15,-45.8938,0\C,22,1.5748,17,101.138,15,74.5227,0\H,25,1.10163,22,111.509,17,117.065,0\H,25,1.10173,22,112.782,17,-120.269,0\C,15,1.58843,13,113.726,12,60.2984,0\H,28,1.10378,15,111.201,13,-124.361,0\C,28,1.56807,15,113.248,13,-2.69786,0\O,30,1.25576,28,126.731,15,63.5352,0\O,30,1.41983,28,107.827,15,-116.811,0\C,32,1.48474,30,111.357,28,176.722,0\H,33,1.10507,32,105.397,30,179.948,0\H,33,1.10793,32,111.366,30,61.4488,0\H,33,1.11921,32,111.694,30,-60.2879,0\C,7,1.58885,2,112.499,1,-115.058,0\H,37,1.10587,7,110.483,2,125.083,0\C,37,1.57209,7,113.312,2,3.72334,0\O,39,1.24787,37,128.382,7,-132.374,0\O,39,1.42844,37,106.357,7,48.484,0\C,41,1.4801,39,112.455,37,-177.144,0\H,42,1.10859,41,111.456,39,-59.2156,0\H,42,1.10869,41,111.097,39,62.4136,0\H,42,1.11087,41,104.407,39,-178.752,0\C,37,1.58225,7,101.315,2,-116.492,0\H,46,1.10747,37,113.83,7,153.753,0\O,46,1.48231,37,103.478,7,33.7967,0\C,48,1.4801,46,95.0462,37,-56.4097,0\H,49,1.10724,48,110.443,46,-179.71,0\C,46,1.57807,37,108.297,7,-75.4984,0\H,51,1.10163,46,110.429,37,-168.58,0\H,51,1.10176,46,112.287,37,-47.0699,0\C,51,1.57457,46,101.062,37,73.3791,0\H,54,1.10147,51,111.614,46,118.835,0\H,54,1.10188,51,112.731,46,-118.475,0\\\@

 Total job time:  92.82s(wall), 4426.65s(cpu) 
 Tue Jan 16 19:59:13 2018

        *************************************************************
        *                                                           *
        *  Thank you very much for using Q-Chem.  Have a nice day.  *
        *                                                           *
        *************************************************************


0 sent ACK to 0 
now end server 0 ... 
