mFile = /opt/software/qchem/qchem-5.0.1//bin/mpi/machines
Process 0 of 1 is on vega02.cac.cornell.edu - thread support 0
initial socket setup ...start
initial socket setup ...done 
now start server 0 ... 
vega02.cac.cornell.edu 10.84.3
Q-Chem Developer Version! Running on 10.84.3.*
                  Welcome to Q-Chem
     A Quantum Leap Into The Future Of Chemistry


 Q-Chem 5.0, Q-Chem, Inc., Pleasanton, CA (2017)

 Yihan Shao,  Zhengting Gan,  E. Epifanovsky,  A. T. B. Gilbert,  M. Wormit,  
 J. Kussmann,  A. W. Lange,  A. Behn,  Jia Deng,  Xintian Feng,  D. Ghosh,  
 M. Goldey,  P. R. Horn,  L. D. Jacobson,  I. Kaliman,  T. Kus,  A. Landau,  
 Jie Liu,  E. I. Proynov,  R. M. Richard,  R. P. Steele,  E. J. Sundstrom,  
 H. L. Woodcock III,  P. M. Zimmerman,  D. Zuev,  B. Albrecht,  E. Alguire,  
 S. A. Baeppler,  Z. Benda,  Y. A. Bernard,  E. J. Berquist,  K. B. Bravaya,  
 D. Casanova,  Chun-Min Chang,  Yunqing Chen,  A. Chien,  K. D. Closser,  
 M. P. Coons,  S. Dasgupta,  M. Diedenhofen,  Hainam Do,  R. G. Edgar,  
 Po-Tung Fang,  S. Fatehi,  Qingguo Feng,  Qinghui Ge,  A. Ghysels,  
 J. Gomes,  J. Gonthier,  A. Gunina,  M. W. D. Hanson-Heine,  
 P. H. P. Harbach,  A. W. Hauser,  J. E. Herr,  E. G. Hohenstein,  
 Z. C. Holden,  Kerwin Hui,  T.-C. Jagau,  Hyunjun Ji,  B. Kaduk,  
 K. Khistyaev,  Jaehoon Kim,  P. Klunzinger,  K. Koh,  D. Kosenkov,  
 T. Kowalczyk,  C. M. Krauter,  A. Kunitsa,  Ka Un Lao,  A. Laurent,  
 K. V. Lawler,  Joonho Lee,  D. Lefrancois,  S. Lehtola,  D. S. Levine,  
 Yi-Pei Li,  You-Sheng Lin,  Fenglai Liu,  E. Livshits,  A. Luenser,  
 P. Manohar,  E. Mansoor,  S. F. Manzer,  Shan-Ping Mao,  Yuezhi Mao,  
 N. Mardirossian,  A. V. Marenich,  L. A. Martinez-Martinez,  S. A. Maurer,  
 N. J. Mayhall,  S. C. McKenzie,  J.-M. Mewes,  A. F. Morrison,  K. Nanda,  
 T. S. Nguyen-Beck,  R. Olivares-Amaya,  J. A. Parkhill,  T. M. Perrine,  
 F. Plasser,  S. Prager,  A. Prociuk,  D. R. Rehn,  F. Rob,  M. Schneider,  
 N. Sergueev,  S. M. Sharada,  S. Sharma,  D. W. Small,  T. Stauch,  
 T. Stein,  Yu-Chuan Su,  A. J. W. Thom,  T. Tsuchimochi,  L. Vogt,  
 O. Vydrov,  M. A. Watson,  J. Wenzel,  M. de Wergifosse,  T. A. Wesolowski,  
 A. White,  J. Witte,  A. Yamada,  Jun Yang,  K. Yao,  S. Yeganeh,  
 S. R. Yost,  Zhi-Qiang You,  A. Zech,  Igor Ying Zhang,  Xing Zhang,  
 Yan Zhao,  Ying Zhu,  B. R. Brooks,  G. K. L. Chan,  C. J. Cramer,  
 M. S. Gordon,  W. J. Hehre,  A. Klamt,  M. W. Schmidt,  C. D. Sherrill,  
 D. G. Truhlar,  A. Aspuru-Guzik,  R. Baer,  A. T. Bell,  N. A. Besley,  
 Jeng-Da Chai,  A. Dreuw,  B. D. Dunietz,  T. R. Furlani,  Chao-Ping Hsu,  
 Yousung Jung,  Jing Kong,  D. S. Lambrecht,  WanZhen Liang,  C. Ochsenfeld,  
 V. A. Rassolov,  L. V. Slipchenko,  J. E. Subotnik,  T. Van Voorhis,  
 J. M. Herbert,  A. I. Krylov,  P. M. W. Gill,  M. Head-Gordon

 Contributors to earlier versions of Q-Chem not listed above: 
 R. D. Adamson,  B. Austin,  J. Baker,  G. J. O. Beran,  K. Brandhorst,  
 S. T. Brown,  E. F. C. Byrd,  A. K. Chakraborty,  C.-L. Cheng,  
 Siu Hung Chien,  D. M. Chipman,  D. L. Crittenden,  H. Dachsel,  
 R. A. DiStasio Jr.,  R. J. Doerksen,  A. D. Dutoi,  L. Fusti-Molnar,  
 W. A. Goddard III,  A. Golubeva-Zadorozhnaya,  S. R. Gwaltney,  G. Hawkins,  
 A. Heyden,  S. Hirata,  G. Kedziora,  F. J. Keil,  C. Kelley,  Jihan Kim,  
 R. A. King,  R. Z. Khaliullin,  P. P. Korambath,  W. Kurlancheek,  
 A. M. Lee,  M. S. Lee,  S. V. Levchenko,  Ching Yeh Lin,  D. Liotard,  
 R. C. Lochan,  I. Lotan,  P. E. Maslen,  N. Nair,  D. P. O'Neill,  
 D. Neuhauser,  E. Neuscamman,  C. M. Oana,  R. Olson,  B. Peters,  
 R. Peverati,  P. A. Pieniazek,  Y. M. Rhee,  J. Ritchie,  M. A. Rohrdanz,  
 E. Rosta,  N. J. Russ,  H. F. Schaefer III,  N. E. Schultz,  N. Shenvi,  
 A. C. Simmonett,  A. Sodt,  D. Stuck,  K. S. Thanthiriwatte,  V. Vanovschi,  
 Tao Wang,  A. Warshel,  C. F. Williams,  Q. Wu,  X. Xu,  W. Zhang

 Please cite Q-Chem as follows:
 Y. Shao et al., Mol. Phys. 113, 184-215 (2015)
 DOI: 10.1080/00268976.2014.952696

 Q-Chem 5.0.1 for Intel X86 EM64T Linux

 Parts of Q-Chem use Armadillo 5.200.1 (Boston Tea Smuggler).
 http://arma.sourceforge.net/

 Q-Chem begins on Tue Jan 16 20:42:05 2018  

Host: vega02.cac.cornell.edu
0

     Scratch files written to /scratch/jj585/SOT1001/1269c.save//
 Parallel job on  1  processors

Checking the input file for inconsistencies... 	...done.

--------------------------------------------------------------
User input:
--------------------------------------------------------------
$molecule
0  1
O -3.94934 -3.66094 2.70899
C -3.26408 -4.56952 2.26188
C -3.36658 -6.02376 2.66595
C -4.77372 -6.64113 2.71769
C -5.90468 -5.78727 2.1886
O -6.56241 -6.45291 1.19375
C -7.25064 -7.61977 1.65639
C -6.48105 -8.87556 1.26033
O -6.10192 -8.80132 -0.12302
C -4.94592 -8.13893 -0.37607
C -4.36332 -8.46828 -1.72986
C -4.55442 -7.38205 -2.79845
C -4.96444 -6.016 -2.28613
O -5.30696 -5.76218 -1.14035
O -2.33934 -4.2915 1.30802
O -4.99288 -5.01702 -3.20764
O -4.33569 -7.4212 0.36801
C -5.34369 -3.71282 -2.92784
C -2.83121 -8.62464 -1.73518
C -2.40477 -9.48127 -2.92576
C -2.68334 -8.53 -4.07215
C -3.09774 -7.2745 -3.29526
O -2.35659 -7.35252 -2.10031
H -4.82537 -9.42498 -2.06763
H -5.27289 -7.66991 -3.59713
H -2.42997 -9.04733 -0.78792
H -1.30353 -9.6257 -2.84312
H -2.89862 -10.47377 -3.00252
H -1.73166 -8.3575 -4.62226
H -3.47919 -8.85406 -4.77729
H -2.92234 -6.36771 -3.9148
O -6.25005 -4.67816 2.57096
C -2.12023 -3.03601 0.78177
C -2.43789 -7.27673 2.61147
C -2.03177 -7.6626 4.02892
C -3.41863 -8.01753 4.58416
C -4.28831 -8.03581 3.27927
O -3.30502 -8.36985 2.33681
H -3.19095 -5.67266 3.71229
H -5.18214 -6.40284 3.72803
H -1.80846 -2.33332 1.58384
H -1.59559 -7.17301 1.89548
H -1.41482 -8.58604 3.94001
H -1.4705 -6.90458 4.61686
H -3.34057 -9.02069 5.05919
H -3.83025 -7.29544 5.32208
H -5.10272 -8.73054 3.55312
H -3.04386 -2.66123 0.29066
H -1.31236 -3.09541 0.02394
H -5.27947 -3.11126 -3.85757
H -4.6486 -3.28345 -2.17457
H -6.3857 -3.6701 -2.54475
H -5.6273 -9.2893 1.76543
H -7.21176 -9.70407 1.3759
H -8.23762 -7.62384 1.14608
H -7.45021 -7.63117 2.7537
$end

$opt
CONSTRAINT
tors           1           2           3           4     +47.368
tors           3           4           5           6    +123.158
tors           4           5           6           7     +66.316
tors           5           6           7           8    -104.211
tors           6           7           8           9     -47.368
tors           7           8           9          10     +85.263
tors           8           9          10          11    +161.053
tors           9          10          11          12    +104.211
tors          11          12          13          14      -9.474
ENDCONSTRAINT
$end

$rem
JOBTYPE                   OPT
METHOD                    B3LYP
DFT_D                     d3_op
BASIS                     STO-3G
GEOM_OPT_MAX_CYCLES       100
GEOM_OPT_TOL_GRADIENT     300
GEOM_OPT_TOL_DISPLACEMENT 1200
GEOM_OPT_TOL_ENERGY       100
SYMMETRY                  False
THRESH                    12
SCF_CONVERGENCE           8
MAX_SUB_FILE_NUM          128
MEM_STATIC                400
MEM_TOTAL                 4000
$end
--------------------------------------------------------------
 Adding empirical dispersion correction 
 ----------------------------------------------------------------
 Doing -D3(op) with
 s6 =   1.00000
 s8 =   0.78311
 a1 =   0.30000
 a2 =   4.25000
 n  =  10.00000
 -D3 energy without 3body term =     -0.0749756471 hartrees
 ----------------------------------------------------------------
             Standard Nuclear Orientation (Angstroms)
    I     Atom           X                Y                Z
 ----------------------------------------------------------------
    1      O      -2.7858765335    -2.7139256888    -0.3317564029
    2      C      -2.1902643612    -1.8815492448    -1.0006374325
    3      C      -2.3881679052    -0.3842533018    -0.9138512645
    4      C      -2.4031351856     0.2423009847     0.4900972497
    5      C      -2.0414321208    -0.6712217243     1.6401975942
    6      O      -0.9870039298    -0.1489992688     2.3336503914
    7      C      -1.3047208487     1.0754358648     3.0037795769
    8      C      -0.7074742023     2.2582622139     2.2485583597
    9      O       0.6643263098     1.9872128231     1.9205279648
   10      C       0.8629741127     1.2890996134     0.7749679221
   11      C       2.2699605331     1.4205951263     0.2422957062
   12      C       3.1666378286     0.1954448437     0.4731117017
   13      C       2.4518346459    -1.0821778731     0.8647970204
   14      O       1.2700171508    -1.1696581012     1.1651484296
   15      O      -1.2523672616    -2.2968042871    -1.8895695829
   16      O       3.2212403128    -2.2011147007     0.9276130187
   17      O       0.0475451304     0.6801649969     0.1382213007
   18      C       2.7473584773    -3.4506884633     1.2686331854
   19      C       2.3529063154     1.5658410313    -1.2886717749
   20      C       3.6672967582     2.2432696330    -1.6715751835
   21      C       4.6568447929     1.1412380765    -1.3505657981
   22      C       3.6957714781     0.0104473385    -0.9642808351
   23      O       2.5515292358     0.2522006203    -1.7488577828
   24      H       2.7225836304     2.3226355640     0.7159084659
   25      H       3.9713928168     0.3717353500     1.2202685321
   26      H       1.4900910300     2.1157715490    -1.7246627042
   27      H       3.6459070160     2.3916012091    -2.7751870512
   28      H       3.8656108538     3.2177971539    -1.1757891403
   29      H       5.2112069574     0.8873130163    -2.2813056860
   30      H       5.3713709509     1.3670204191    -0.5295364265
   31      H       4.1868658669    -0.9757459035    -1.1163080251
   32      O      -2.5890023731    -1.7132103698     1.9719069251
   33      C      -0.9012677729    -3.6152712711    -2.0885101665
   34      C      -2.1234713597     0.8431117246    -1.8406078875
   35      C      -3.4564705742     1.4229717473    -2.2987225698
   36      C      -4.0059082578     1.8607171157    -0.9333857446
   37      C      -2.7439535533     1.6995070470    -0.0163813768
   38      O      -1.7286947148     1.8914405699    -0.9645816780
   39      H      -3.4665634882    -0.5850549458    -1.1275944957
   40      H      -3.4511581209     0.1514440031     0.8612695441
   41      H      -1.7827673767    -4.1994137596    -2.4291361425
   42      H      -1.3992508799     0.6344755473    -2.6559878299
   43      H      -3.2156013304     2.3210417958    -2.9125025951
   44      H      -4.1249023058     0.7523800429    -2.8807857648
   45      H      -4.3312227653     2.9204481005    -1.0293938746
   46      H      -4.8529295622     1.2524606434    -0.5487431929
   47      H      -2.9462153676     2.4306128722     0.7870373647
   48      H      -0.5018979975    -4.0503499929    -1.1472600692
   49      H      -0.1138469702    -3.6681370131    -2.8680371375
   50      H       3.5844335596    -4.1778884000     1.2389334615
   51      H       1.9666765245    -3.7733474654     0.5465866116
   52      H       2.3245296576    -3.4328932991     2.2958950351
   53      H      -1.1177122165     2.7342866838     1.3766057601
   54      H      -0.7312040418     3.0989695881     2.9740722153
   55      H      -0.8351037435     1.0130550560     4.0088322077
   56      H      -2.3959121119     1.2428465403     3.1629105728
 ----------------------------------------------------------------
 Molecular Point Group                 C1    NOp =  1
 Largest Abelian Subgroup              C1    NOp =  1
 Nuclear Repulsion Energy =  3475.7023838833 hartrees
 There are      113 alpha and      113 beta electrons
 Requested basis set is STO-3G
 There are 86 shells and 176 basis functions

 Total QAlloc Memory Limit   4000 MB
 Mega-Array Size       392 MB
 MEM_STATIC part       400 MB
 A cutoff of  1.0D-12 yielded   2698 shell pairs
 There are     13249 function pairs
 
 -------------------------------------------------------
 OpenMP Integral Computing Module                       
 Release: version 1.0, May 2013, Q-Chem Inc. Pittsburgh 
 -------------------------------------------------------
 Integral Job Info:
 Integral job number is                      11
 Integral operator is                         1
 short-range coefficients                     0
 long-range coefficients              100000000
 Omega coefficients                           0
 if combine SR and LR in K                    0
 Integral screening is                        0
 Integral computing path is                   2
 max size of driver memory is            800000
 size of driver memory is                 45569
 size of scratch memory is              1046100
 max col of scratch BK array                289
 max len of scratch array in speh3           22
 max len of scratch index in speh4            8
 max int batch size is                      520
 min int batch size is                       52
 fixed nKL is                                52
 max L of basis functions is                  1
 order of int derivative is                   0
 number of shells is                         86
 number of basis is                         176
 number of cartesian basis is               176
 number of contracted shell pairs          2698
 number of primitive shell pairs          12836
 maxK2 (contraction) of shell pair            9
 max number of K2 of shell pair               1
 max number of CS2 of shell pair            405
 max number of PS2 of shell pair           1344
 mem total for path MDJ                   56394
 -------------------------------------------------------
 Smallest overlap matrix eigenvalue = 1.93E-01

 Scale SEOQF with 1.000000e-02/1.000000e-01/1.000000e-01

 Standard Electronic Orientation quadrupole field applied
 Nucleus-field energy     =    -0.0000000001 hartrees
 Guess from superposition of atomic densities
 Warning:  Energy on first SCF cycle will be non-variational
 A restricted hybrid HF-DFT SCF calculation will be
 performed using Pulay DIIS extrapolation
 Exchange:     0.2000 Hartree-Fock + 0.0800 Slater + 0.7200 B88
 Correlation:  0.1900 VWN1RPA + 0.8100 LYP
 Using SG-1 standard quadrature grid
 Dispersion:   Grimme D3
 SCF converges when DIIS error is below 1.0E-08
 using 48 threads for integral computing
 -------------------------------------------------------
 OpenMP Integral computing Module                
 Release: version 1.0, May 2013, Q-Chem Inc. Pittsburgh 
 -------------------------------------------------------
 -------------------------------------------------------
 OpenMP BLAS3 based DFT computing Module                
 Release: version 1.0, May 2013, Q-Chem Inc. Pittsburgh 
 -------------------------------------------------------
 ---------------------------------------
  Cycle       Energy         DIIS Error
 ---------------------------------------
    1   -1509.4945691401      8.31E-02
    2   -1509.4071159259      1.06E-02
    3   -1507.2457683685      2.60E-02
    4   -1509.9113687974      3.72E-03
    5   -1509.9648570637      1.45E-03
    6   -1509.9716609427      7.62E-04
    7   -1509.9740364432      1.46E-04
    8   -1509.9741242884      4.42E-05
    9   -1509.9741305000      2.49E-05
   10   -1509.9741331138      4.94E-06
   11   -1509.9741332352      1.08E-06
   12   -1509.9741332393      5.56E-07
   13   -1509.9741332405      1.79E-07
   14   -1509.9741332406      2.20E-08
   15   -1509.9741332407      9.41E-09 Convergence criterion met
 ---------------------------------------
 SCF time:  CPU 118.37 s  wall 2.52 s
 SCF   energy in the final basis set = -1509.97413324
 Total energy in the final basis set = -1509.97413324
 
 --------------------------------------------------------------
 
                    Orbital Energies (a.u.)
 --------------------------------------------------------------
 
 Alpha MOs
 -- Occupied --
-18.922 -18.921 -18.913 -18.898 -18.894 -18.891 -18.883 -18.850
-18.848 -18.841 -10.119 -10.099 -10.099 -10.095 -10.083 -10.075
-10.072 -10.069 -10.067 -10.061 -10.060 -10.059 -10.033 -10.022
-10.017 -10.014 -10.013 -10.011 -10.010 -10.004  -1.038  -1.033
 -1.027  -1.020  -1.015  -1.010  -0.952  -0.946  -0.933  -0.932
 -0.773  -0.770  -0.737  -0.731  -0.728  -0.712  -0.710  -0.673
 -0.668  -0.626  -0.607  -0.591  -0.559  -0.547  -0.537  -0.531
 -0.521  -0.512  -0.489  -0.480  -0.476  -0.471  -0.455  -0.449
 -0.444  -0.439  -0.429  -0.426  -0.421  -0.415  -0.414  -0.409
 -0.400  -0.392  -0.386  -0.373  -0.371  -0.356  -0.348  -0.347
 -0.341  -0.338  -0.335  -0.333  -0.323  -0.321  -0.311  -0.307
 -0.306  -0.299  -0.299  -0.293  -0.291  -0.279  -0.277  -0.268
 -0.245  -0.230  -0.225  -0.223  -0.214  -0.211  -0.203  -0.181
 -0.164  -0.160  -0.150  -0.146  -0.139  -0.134  -0.127  -0.120
 -0.114
 -- Virtual --
  0.096   0.128   0.139   0.140   0.180   0.251   0.276   0.277
  0.287   0.296   0.301   0.314   0.338   0.341   0.348   0.356
  0.357   0.375   0.383   0.390   0.392   0.395   0.400   0.406
  0.409   0.414   0.415   0.416   0.417   0.425   0.428   0.430
  0.438   0.441   0.445   0.448   0.456   0.457   0.464   0.469
  0.476   0.476   0.480   0.481   0.485   0.485   0.495   0.497
  0.510   0.512   0.522   0.539   0.546   0.561   0.565   0.569
  0.582   0.585   0.611   0.677   0.702   0.711   0.751
 --------------------------------------------------------------
 
          Ground-State Mulliken Net Atomic Charges

     Atom                 Charge (a.u.)
  ----------------------------------------
      1 O                    -0.236145
      2 C                     0.241380
      3 C                    -0.085979
      4 C                    -0.100177
      5 C                     0.270917
      6 O                    -0.201423
      7 C                    -0.031538
      8 C                    -0.049382
      9 O                    -0.199715
     10 C                     0.252336
     11 C                    -0.083057
     12 C                    -0.079882
     13 C                     0.236991
     14 O                    -0.222178
     15 O                    -0.208642
     16 O                    -0.217768
     17 O                    -0.214846
     18 C                    -0.097072
     19 C                     0.041435
     20 C                    -0.142096
     21 C                    -0.143936
     22 C                     0.038993
     23 O                    -0.209953
     24 H                     0.078309
     25 H                     0.086279
     26 H                     0.087845
     27 H                     0.073603
     28 H                     0.071101
     29 H                     0.073655
     30 H                     0.070605
     31 H                     0.085443
     32 O                    -0.180734
     33 C                    -0.098361
     34 C                     0.046672
     35 C                    -0.139025
     36 C                    -0.142050
     37 C                     0.044685
     38 O                    -0.211635
     39 H                     0.084009
     40 H                     0.071217
     41 H                     0.081820
     42 H                     0.091710
     43 H                     0.073631
     44 H                     0.072171
     45 H                     0.075249
     46 H                     0.069623
     47 H                     0.076417
     48 H                     0.084574
     49 H                     0.090952
     50 H                     0.091598
     51 H                     0.086200
     52 H                     0.087583
     53 H                     0.103046
     54 H                     0.082201
     55 H                     0.095040
     56 H                     0.078305
  ----------------------------------------
  Sum of atomic charges =     0.000000

 -----------------------------------------------------------------
                    Cartesian Multipole Moments
 -----------------------------------------------------------------
    Charge (ESU x 10^10)
                -0.0000
    Dipole Moment (Debye)
         X       0.7400      Y       2.8797      Z      -0.0870
       Tot       2.9745
    Quadrupole Moments (Debye-Ang)
        XX    -148.4451     XY     -12.4503     YY    -151.9245
        XZ       2.1729     YZ       7.7708     ZZ    -155.0054
    Octopole Moments (Debye-Ang^2)
       XXX       6.2398    XXY      28.6515    XYY      28.6462
       YYY     -45.1721    XXZ      -0.8560    XYZ     -26.4819
       YYZ      -3.5450    XZZ     -14.4574    YZZ      -0.4292
       ZZZ      26.8120
    Hexadecapole Moments (Debye-Ang^3)
      XXXX   -6433.0843   XXXY     -67.7349   XXYY   -1637.0842
      XYYY    -122.5874   YYYY   -3138.3229   XXXZ      23.9748
      XXYZ      31.9917   XYYZ      36.7153   YYYZ      54.6487
      XXZZ   -1456.7095   XYZZ     -29.6029   YYZZ    -901.1091
      XZZZ     -17.3899   YZZZ      44.2327   ZZZZ   -2355.8014
 -----------------------------------------------------------------
 Calculating analytic gradient of the SCF energy
 Gradient of SCF Energy
            1           2           3           4           5           6
    1   0.0424627  -0.0477047   0.0721752   0.1335811  -0.0421521  -0.0583291
    2   0.0339241   0.0216576   0.0212208   0.0129771  -0.0358030   0.0233573
    3  -0.0370132  -0.0017347   0.0125228   0.0155059  -0.0053669  -0.0528200
            7           8           9          10          11          12
    1   0.0277081  -0.0132161  -0.0418101  -0.0329260  -0.0307152  -0.0427768
    2   0.0001674  -0.0402898  -0.0357009  -0.0087910  -0.0418450   0.0015826
    3  -0.0054501  -0.0247123  -0.0554216   0.0155083  -0.0444892  -0.0169911
           13          14          15          16          17          18
    1   0.0327777   0.0630020  -0.0468620  -0.1172976   0.0802409   0.0410371
    2   0.0051329   0.0035048  -0.0939253  -0.0324230   0.0426512   0.0379381
    3  -0.0158943  -0.0177952   0.0559562   0.0329938   0.0519230  -0.0153270
           19          20          21          22          23          24
    1   0.0410996  -0.0098033  -0.0481849  -0.0577151   0.0427744   0.0002704
    2  -0.0563446  -0.0466008  -0.0018240   0.0439740   0.0511672   0.0080428
    3   0.0024207   0.0211312   0.0018803  -0.0097891   0.0556923   0.0007708
           25          26          27          28          29          30
    1   0.0026479   0.0031230  -0.0004884   0.0029303  -0.0016575   0.0035930
    2  -0.0024437   0.0136714  -0.0058059   0.0072447   0.0026725  -0.0006569
    3   0.0059277   0.0012576  -0.0097230   0.0028736  -0.0126370   0.0083193
           31          32          33          34          35          36
    1   0.0125916   0.0199173   0.0026451  -0.0344185   0.0217346   0.0407205
    2   0.0018413   0.0401331   0.0580862   0.0371214  -0.0012141   0.0102406
    3   0.0031799  -0.0028877  -0.0076015   0.0409982   0.0374031  -0.0064432
           37          38          39          40          41          42
    1   0.0013108  -0.0798589   0.0048018   0.0226009  -0.0017244  -0.0036988
    2  -0.0305174  -0.0643881  -0.0211399   0.0140484   0.0095244  -0.0071191
    3  -0.0452860   0.0107124  -0.0029438   0.0181134  -0.0010352  -0.0041256
           43          44          45          46          47          48
    1   0.0067008  -0.0055999  -0.0038874  -0.0013368  -0.0246117   0.0003525
    2   0.0082626  -0.0025786   0.0072005  -0.0044103  -0.0074812   0.0088316
    3  -0.0011371  -0.0047613  -0.0143771   0.0074551  -0.0016555   0.0006241
           49          50          51          52          53          54
    1   0.0006561  -0.0016268   0.0048553   0.0055479   0.0294538  -0.0117860
    2  -0.0031098  -0.0029735   0.0068962   0.0072641   0.0099791  -0.0012259
    3  -0.0001433   0.0009521  -0.0037571  -0.0012434   0.0231174  -0.0049607
           55          56
    1  -0.0025343  -0.0005903
    2  -0.0038349   0.0021306
    3   0.0004243  -0.0001401
 Max gradient component =       1.336E-01
 RMS gradient           =       3.125E-02
 Gradient time:  CPU 34.23 s  wall 0.73 s
 Geometry Optimization Parameters
   NAtoms,    NIC,     NZ,  NCons,   NDum,   NFix, NCnnct, MaxDiis
       56     458       0       9       0       0       0       0


** CONSTRAINED OPTIMIZATION IN DELOCALIZED INTERNAL COORDINATES **
   Searching for a Minimum

   Optimization Cycle:   1

                       Coordinates (Angstroms)
     ATOM                X               Y               Z
      1  O        -2.7858765335   -2.7139256888   -0.3317564029
      2  C        -2.1902643612   -1.8815492448   -1.0006374325
      3  C        -2.3881679052   -0.3842533018   -0.9138512645
      4  C        -2.4031351856    0.2423009847    0.4900972497
      5  C        -2.0414321208   -0.6712217243    1.6401975942
      6  O        -0.9870039298   -0.1489992688    2.3336503914
      7  C        -1.3047208487    1.0754358648    3.0037795769
      8  C        -0.7074742023    2.2582622139    2.2485583597
      9  O         0.6643263098    1.9872128231    1.9205279648
     10  C         0.8629741127    1.2890996134    0.7749679221
     11  C         2.2699605331    1.4205951263    0.2422957062
     12  C         3.1666378286    0.1954448437    0.4731117017
     13  C         2.4518346459   -1.0821778731    0.8647970204
     14  O         1.2700171508   -1.1696581012    1.1651484296
     15  O        -1.2523672616   -2.2968042871   -1.8895695829
     16  O         3.2212403128   -2.2011147007    0.9276130187
     17  O         0.0475451304    0.6801649969    0.1382213007
     18  C         2.7473584773   -3.4506884633    1.2686331854
     19  C         2.3529063154    1.5658410313   -1.2886717749
     20  C         3.6672967582    2.2432696330   -1.6715751835
     21  C         4.6568447929    1.1412380765   -1.3505657981
     22  C         3.6957714781    0.0104473385   -0.9642808351
     23  O         2.5515292358    0.2522006203   -1.7488577828
     24  H         2.7225836304    2.3226355640    0.7159084659
     25  H         3.9713928168    0.3717353500    1.2202685321
     26  H         1.4900910300    2.1157715490   -1.7246627042
     27  H         3.6459070160    2.3916012091   -2.7751870512
     28  H         3.8656108538    3.2177971539   -1.1757891403
     29  H         5.2112069574    0.8873130163   -2.2813056860
     30  H         5.3713709509    1.3670204191   -0.5295364265
     31  H         4.1868658669   -0.9757459035   -1.1163080251
     32  O        -2.5890023731   -1.7132103698    1.9719069251
     33  C        -0.9012677729   -3.6152712711   -2.0885101665
     34  C        -2.1234713597    0.8431117246   -1.8406078875
     35  C        -3.4564705742    1.4229717473   -2.2987225698
     36  C        -4.0059082578    1.8607171157   -0.9333857446
     37  C        -2.7439535533    1.6995070470   -0.0163813768
     38  O        -1.7286947148    1.8914405699   -0.9645816780
     39  H        -3.4665634882   -0.5850549458   -1.1275944957
     40  H        -3.4511581209    0.1514440031    0.8612695441
     41  H        -1.7827673767   -4.1994137596   -2.4291361425
     42  H        -1.3992508799    0.6344755473   -2.6559878299
     43  H        -3.2156013304    2.3210417958   -2.9125025951
     44  H        -4.1249023058    0.7523800429   -2.8807857648
     45  H        -4.3312227653    2.9204481005   -1.0293938746
     46  H        -4.8529295622    1.2524606434   -0.5487431929
     47  H        -2.9462153676    2.4306128722    0.7870373647
     48  H        -0.5018979975   -4.0503499929   -1.1472600692
     49  H        -0.1138469702   -3.6681370131   -2.8680371375
     50  H         3.5844335596   -4.1778884000    1.2389334615
     51  H         1.9666765245   -3.7733474654    0.5465866116
     52  H         2.3245296576   -3.4328932991    2.2958950351
     53  H        -1.1177122165    2.7342866838    1.3766057601
     54  H        -0.7312040418    3.0989695881    2.9740722153
     55  H        -0.8351037435    1.0130550560    4.0088322077
     56  H        -2.3959121119    1.2428465403    3.1629105728
   Point Group: c1    Number of degrees of freedom:   162


   Energy is  -1509.974133241

              Constraints and their Current Values
                                        Value     Constraint
   Dihedral:        1   2   3   4       47.368       47.368
   Dihedral:        3   4   5   6      123.158      123.158
   Dihedral:        4   5   6   7       66.316       66.316
   Dihedral:        5   6   7   8     -104.211     -104.211
   Dihedral:        6   7   8   9      -47.368      -47.368
   Dihedral:        7   8   9  10       85.263       85.263
   Dihedral:        8   9  10  11      161.052      161.053
   Dihedral:        9  10  11  12      104.211      104.211
   Dihedral:       11  12  13  14       -9.473       -9.474

 Attempting to Generate Delocalized Internal Coordinates

   Using Lagrange Multiplier Algorithm


171 Hessian modes will be used to form the next step
  Hessian Eigenvalues:
    -0.977753   -0.977753   -0.977753   -0.977753   -0.977753   -0.977753
    -0.977753   -0.977753   -0.977753    0.045000    0.045000    0.045000
     0.045000    0.045005    0.045012    0.045027    0.045098    0.045584
     0.045956    0.047319    0.048786    0.048874    0.052766    0.053279
     0.059960    0.060334    0.062582    0.064941    0.067064    0.067344
     0.067382    0.067680    0.070283    0.071823    0.072530    0.073815
     0.074187    0.075766    0.076897    0.080747    0.081681    0.082486
     0.083636    0.084090    0.084504    0.085133    0.085669    0.086109
     0.087225    0.087821    0.088777    0.089121    0.089155    0.089844
     0.089862    0.090694    0.093866    0.094551    0.095638    0.096652
     0.098167    0.111024    0.111559    0.114650    0.114667    0.115884
     0.115916    0.116866    0.117457    0.118475    0.118715    0.123340
     0.125989    0.127532    0.131100    0.133029    0.140027    0.154640
     0.160000    0.160000    0.160000    0.160000    0.160000    0.160000
     0.171235    0.172534    0.180973    0.215387    0.215759    0.220217
     0.240176    0.242892    0.245667    0.248596    0.249146    0.249885
     0.249885    0.249979    0.250000    0.250000    0.250000    0.250000
     0.250000    0.250000    0.250000    0.250000    0.257026    0.258636
     0.263939    0.267266    0.270014    0.278452    0.284020    0.288210
     0.295312    0.298741    0.308061    0.310698    0.310865    0.313324
     0.318123    0.320229    0.320382    0.320936    0.321672    0.322071
     0.323170    0.323172    0.323695    0.323699    0.323741    0.324331
     0.324446    0.324484    0.324658    0.324699    0.324744    0.324829
     0.324922    0.324958    0.325228    0.325634    0.326770    0.326814
     0.331409    0.354882    0.366299    0.368338    0.380718    0.383535
     0.400997    0.407712    0.492421    0.493147    0.517921    0.530703
     0.534952    0.537343    0.940884    0.941950    0.942752    1.022753
     1.022753    1.022753    1.022753    1.022753    1.022753    1.022753
     1.022753    1.022753    1.045781

 Minimum Search - Taking P-RFO Step
 Searching for Lamda that Maximizes Along the Constraint modes Only
 Value Taken    Lamda =   0.00646735
 Searching for Lamda that Minimizes Along All other modes
 Value Taken    Lamda =  -0.23650373
 Calculated Step too Large.  Step scaled by  0.459770
 Step Taken.  Stepsize is  0.300000

                             Maximum     Tolerance    Cnvgd?
         Gradient            0.114399       0.000300      NO
         Displacement        0.090750       0.001200      NO
         Energy change     *********       0.000001      NO


 New Cartesian Coordinates Obtained by Inverse Iteration

 Displacement from previous Coordinates is:  2.523549
 Adding empirical dispersion correction 
 ----------------------------------------------------------------
 Doing -D3(op) with
 s6 =   1.00000
 s8 =   0.78311
 a1 =   0.30000
 a2 =   4.25000
 n  =  10.00000
 -D3 energy without 3body term =     -0.0716788513 hartrees
 ----------------------------------------------------------------
             Standard Nuclear Orientation (Angstroms)
    I     Atom           X                Y                Z
 ----------------------------------------------------------------
    1      O      -2.8659906609    -2.7735111112    -0.2997261577
    2      C      -2.3125615660    -1.9337418115    -1.0180615613
    3      C      -2.5494136959    -0.4223544625    -0.9501007817
    4      C      -2.5321132292     0.2751378637     0.4381553301
    5      C      -2.1177586602    -0.5740303097     1.6610522682
    6      O      -1.0380496258    -0.0747478446     2.3933208377
    7      C      -1.2686249037     1.1725562220     3.0811583967
    8      C      -0.5923762971     2.3487374479     2.3448283041
    9      O       0.7784423857     2.0144591784     1.9938778754
   10      C       0.9560950505     1.3306149033     0.8118478828
   11      C       2.3982467189     1.4368983297     0.3094794070
   12      C       3.2827015741     0.1731473766     0.5094870498
   13      C       2.5453757991    -1.1252897008     0.8579894773
   14      O       1.3507041288    -1.2380176823     1.1543788770
   15      O      -1.3797416289    -2.3175296986    -1.9525088033
   16      O       3.3604406075    -2.2334087371     0.8725854884
   17      O       0.1036593106     0.7717156967     0.1411948907
   18      C       2.8533036015    -3.5046839177     1.1735996904
   19      C       2.5007789194     1.6319431806    -1.2307929528
   20      C       3.8476993364     2.3052415323    -1.5743372553
   21      C       4.8253865169     1.1632586745    -1.2760066052
   22      C       3.8317143023     0.0221568363    -0.9416417800
   23      O       2.6826766012     0.3103920441    -1.7431247750
   24      H       2.8635984980     2.3078690228     0.8203262651
   25      H       4.0805578201     0.3130430780     1.2680981010
   26      H       1.6519841350     2.2072646288    -1.6571757612
   27      H       3.8455829066     2.4965726623    -2.6675908750
   28      H       4.0528009400     3.2545121297    -1.0415907172
   29      H       5.3912178053     0.9306608473    -2.2006551697
   30      H       5.5285580592     1.3494191661    -0.4402401300
   31      H       4.3036104234    -0.9672557151    -1.1201476414
   32      O      -2.6836585042    -1.6064671714     2.0239678597
   33      C      -1.0169564750    -3.6615414901    -2.1158315236
   34      C      -2.3163455114     0.7743799635    -1.9465811290
   35      C      -3.6929334853     1.3036086599    -2.3813280369
   36      C      -4.2013039492     1.8007774852    -1.0059017086
   37      C      -2.8913463913     1.7206983467    -0.1235933999
   38      O      -1.8933902345     1.8878805020    -1.1278319146
   39      H      -3.6340521274    -0.6311057924    -1.1209607295
   40      H      -3.5789036635     0.1837689872     0.8334407255
   41      H      -1.8953750750    -4.2786495097    -2.4074605594
   42      H      -1.6140273297     0.5412096929    -2.7732438869
   43      H      -3.5027052596     2.1718586690    -3.0467338063
   44      H      -4.3643993766     0.5909142353    -2.9003131848
   45      H      -4.5522512345     2.8446727812    -1.1334909979
   46      H      -5.0171179318     1.1959697308    -0.5606650393
   47      H      -3.0638299164     2.4882625177     0.6533006991
   48      H      -0.5793623273    -4.0694690393    -1.1779966743
   49      H      -0.2553262318    -3.7262156733    -2.9192952465
   50      H       3.6846518903    -4.2368643751     1.1235567573
   51      H       2.0712925066    -3.8030161432     0.4406226267
   52      H       2.4198261108    -3.5270653205     2.1977989022
   53      H      -1.0092849666     2.8528696087     1.4790784407
   54      H      -0.5563159148     3.1743635460     3.0894974790
   55      H      -0.7981544721     1.0643432819     4.0821406954
   56      H      -2.3458225905     1.4072381087     3.2477849785
 ----------------------------------------------------------------
 Molecular Point Group                 C1    NOp =  1
 Largest Abelian Subgroup              C1    NOp =  1
 Nuclear Repulsion Energy =  3391.3222379979 hartrees
 There are      113 alpha and      113 beta electrons
 Applying Cartesian multipole field
    Component          Value
    ---------          -----
     (2,0,0)        1.00000E-12
     (0,2,0)        2.00000E-11
     (0,0,2)       -3.00000E-11
 Nucleus-field energy     =    -0.0000000003 hartrees
 Requested basis set is STO-3G
 There are 86 shells and 176 basis functions
 A cutoff of  1.0D-12 yielded   2582 shell pairs
 There are     12674 function pairs
 Smallest overlap matrix eigenvalue = 2.00E-01
 Guess MOs from SCF MO coefficient file
 Reading MOs from coefficient file
 Reading MOs from coefficient file
 A restricted hybrid HF-DFT SCF calculation will be
 performed using Pulay DIIS extrapolation
 Exchange:     0.2000 Hartree-Fock + 0.0800 Slater + 0.7200 B88
 Correlation:  0.1900 VWN1RPA + 0.8100 LYP
 Using SG-1 standard quadrature grid
 Dispersion:   Grimme D3
 SCF converges when DIIS error is below 1.0E-08
 Geometry optimization detected.  Setting ReadMinima to 0
 Setting SaveMinima to 0
 using 48 threads for integral computing
 -------------------------------------------------------
 OpenMP Integral computing Module                
 Release: version 1.0, May 2013, Q-Chem Inc. Pittsburgh 
 -------------------------------------------------------
 -------------------------------------------------------
 OpenMP BLAS3 based DFT computing Module                
 Release: version 1.0, May 2013, Q-Chem Inc. Pittsburgh 
 -------------------------------------------------------
 ---------------------------------------
  Cycle       Energy         DIIS Error
 ---------------------------------------
    1   -1509.8781055216      3.91E-03
    2   -1510.0556137267      6.68E-04
    3   -1510.0534074451      1.02E-03
    4   -1510.0575248966      2.82E-04
    5   -1510.0578805794      6.13E-05
    6   -1510.0578956427      2.37E-05
    7   -1510.0578969859      1.64E-05
    8   -1510.0578981284      2.30E-06
    9   -1510.0578981549      5.92E-07
   10   -1510.0578981557      5.09E-07
   11   -1510.0578981569      7.48E-08
   12   -1510.0578981569      2.70E-08
   13   -1510.0578981569      1.09E-08
   14   -1510.0578981570      4.82E-09 Convergence criterion met
 ---------------------------------------
 SCF time:  CPU 106.62 s  wall 2.23 s
 SCF   energy in the final basis set = -1510.05789816
 Total energy in the final basis set = -1510.05789816
 
 --------------------------------------------------------------
 
                    Orbital Energies (a.u.)
 --------------------------------------------------------------
 
 Alpha MOs
 -- Occupied --
-18.923 -18.921 -18.917 -18.899 -18.895 -18.889 -18.882 -18.852
-18.850 -18.845 -10.117 -10.096 -10.096 -10.092 -10.083 -10.073
-10.071 -10.067 -10.065 -10.058 -10.058 -10.057 -10.033 -10.024
-10.017 -10.016 -10.013 -10.011 -10.010 -10.009  -1.026  -1.022
 -1.018  -1.010  -0.999  -0.992  -0.944  -0.937  -0.928  -0.928
 -0.767  -0.765  -0.730  -0.724  -0.722  -0.706  -0.705  -0.668
 -0.664  -0.621  -0.602  -0.588  -0.554  -0.543  -0.535  -0.530
 -0.517  -0.509  -0.485  -0.475  -0.469  -0.467  -0.450  -0.442
 -0.439  -0.433  -0.424  -0.423  -0.416  -0.411  -0.410  -0.404
 -0.397  -0.387  -0.381  -0.370  -0.368  -0.352  -0.344  -0.342
 -0.338  -0.336  -0.334  -0.332  -0.324  -0.322  -0.311  -0.305
 -0.304  -0.300  -0.298  -0.292  -0.291  -0.276  -0.276  -0.266
 -0.245  -0.230  -0.227  -0.224  -0.219  -0.218  -0.204  -0.177
 -0.165  -0.162  -0.153  -0.145  -0.143  -0.135  -0.130  -0.124
 -0.121
 -- Virtual --
  0.091   0.122   0.130   0.131   0.179   0.241   0.267   0.270
  0.282   0.287   0.293   0.304   0.328   0.334   0.341   0.346
  0.350   0.365   0.376   0.379   0.384   0.387   0.388   0.394
  0.401   0.405   0.410   0.412   0.415   0.417   0.417   0.423
  0.431   0.433   0.437   0.439   0.442   0.449   0.454   0.459
  0.463   0.467   0.468   0.473   0.477   0.478   0.486   0.487
  0.494   0.495   0.504   0.522   0.524   0.540   0.554   0.560
  0.567   0.571   0.595   0.646   0.682   0.687   0.719
 --------------------------------------------------------------
 
          Ground-State Mulliken Net Atomic Charges

     Atom                 Charge (a.u.)
  ----------------------------------------
      1 O                    -0.228327
      2 C                     0.231564
      3 C                    -0.085724
      4 C                    -0.096457
      5 C                     0.260172
      6 O                    -0.196540
      7 C                    -0.032944
      8 C                    -0.048259
      9 O                    -0.193906
     10 C                     0.238116
     11 C                    -0.081828
     12 C                    -0.078298
     13 C                     0.227658
     14 O                    -0.216220
     15 O                    -0.198173
     16 O                    -0.207692
     17 O                    -0.209931
     18 C                    -0.103723
     19 C                     0.037118
     20 C                    -0.142955
     21 C                    -0.144691
     22 C                     0.034645
     23 O                    -0.202080
     24 H                     0.079219
     25 H                     0.085951
     26 H                     0.087832
     27 H                     0.074194
     28 H                     0.071535
     29 H                     0.074173
     30 H                     0.071249
     31 H                     0.085884
     32 O                    -0.176810
     33 C                    -0.104723
     34 C                     0.040876
     35 C                    -0.140104
     36 C                    -0.142628
     37 C                     0.040050
     38 O                    -0.202093
     39 H                     0.083214
     40 H                     0.072721
     41 H                     0.082537
     42 H                     0.091304
     43 H                     0.074218
     44 H                     0.072953
     45 H                     0.075629
     46 H                     0.070021
     47 H                     0.075534
     48 H                     0.085595
     49 H                     0.091121
     50 H                     0.091315
     51 H                     0.086471
     52 H                     0.087814
     53 H                     0.096447
     54 H                     0.083329
     55 H                     0.094482
     56 H                     0.079169
  ----------------------------------------
  Sum of atomic charges =    -0.000000

 -----------------------------------------------------------------
                    Cartesian Multipole Moments
 -----------------------------------------------------------------
    Charge (ESU x 10^10)
                 0.0000
    Dipole Moment (Debye)
         X       0.7220      Y       2.7196      Z      -0.0064
       Tot       2.8138
    Quadrupole Moments (Debye-Ang)
        XX    -147.0159     XY     -11.9526     YY    -150.4690
        XZ       2.8136     YZ       9.0641     ZZ    -155.1886
    Octopole Moments (Debye-Ang^2)
       XXX       5.0686    XXY      28.8626    XYY      29.6254
       YYY     -50.1641    XXZ      -3.5224    XYZ     -28.0659
       YYZ      -2.3696    XZZ     -14.7133    YZZ       0.0271
       ZZZ      28.5990
    Hexadecapole Moments (Debye-Ang^3)
      XXXX   -7007.3261   XXXY     -98.3837   XXYY   -1745.6627
      XYYY    -148.1859   YYYY   -3194.7898   XXXZ     -34.3936
      XXYZ      20.7889   XYYZ      13.5736   YYYZ      26.9601
      XXZZ   -1573.9671   XYZZ     -40.2835   YYZZ    -920.1278
      XZZZ     -82.0860   YZZZ      13.5153   ZZZZ   -2426.8039
 -----------------------------------------------------------------
 Calculating analytic gradient of the SCF energy
 Gradient of SCF Energy
            1           2           3           4           5           6
    1   0.0235977  -0.0406420   0.0627136   0.1171760  -0.0416640  -0.0351059
    2   0.0172365   0.0214657   0.0203313   0.0140243  -0.0375208   0.0202517
    3  -0.0208050  -0.0098170   0.0064993  -0.0006738  -0.0102364  -0.0263149
            7           8           9          10          11          12
    1   0.0238060  -0.0149410  -0.0310576  -0.0126106  -0.0225825  -0.0271133
    2  -0.0010063  -0.0262974  -0.0248608   0.0032258  -0.0246038   0.0023098
    3   0.0040214  -0.0157317  -0.0422129   0.0202573  -0.0355837  -0.0080598
           13          14          15          16          17          18
    1   0.0385581   0.0352139  -0.0315791  -0.0900898   0.0522497   0.0342480
    2   0.0030087  -0.0000795  -0.0718974  -0.0252713   0.0190727   0.0294540
    3  -0.0160707  -0.0088864   0.0452781   0.0241108   0.0288402  -0.0111128
           19          20          21          22          23          24
    1   0.0243793  -0.0070214  -0.0297032  -0.0424187   0.0290225   0.0001205
    2  -0.0412983  -0.0296765  -0.0011384   0.0287437   0.0322857   0.0058524
    3  -0.0011207   0.0143223   0.0013175  -0.0077642   0.0387758   0.0004429
           25          26          27          28          29          30
    1   0.0012033   0.0036209  -0.0005828   0.0022925  -0.0019353   0.0024457
    2  -0.0030658   0.0123888  -0.0048480   0.0050722   0.0029592  -0.0013727
    3   0.0045290   0.0024118  -0.0068701   0.0010245  -0.0091296   0.0055452
           31          32          33          34          35          36
    1   0.0114834   0.0126927   0.0026580  -0.0270326   0.0140966   0.0268463
    2   0.0020982   0.0268426   0.0459169   0.0281206  -0.0019864   0.0100939
    3   0.0034785   0.0014704  -0.0088241   0.0259857   0.0240681  -0.0056398
           37          38          39          40          41          42
    1  -0.0092110  -0.0566350   0.0023948   0.0124274  -0.0018837  -0.0030799
    2  -0.0247945  -0.0417825  -0.0180816   0.0143575   0.0054208  -0.0061473
    3  -0.0302101   0.0107894  -0.0033448   0.0161336  -0.0014387  -0.0028120
           43          44          45          46          47          48
    1   0.0057373  -0.0045301  -0.0033450  -0.0004539  -0.0250334   0.0009428
    2   0.0055872  -0.0009347   0.0037532  -0.0025824  -0.0078385   0.0051858
    3  -0.0008074  -0.0040057  -0.0124156   0.0063965  -0.0014369   0.0007988
           49          50          51          52          53          54
    1   0.0009790  -0.0014066   0.0027011   0.0035219   0.0275673  -0.0102489
    2  -0.0034014  -0.0033383   0.0038633   0.0043578   0.0105753   0.0009542
    3  -0.0003417   0.0008211  -0.0030621   0.0004393   0.0189659  -0.0031065
           55          56
    1  -0.0025616  -0.0002275
    2  -0.0025399   0.0015549
    3   0.0006427   0.0004689
 Max gradient component =       1.172E-01
 RMS gradient           =       2.329E-02
 Gradient time:  CPU 31.99 s  wall 0.67 s
 Geometry Optimization Parameters
   NAtoms,    NIC,     NZ,  NCons,   NDum,   NFix, NCnnct, MaxDiis
       56     458       0       9       0       0       0       0

 Cartesian Hessian Update
 Hessian Updated using BFGS Update


** CONSTRAINED OPTIMIZATION IN DELOCALIZED INTERNAL COORDINATES **
   Searching for a Minimum

   Optimization Cycle:   2

                       Coordinates (Angstroms)
     ATOM                X               Y               Z
      1  O        -2.8659906609   -2.7735111112   -0.2997261577
      2  C        -2.3125615660   -1.9337418115   -1.0180615613
      3  C        -2.5494136959   -0.4223544625   -0.9501007817
      4  C        -2.5321132292    0.2751378637    0.4381553301
      5  C        -2.1177586602   -0.5740303097    1.6610522682
      6  O        -1.0380496258   -0.0747478446    2.3933208377
      7  C        -1.2686249037    1.1725562220    3.0811583967
      8  C        -0.5923762971    2.3487374479    2.3448283041
      9  O         0.7784423857    2.0144591784    1.9938778754
     10  C         0.9560950505    1.3306149033    0.8118478828
     11  C         2.3982467189    1.4368983297    0.3094794070
     12  C         3.2827015741    0.1731473766    0.5094870498
     13  C         2.5453757991   -1.1252897008    0.8579894773
     14  O         1.3507041288   -1.2380176823    1.1543788770
     15  O        -1.3797416289   -2.3175296986   -1.9525088033
     16  O         3.3604406075   -2.2334087371    0.8725854884
     17  O         0.1036593106    0.7717156967    0.1411948907
     18  C         2.8533036015   -3.5046839177    1.1735996904
     19  C         2.5007789194    1.6319431806   -1.2307929528
     20  C         3.8476993364    2.3052415323   -1.5743372553
     21  C         4.8253865169    1.1632586745   -1.2760066052
     22  C         3.8317143023    0.0221568363   -0.9416417800
     23  O         2.6826766012    0.3103920441   -1.7431247750
     24  H         2.8635984980    2.3078690228    0.8203262651
     25  H         4.0805578201    0.3130430780    1.2680981010
     26  H         1.6519841350    2.2072646288   -1.6571757612
     27  H         3.8455829066    2.4965726623   -2.6675908750
     28  H         4.0528009400    3.2545121297   -1.0415907172
     29  H         5.3912178053    0.9306608473   -2.2006551697
     30  H         5.5285580592    1.3494191661   -0.4402401300
     31  H         4.3036104234   -0.9672557151   -1.1201476414
     32  O        -2.6836585042   -1.6064671714    2.0239678597
     33  C        -1.0169564750   -3.6615414901   -2.1158315236
     34  C        -2.3163455114    0.7743799635   -1.9465811290
     35  C        -3.6929334853    1.3036086599   -2.3813280369
     36  C        -4.2013039492    1.8007774852   -1.0059017086
     37  C        -2.8913463913    1.7206983467   -0.1235933999
     38  O        -1.8933902345    1.8878805020   -1.1278319146
     39  H        -3.6340521274   -0.6311057924   -1.1209607295
     40  H        -3.5789036635    0.1837689872    0.8334407255
     41  H        -1.8953750750   -4.2786495097   -2.4074605594
     42  H        -1.6140273297    0.5412096929   -2.7732438869
     43  H        -3.5027052596    2.1718586690   -3.0467338063
     44  H        -4.3643993766    0.5909142353   -2.9003131848
     45  H        -4.5522512345    2.8446727812   -1.1334909979
     46  H        -5.0171179318    1.1959697308   -0.5606650393
     47  H        -3.0638299164    2.4882625177    0.6533006991
     48  H        -0.5793623273   -4.0694690393   -1.1779966743
     49  H        -0.2553262318   -3.7262156733   -2.9192952465
     50  H         3.6846518903   -4.2368643751    1.1235567573
     51  H         2.0712925066   -3.8030161432    0.4406226267
     52  H         2.4198261108   -3.5270653205    2.1977989022
     53  H        -1.0092849666    2.8528696087    1.4790784407
     54  H        -0.5563159148    3.1743635460    3.0894974790
     55  H        -0.7981544721    1.0643432819    4.0821406954
     56  H        -2.3458225905    1.4072381087    3.2477849785
   Point Group: c1    Number of degrees of freedom:   162


   Energy is  -1510.057898157

              Constraints and their Current Values
                                        Value     Constraint
   Dihedral:        1   2   3   4       47.306       47.368
   Dihedral:        3   4   5   6      123.297      123.158
   Dihedral:        4   5   6   7       66.416       66.316
   Dihedral:        5   6   7   8     -104.038     -104.211
   Dihedral:        6   7   8   9      -47.272      -47.368
   Dihedral:        7   8   9  10       85.296       85.263
   Dihedral:        8   9  10  11      161.029      161.053
   Dihedral:        9  10  11  12      104.214      104.211
   Dihedral:       11  12  13  14       -9.482       -9.474
 Hessian Updated using BFGS Update

   Using Lagrange Multiplier Algorithm


159 Hessian modes will be used to form the next step
  Hessian Eigenvalues:
    -0.977753   -0.977753   -0.977753   -0.977753   -0.977753   -0.977753
    -0.977753   -0.977753   -0.943618    0.044907    0.045000    0.045000
     0.045006    0.045029    0.045115    0.045581    0.045972    0.046483
     0.048171    0.048876    0.052728    0.053269    0.059978    0.060205
     0.062650    0.064355    0.067057    0.067212    0.067377    0.067679
     0.069992    0.071773    0.072602    0.073834    0.074169    0.075753
     0.076916    0.080726    0.081677    0.082480    0.083636    0.084089
     0.084590    0.085131    0.085729    0.086122    0.087234    0.087738
     0.088557    0.089080    0.089200    0.089839    0.089853    0.090684
     0.093871    0.094620    0.095621    0.096652    0.098196    0.111042
     0.111572    0.114652    0.114671    0.115884    0.115916    0.116764
     0.117519    0.117751    0.118799    0.123344    0.125797    0.127237
     0.130262    0.131210    0.140912    0.153612    0.159597    0.160299
     0.170707    0.172701    0.180997    0.201825    0.215787    0.219098
     0.220654    0.240177    0.242916    0.246386    0.248615    0.249187
     0.249885    0.249887    0.249979    0.256621    0.258432    0.263770
     0.267198    0.269727    0.275386    0.280932    0.286491    0.290533
     0.296535    0.301381    0.308499    0.310486    0.312743    0.318090
     0.319937    0.320381    0.320884    0.321585    0.322001    0.322990
     0.323171    0.323649    0.323696    0.323735    0.324225    0.324407
     0.324466    0.324630    0.324668    0.324733    0.324829    0.324903
     0.324948    0.325213    0.325630    0.326763    0.326809    0.331374
     0.342123    0.358199    0.366449    0.368407    0.381916    0.397252
     0.407034    0.459192    0.486630    0.492814    0.525186    0.532872
     0.536162    0.658724    0.922950    0.941836    0.942373    1.020309
     1.022753    1.022753    1.022753    1.022753    1.022753    1.022753
     1.022753    1.022754    1.227198

 Minimum Search - Taking P-RFO Step
 Searching for Lamda that Maximizes Along the Constraint modes Only
 Value Taken    Lamda =   0.00449087
 Searching for Lamda that Minimizes Along All other modes
 Value Taken    Lamda =  -0.14473531
 Calculated Step too Large.  Step scaled by  0.440259
 Step Taken.  Stepsize is  0.300000

                             Maximum     Tolerance    Cnvgd?
         Gradient            0.078754       0.000300      NO
         Displacement        0.106593       0.001200      NO
         Energy change     -0.083765       0.000001      NO


 New Cartesian Coordinates Obtained by Inverse Iteration

 Displacement from previous Coordinates is:  1.207265
 Adding empirical dispersion correction 
 ----------------------------------------------------------------
 Doing -D3(op) with
 s6 =   1.00000
 s8 =   0.78311
 a1 =   0.30000
 a2 =   4.25000
 n  =  10.00000
 -D3 energy without 3body term =     -0.0719610328 hartrees
 ----------------------------------------------------------------
             Standard Nuclear Orientation (Angstroms)
    I     Atom           X                Y                Z
 ----------------------------------------------------------------
    1      O      -2.8684353517    -2.8484863171    -0.4014624983
    2      C      -2.3106580831    -1.9746846736    -1.0920435100
    3      C      -2.5421410729    -0.4512031322    -0.9534382662
    4      C      -2.5189242831     0.2277408504     0.4534289587
    5      C      -2.1141672196    -0.6139172678     1.7071793452
    6      O      -1.0251399555    -0.0934040767     2.4384766769
    7      C      -1.2945510881     1.1773956285     3.0858348020
    8      C      -0.6209774541     2.3567364024     2.3256822625
    9      O       0.7745906532     2.0515129827     2.0102688452
   10      C       0.9267579426     1.3319298613     0.8240843793
   11      C       2.3775204734     1.4470663961     0.2990575182
   12      C       3.2839213666     0.1895806476     0.5145202296
   13      C       2.5446010226    -1.1090561829     0.9144842660
   14      O       1.3471030060    -1.2261426802     1.2396172801
   15      O      -1.3657546959    -2.2944661136    -2.0638054772
   16      O       3.4093994191    -2.2014575731     0.9294187118
   17      O       0.0357803110     0.7573080634     0.1871566976
   18      C       2.8579408691    -3.4668634836     1.2837286167
   19      C       2.4533129019     1.6116844103    -1.2600083829
   20      C       3.8030066867     2.2989164823    -1.6305635975
   21      C       4.8068895102     1.1614010817    -1.3166250934
   22      C       3.8216000266     0.0036902389    -0.9512966472
   23      O       2.6441722045     0.2634972413    -1.7569605053
   24      H       2.8406840880     2.3294057648     0.7854056313
   25      H       4.0911866995     0.3543582132     1.2549416865
   26      H       1.5890619874     2.1594653243    -1.6872766666
   27      H       3.7911428802     2.4751301239    -2.7227325512
   28      H       3.9989331029     3.2562400854    -1.1153367213
   29      H       5.3711384199     0.9155531998    -2.2345836748
   30      H       5.5111558601     1.3727865982    -0.4921171060
   31      H       4.2913818988    -0.9878167973    -1.1137480844
   32      O      -2.6995113462    -1.6430489829     2.0773974283
   33      C      -1.0433536341    -3.6709420152    -2.2484653511
   34      C      -2.2595190125     0.7665570068    -1.9313288455
   35      C      -3.6394793755     1.3361604692    -2.3488479531
   36      C      -4.1307012794     1.8251503455    -0.9492263102
   37      C      -2.8080795545     1.7086837979    -0.0711733413
   38      O      -1.7875004085     1.8676545808    -1.0851196053
   39      H      -3.6325133241    -0.6149058927    -1.1263774885
   40      H      -3.5756494024     0.1459728364     0.8317257635
   41      H      -1.9348223051    -4.2631823668    -2.5527786214
   42      H      -1.5587421867     0.5334987645    -2.7581286044
   43      H      -3.4416888336     2.2094433602    -2.9995522894
   44      H      -4.3256487759     0.6462011020    -2.8725199496
   45      H      -4.4563099405     2.8767140353    -1.0472532379
   46      H      -4.9555808648     1.2323956695    -0.5111335826
   47      H      -2.9297129473     2.4678336276     0.7262260906
   48      H      -0.6205656596    -4.1152973072    -1.3203095955
   49      H      -0.2826818206    -3.7358811276    -3.0515875237
   50      H       3.6742557214    -4.2150274156     1.2433684684
   51      H       2.0566689527    -3.7737807743     0.5752985070
   52      H       2.4356603345    -3.4535046777     2.3129862509
   53      H      -1.0783765831     2.7957894396     1.4293162197
   54      H      -0.6083176314     3.2083149838     3.0423430986
   55      H      -0.8372548727     1.1139308172     4.0968567501
   56      H      -2.3796946642     1.3908198570     3.2246370988
 ----------------------------------------------------------------
 Molecular Point Group                 C1    NOp =  1
 Largest Abelian Subgroup              C1    NOp =  1
 Nuclear Repulsion Energy =  3379.9098143848 hartrees
 There are      113 alpha and      113 beta electrons
 Applying Cartesian multipole field
    Component          Value
    ---------          -----
     (2,0,0)        1.00000E-12
     (0,2,0)        2.00000E-11
     (0,0,2)       -3.00000E-11
 Nucleus-field energy     =    -0.0000000024 hartrees
 Requested basis set is STO-3G
 There are 86 shells and 176 basis functions
 A cutoff of  1.0D-12 yielded   2590 shell pairs
 There are     12709 function pairs
 Smallest overlap matrix eigenvalue = 2.05E-01
 Guess MOs from SCF MO coefficient file
 Reading MOs from coefficient file
 Reading MOs from coefficient file
 A restricted hybrid HF-DFT SCF calculation will be
 performed using Pulay DIIS extrapolation
 Exchange:     0.2000 Hartree-Fock + 0.0800 Slater + 0.7200 B88
 Correlation:  0.1900 VWN1RPA + 0.8100 LYP
 Using SG-1 standard quadrature grid
 Dispersion:   Grimme D3
 SCF converges when DIIS error is below 1.0E-08
 Geometry optimization detected.  Setting ReadMinima to 0
 Setting SaveMinima to 0
 using 48 threads for integral computing
 -------------------------------------------------------
 OpenMP Integral computing Module                
 Release: version 1.0, May 2013, Q-Chem Inc. Pittsburgh 
 -------------------------------------------------------
 -------------------------------------------------------
 OpenMP BLAS3 based DFT computing Module                
 Release: version 1.0, May 2013, Q-Chem Inc. Pittsburgh 
 -------------------------------------------------------
 ---------------------------------------
  Cycle       Energy         DIIS Error
 ---------------------------------------
    1   -1509.9693782310      2.90E-03
    2   -1510.1069239869      6.98E-04
    3   -1510.1041374679      1.09E-03
    4   -1510.1089111387      2.71E-04
    5   -1510.1092441327      5.61E-05
    6   -1510.1092572203      2.04E-05
    7   -1510.1092582817      1.37E-05
    8   -1510.1092590841      2.49E-06
    9   -1510.1092591084      1.35E-06
   10   -1510.1092591158      3.71E-07
   11   -1510.1092591165      7.53E-08
   12   -1510.1092591165      5.02E-08
   13   -1510.1092591165      2.24E-08
   14   -1510.1092591165      2.91E-09 Convergence criterion met
 ---------------------------------------
 SCF time:  CPU 105.04 s  wall 2.19 s
 SCF   energy in the final basis set = -1510.10925912
 Total energy in the final basis set = -1510.10925912
 
 --------------------------------------------------------------
 
                    Orbital Energies (a.u.)
 --------------------------------------------------------------
 
 Alpha MOs
 -- Occupied --
-18.926 -18.922 -18.922 -18.899 -18.895 -18.888 -18.882 -18.857
-18.852 -18.850 -10.113 -10.094 -10.093 -10.087 -10.079 -10.069
-10.067 -10.064 -10.062 -10.056 -10.056 -10.055 -10.032 -10.024
-10.017 -10.017 -10.014 -10.012 -10.011 -10.011  -1.018  -1.014
 -1.011  -1.003  -0.986  -0.979  -0.939  -0.932  -0.926  -0.923
 -0.762  -0.762  -0.725  -0.719  -0.717  -0.702  -0.700  -0.664
 -0.661  -0.616  -0.599  -0.585  -0.551  -0.541  -0.535  -0.529
 -0.515  -0.506  -0.480  -0.471  -0.466  -0.461  -0.447  -0.438
 -0.434  -0.430  -0.420  -0.418  -0.412  -0.408  -0.407  -0.400
 -0.393  -0.383  -0.375  -0.366  -0.363  -0.349  -0.342  -0.338
 -0.337  -0.334  -0.332  -0.331  -0.325  -0.323  -0.311  -0.304
 -0.302  -0.299  -0.298  -0.291  -0.290  -0.274  -0.273  -0.265
 -0.248  -0.235  -0.231  -0.229  -0.226  -0.223  -0.206  -0.178
 -0.167  -0.162  -0.155  -0.145  -0.143  -0.137  -0.132  -0.126
 -0.122
 -- Virtual --
  0.088   0.116   0.123   0.125   0.186   0.240   0.262   0.267
  0.276   0.281   0.292   0.297   0.318   0.324   0.334   0.341
  0.345   0.355   0.369   0.371   0.374   0.376   0.379   0.384
  0.392   0.398   0.403   0.408   0.408   0.413   0.416   0.422
  0.424   0.425   0.429   0.433   0.437   0.442   0.448   0.452
  0.454   0.458   0.459   0.464   0.469   0.470   0.475   0.477
  0.479   0.493   0.497   0.505   0.522   0.529   0.547   0.553
  0.558   0.562   0.585   0.632   0.666   0.670   0.693
 --------------------------------------------------------------
 
          Ground-State Mulliken Net Atomic Charges

     Atom                 Charge (a.u.)
  ----------------------------------------
      1 O                    -0.222292
      2 C                     0.223230
      3 C                    -0.083685
      4 C                    -0.088960
      5 C                     0.253129
      6 O                    -0.191469
      7 C                    -0.036478
      8 C                    -0.048452
      9 O                    -0.186793
     10 C                     0.227657
     11 C                    -0.081776
     12 C                    -0.077884
     13 C                     0.219335
     14 O                    -0.209170
     15 O                    -0.186598
     16 O                    -0.195918
     17 O                    -0.202175
     18 C                    -0.111622
     19 C                     0.032988
     20 C                    -0.143631
     21 C                    -0.145300
     22 C                     0.030791
     23 O                    -0.195792
     24 H                     0.079922
     25 H                     0.085640
     26 H                     0.087939
     27 H                     0.074557
     28 H                     0.072092
     29 H                     0.074680
     30 H                     0.071910
     31 H                     0.085971
     32 O                    -0.175777
     33 C                    -0.112105
     34 C                     0.036551
     35 C                    -0.141045
     36 C                    -0.143764
     37 C                     0.035326
     38 O                    -0.194314
     39 H                     0.081680
     40 H                     0.068878
     41 H                     0.083644
     42 H                     0.090954
     43 H                     0.074335
     44 H                     0.073946
     45 H                     0.075120
     46 H                     0.070775
     47 H                     0.074726
     48 H                     0.086367
     49 H                     0.090947
     50 H                     0.090467
     51 H                     0.087323
     52 H                     0.088401
     53 H                     0.093223
     54 H                     0.081393
     55 H                     0.092589
     56 H                     0.078515
  ----------------------------------------
  Sum of atomic charges =    -0.000000

 -----------------------------------------------------------------
                    Cartesian Multipole Moments
 -----------------------------------------------------------------
    Charge (ESU x 10^10)
                -0.0000
    Dipole Moment (Debye)
         X       0.7183      Y       2.6699      Z      -0.1899
       Tot       2.7713
    Quadrupole Moments (Debye-Ang)
        XX    -147.4384     XY     -11.7631     YY    -150.7552
        XZ       2.7935     YZ       8.7195     ZZ    -155.5395
    Octopole Moments (Debye-Ang^2)
       XXX       5.8716    XXY      30.4176    XYY      29.2937
       YYY     -48.0212    XXZ      -3.9974    XYZ     -28.7474
       YYZ      -4.0204    XZZ     -14.6646    YZZ      -0.7906
       ZZZ      23.8649
    Hexadecapole Moments (Debye-Ang^3)
      XXXX   -6911.4696   XXXY    -101.7118   XXYY   -1736.3484
      XYYY    -158.5975   YYYY   -3208.8542   XXXZ     -31.4692
      XXYZ      16.7283   XYYZ      17.1552   YYYZ      16.4783
      XXZZ   -1570.4567   XYZZ     -44.0994   YYZZ    -931.0006
      XZZZ     -71.8867   YZZZ       6.4616   ZZZZ   -2514.3934
 -----------------------------------------------------------------
 Calculating analytic gradient of the SCF energy
 Gradient of SCF Energy
            1           2           3           4           5           6
    1   0.0115752  -0.0351355   0.0550821   0.1110042  -0.0368016  -0.0238925
    2   0.0056778   0.0171932   0.0153816   0.0128711  -0.0287656   0.0200309
    3  -0.0074855  -0.0148653   0.0073453  -0.0053447  -0.0056588  -0.0237174
            7           8           9          10          11          12
    1   0.0159083  -0.0090381  -0.0188890  -0.0034784  -0.0141450  -0.0162345
    2  -0.0031568  -0.0250540  -0.0177329   0.0095251  -0.0153366   0.0030449
    3   0.0054010  -0.0122984  -0.0253692   0.0249303  -0.0242606  -0.0005038
           13          14          15          16          17          18
    1   0.0347496   0.0116551  -0.0213292  -0.0594251   0.0225332   0.0247948
    2   0.0009883   0.0008931  -0.0494939  -0.0162603   0.0046200   0.0210234
    3  -0.0155006  -0.0037638   0.0290436   0.0179154   0.0107576  -0.0090125
           19          20          21          22          23          24
    1   0.0124938  -0.0039919  -0.0142089  -0.0297548   0.0172923   0.0005067
    2  -0.0279022  -0.0146722  -0.0017039   0.0158885   0.0196353   0.0036012
    3  -0.0025807   0.0103672   0.0021120  -0.0068315   0.0223831  -0.0004163
           25          26          27          28          29          30
    1   0.0005026   0.0037870  -0.0007374   0.0015208  -0.0023629   0.0015149
    2  -0.0028249   0.0106555  -0.0043407   0.0034022   0.0024957  -0.0015700
    3   0.0031757   0.0024477  -0.0039181  -0.0008083  -0.0059920   0.0030362
           31          32          33          34          35          36
    1   0.0097101   0.0031726   0.0030914  -0.0200157   0.0061165   0.0143025
    2   0.0025336   0.0126748   0.0331686   0.0195334  -0.0053773   0.0078123
    3   0.0033094   0.0050697  -0.0055260   0.0141509   0.0121567  -0.0018458
           37          38          39          40          41          42
    1  -0.0112459  -0.0347482   0.0006150   0.0083579  -0.0014188  -0.0023229
    2  -0.0150218  -0.0241207  -0.0139394   0.0123331   0.0023950  -0.0047885
    3  -0.0170455   0.0078344  -0.0027159   0.0161848  -0.0012331  -0.0017531
           43          44          45          46          47          48
    1   0.0051351  -0.0030992  -0.0019565   0.0000150  -0.0203955   0.0012324
    2   0.0030415   0.0010902   0.0018226  -0.0011867  -0.0044907   0.0023418
    3   0.0004852  -0.0034373  -0.0096585   0.0049451   0.0017225   0.0009448
           49          50          51          52          53          54
    1   0.0007790  -0.0011085   0.0010660   0.0018955   0.0151270  -0.0073526
    2  -0.0029040  -0.0027148   0.0014097   0.0019808   0.0134434   0.0013221
    3  -0.0004275   0.0007412  -0.0023543   0.0010205   0.0077785  -0.0020306
           55          56
    1  -0.0016602  -0.0007877
    2  -0.0012409   0.0007680
    3   0.0005711   0.0005251
 Max gradient component =       1.110E-01
 RMS gradient           =       1.704E-02
 Gradient time:  CPU 31.89 s  wall 0.67 s
 Geometry Optimization Parameters
   NAtoms,    NIC,     NZ,  NCons,   NDum,   NFix, NCnnct, MaxDiis
       56     458       0       9       0       0       0       0

 Cartesian Hessian Update
 Hessian Updated using BFGS Update


** CONSTRAINED OPTIMIZATION IN DELOCALIZED INTERNAL COORDINATES **
   Searching for a Minimum

   Optimization Cycle:   3

                       Coordinates (Angstroms)
     ATOM                X               Y               Z
      1  O        -2.8684353517   -2.8484863171   -0.4014624983
      2  C        -2.3106580831   -1.9746846736   -1.0920435100
      3  C        -2.5421410729   -0.4512031322   -0.9534382662
      4  C        -2.5189242831    0.2277408504    0.4534289587
      5  C        -2.1141672196   -0.6139172678    1.7071793452
      6  O        -1.0251399555   -0.0934040767    2.4384766769
      7  C        -1.2945510881    1.1773956285    3.0858348020
      8  C        -0.6209774541    2.3567364024    2.3256822625
      9  O         0.7745906532    2.0515129827    2.0102688452
     10  C         0.9267579426    1.3319298613    0.8240843793
     11  C         2.3775204734    1.4470663961    0.2990575182
     12  C         3.2839213666    0.1895806476    0.5145202296
     13  C         2.5446010226   -1.1090561829    0.9144842660
     14  O         1.3471030060   -1.2261426802    1.2396172801
     15  O        -1.3657546959   -2.2944661136   -2.0638054772
     16  O         3.4093994191   -2.2014575731    0.9294187118
     17  O         0.0357803110    0.7573080634    0.1871566976
     18  C         2.8579408691   -3.4668634836    1.2837286167
     19  C         2.4533129019    1.6116844103   -1.2600083829
     20  C         3.8030066867    2.2989164823   -1.6305635975
     21  C         4.8068895102    1.1614010817   -1.3166250934
     22  C         3.8216000266    0.0036902389   -0.9512966472
     23  O         2.6441722045    0.2634972413   -1.7569605053
     24  H         2.8406840880    2.3294057648    0.7854056313
     25  H         4.0911866995    0.3543582132    1.2549416865
     26  H         1.5890619874    2.1594653243   -1.6872766666
     27  H         3.7911428802    2.4751301239   -2.7227325512
     28  H         3.9989331029    3.2562400854   -1.1153367213
     29  H         5.3711384199    0.9155531998   -2.2345836748
     30  H         5.5111558601    1.3727865982   -0.4921171060
     31  H         4.2913818988   -0.9878167973   -1.1137480844
     32  O        -2.6995113462   -1.6430489829    2.0773974283
     33  C        -1.0433536341   -3.6709420152   -2.2484653511
     34  C        -2.2595190125    0.7665570068   -1.9313288455
     35  C        -3.6394793755    1.3361604692   -2.3488479531
     36  C        -4.1307012794    1.8251503455   -0.9492263102
     37  C        -2.8080795545    1.7086837979   -0.0711733413
     38  O        -1.7875004085    1.8676545808   -1.0851196053
     39  H        -3.6325133241   -0.6149058927   -1.1263774885
     40  H        -3.5756494024    0.1459728364    0.8317257635
     41  H        -1.9348223051   -4.2631823668   -2.5527786214
     42  H        -1.5587421867    0.5334987645   -2.7581286044
     43  H        -3.4416888336    2.2094433602   -2.9995522894
     44  H        -4.3256487759    0.6462011020   -2.8725199496
     45  H        -4.4563099405    2.8767140353   -1.0472532379
     46  H        -4.9555808648    1.2323956695   -0.5111335826
     47  H        -2.9297129473    2.4678336276    0.7262260906
     48  H        -0.6205656596   -4.1152973072   -1.3203095955
     49  H        -0.2826818206   -3.7358811276   -3.0515875237
     50  H         3.6742557214   -4.2150274156    1.2433684684
     51  H         2.0566689527   -3.7737807743    0.5752985070
     52  H         2.4356603345   -3.4535046777    2.3129862509
     53  H        -1.0783765831    2.7957894396    1.4293162197
     54  H        -0.6083176314    3.2083149838    3.0423430986
     55  H        -0.8372548727    1.1139308172    4.0968567501
     56  H        -2.3796946642    1.3908198570    3.2246370988
   Point Group: c1    Number of degrees of freedom:   162


   Energy is  -1510.109259117

              Constraints and their Current Values
                                        Value     Constraint
   Dihedral:        1   2   3   4       47.342       47.368
   Dihedral:        3   4   5   6      123.199      123.158
   Dihedral:        4   5   6   7       66.312       66.316
   Dihedral:        5   6   7   8     -104.346     -104.211
   Dihedral:        6   7   8   9      -47.438      -47.368
   Dihedral:        7   8   9  10       85.279       85.263
   Dihedral:        8   9  10  11      161.010      161.053
   Dihedral:        9  10  11  12      104.204      104.211
   Dihedral:       11  12  13  14       -9.486       -9.474
 Hessian Updated using BFGS Update

   Using Lagrange Multiplier Algorithm


162 Hessian modes will be used to form the next step
  Hessian Eigenvalues:
    -0.977754   -0.977753   -0.977753   -0.977753   -0.977753   -0.977753
    -0.977753   -0.977401   -0.952642    0.044652    0.045000    0.045000
     0.045001    0.045008    0.045029    0.045142    0.045577    0.045904
     0.047483    0.047924    0.048876    0.052938    0.053266    0.059815
     0.060173    0.062666    0.064126    0.067061    0.067211    0.067377
     0.067679    0.070129    0.071731    0.072596    0.073813    0.074199
     0.075785    0.076948    0.080756    0.081674    0.082488    0.083632
     0.084094    0.084583    0.085180    0.085726    0.086136    0.087289
     0.087808    0.088770    0.089128    0.089399    0.089839    0.089881
     0.090699    0.093863    0.094635    0.095697    0.096650    0.098197
     0.111268    0.111578    0.114655    0.114674    0.115884    0.115916
     0.116830    0.117476    0.118456    0.119236    0.123348    0.126089
     0.127536    0.131063    0.132399    0.140933    0.155399    0.159549
     0.160000    0.162075    0.170919    0.172649    0.181041    0.214027
     0.215783    0.220504    0.223714    0.240188    0.243025    0.246375
     0.248622    0.249187    0.249886    0.249891    0.249981    0.252685
     0.257583    0.260395    0.266055    0.267616    0.269511    0.279567
     0.285271    0.289275    0.296357    0.299531    0.308393    0.309621
     0.312090    0.317531    0.318776    0.320370    0.320811    0.321342
     0.321906    0.322588    0.323171    0.323551    0.323696    0.323733
     0.323890    0.324328    0.324396    0.324469    0.324662    0.324704
     0.324828    0.324839    0.324942    0.325186    0.325627    0.326731
     0.326800    0.329418    0.332035    0.356556    0.366106    0.368396
     0.381706    0.396028    0.406826    0.412642    0.467135    0.473166
     0.492829    0.522332    0.533069    0.536182    0.638790    0.940820
     0.942311    0.965669    1.022596    1.022752    1.022753    1.022753
     1.022753    1.022753    1.022753    1.022753    1.067377    1.131236

 Minimum Search - Taking P-RFO Step
 Searching for Lamda that Maximizes Along the Constraint modes Only
 Value Taken    Lamda =   0.00391133
 Searching for Lamda that Minimizes Along All other modes
 Value Taken    Lamda =  -0.08613583
 Calculated Step too Large.  Step scaled by  0.491759
 Step Taken.  Stepsize is  0.300000

                             Maximum     Tolerance    Cnvgd?
         Gradient            0.075120       0.000300      NO
         Displacement        0.076152       0.001200      NO
         Energy change     -0.051361       0.000001      NO


 New Cartesian Coordinates Obtained by Inverse Iteration

 Displacement from previous Coordinates is:  1.185672
 Adding empirical dispersion correction 
 ----------------------------------------------------------------
 Doing -D3(op) with
 s6 =   1.00000
 s8 =   0.78311
 a1 =   0.30000
 a2 =   4.25000
 n  =  10.00000
 -D3 energy without 3body term =     -0.0706919334 hartrees
 ----------------------------------------------------------------
             Standard Nuclear Orientation (Angstroms)
    I     Atom           X                Y                Z
 ----------------------------------------------------------------
    1      O      -2.8816437326    -2.9067552555    -0.4000951312
    2      C      -2.3704437832    -2.0208642707    -1.1154560845
    3      C      -2.6354116132    -0.4954382707    -0.9731670069
    4      C      -2.5821387784     0.2122924242     0.4183487288
    5      C      -2.1320680739    -0.5847990176     1.7062320852
    6      O      -1.0288125613    -0.0826668406     2.4583295073
    7      C      -1.2707838664     1.1988233117     3.1138813787
    8      C      -0.5642180090     2.3812829465     2.3659210510
    9      O       0.8376868898     2.0618242204     2.0447190070
   10      C       0.9805687292     1.3494172950     0.8332957414
   11      C       2.4455611293     1.4667435166     0.3246122598
   12      C       3.3480400600     0.1976661416     0.5260791484
   13      C       2.5851658886    -1.1010581820     0.9181115987
   14      O       1.3863496622    -1.2191893677     1.2455970335
   15      O      -1.4364123984    -2.3015100928    -2.1294184883
   16      O       3.4707400157    -2.1963923826     0.9103079958
   17      O       0.0707174029     0.8013534694     0.1883496540
   18      C       2.8429228785    -3.4501033519     1.2626962066
   19      C       2.5276215138     1.6536004864    -1.2394462537
   20      C       3.8907759265     2.3438594155    -1.5870093833
   21      C       4.8928277845     1.1904708353    -1.2802100834
   22      C       3.8973011192     0.0226815831    -0.9441159224
   23      O       2.7163552896     0.3000913259    -1.7622334652
   24      H       2.9085486120     2.3369429204     0.8281911481
   25      H       4.1536925457     0.3492116318     1.2692486209
   26      H       1.6619836610     2.1985870841    -1.6654410289
   27      H       3.8940669683     2.5446555271    -2.6731460910
   28      H       4.0817448231     3.2880367629    -1.0493592987
   29      H       5.4705884253     0.9553265806    -2.1904175862
   30      H       5.5855401122     1.3884411065    -0.4447937759
   31      H       4.3509911018    -0.9733451934    -1.1182610938
[...]
     15  O        -0.9674673998   -1.6059844464   -2.2684089601
     16  O         2.8167776373   -2.4189789024    0.9279896255
     17  O        -0.0307058522    1.0053294081    0.1192782127
     18  C         1.7561324899   -3.3982729141    1.2917615298
     19  C         2.4687223763    1.5187099118   -1.2482298947
     20  C         3.9201641038    1.9559958078   -1.6892626808
     21  C         4.7123463391    0.6043289093   -1.5274513735
     22  C         3.5681171697   -0.3656309926   -1.0383225430
     23  O         2.3740798338    0.1281161812   -1.7598176505
     24  H         2.9740911351    2.1636068239    0.8492860735
     25  H         4.1591258229    0.0876367574    1.0662059597
     26  H         1.6363914552    2.1266975539   -1.6522635926
     27  H         3.9177177114    2.2992839593   -2.7360542051
     28  H         4.3193796327    2.7613983847   -1.0524624540
     29  H         5.1240668561    0.2595220587   -2.4893442167
     30  H         5.5334282108    0.6750738950   -0.7964418572
     31  H         3.7287336294   -1.4433481780   -1.2351800515
     32  O        -2.7753771145   -1.6424275375    1.9991728573
     33  C         0.4535663496   -2.0288812618   -2.3232738748
     34  C        -2.9993238565    0.0814063972   -2.0800893052
     35  C        -4.3596371489    0.8860540019   -2.0015837458
     36  C        -4.0098811949    1.9895574245   -0.9338781794
     37  C        -2.5938194415    1.4799972835   -0.4440975306
     38  O        -1.9623226969    1.0858879012   -1.7248099510
     39  H        -3.6731255102   -1.6743757826   -0.7820822880
     40  H        -3.9393730588    0.1904917153    0.6523671169
     41  H         0.6399655877   -2.9019925062   -1.6676112105
     42  H        -2.7730245075   -0.3716727320   -3.0632365076
     43  H        -4.6077152788    1.3278209560   -2.9793251444
     44  H        -5.1966203660    0.2427602692   -1.6848940403
     45  H        -3.9108670010    2.9813800229   -1.4042707807
     46  H        -4.7509029252    2.0536837306   -0.1209230792
     47  H        -1.9748802331    2.2291160366    0.0763367841
     48  H         1.1205131912   -1.1787373593   -2.0284767760
     49  H         0.6463799963   -2.3069248955   -3.3755230114
     50  H         2.0827381427   -4.3665827631    0.8704042331
     51  H         0.7760955976   -3.0849955260    0.8628302837
     52  H         1.6569215111   -3.4890089772    2.3923715044
     53  H        -1.0565366470    2.7102044039    1.5850303634
     54  H        -0.3957694197    3.1893723693    3.1995677964
     55  H        -0.8215641964    0.9763737955    4.1664931931
     56  H        -2.3439877051    1.4544092741    3.3275195085
   Point Group: c1    Number of degrees of freedom:   162


   Energy is  -1510.244559994

              Constraints and their Current Values
                                        Value     Constraint
   Dihedral:        1   2   3   4       47.368       47.368
   Dihedral:        3   4   5   6      123.158      123.158
   Dihedral:        4   5   6   7       66.316       66.316
   Dihedral:        5   6   7   8     -104.211     -104.211
   Dihedral:        6   7   8   9      -47.368      -47.368
   Dihedral:        7   8   9  10       85.263       85.263
   Dihedral:        8   9  10  11      161.053      161.053
   Dihedral:        9  10  11  12      104.211      104.211
   Dihedral:       11  12  13  14       -9.474       -9.474
 Hessian Updated using BFGS Update

153 Hessian modes will be used to form the next step
  Hessian Eigenvalues:
     0.003903    0.006000    0.009741    0.018650    0.031825    0.044581
     0.044875    0.046235    0.047391    0.048547    0.048917    0.050913
     0.053391    0.055111    0.059094    0.060288    0.063602    0.064654
     0.066516    0.067361    0.067924    0.068583    0.070478    0.073632
     0.074013    0.075816    0.078242    0.079119    0.080538    0.080737
     0.081785    0.082953    0.083982    0.084340    0.084718    0.084805
     0.086549    0.087876    0.088086    0.088823    0.089066    0.089976
     0.090273    0.090582    0.091810    0.094232    0.094932    0.095294
     0.096946    0.097211    0.100180    0.108594    0.111588    0.112109
     0.115446    0.116411    0.117062    0.120326    0.120942    0.121534
     0.123473    0.124595    0.126288    0.128081    0.133574    0.138646
     0.143457    0.159071    0.159804    0.160067    0.160569    0.161302
     0.163300    0.168351    0.172869    0.183046    0.189364    0.211324
     0.227579    0.236942    0.239555    0.243559    0.246238    0.248720
     0.249710    0.251916    0.254340    0.254699    0.261608    0.264542
     0.266990    0.269566    0.275112    0.281777    0.283704    0.286830
     0.289870    0.296129    0.296704    0.300531    0.305963    0.311324
     0.316966    0.319774    0.320327    0.320585    0.321175    0.321713
     0.321997    0.322574    0.323179    0.323414    0.323565    0.323687
     0.323788    0.323961    0.324491    0.324585    0.324698    0.324917
     0.325004    0.325190    0.325406    0.326228    0.326606    0.327820
     0.328298    0.330747    0.331988    0.342206    0.361930    0.367728
     0.368358    0.369558    0.382443    0.406018    0.410299    0.444092
     0.459062    0.491604    0.502009    0.513446    0.537569    0.550994
     0.595368    0.681536    0.897325    0.947312    0.951972    0.985206
     1.081532    1.296858    4.555047

 Minimum Search - Taking Simple RFO Step
 Searching for Lamda that Minimizes Along All modes
 Value Taken    Lamda =   0.00000000
 Step Taken.  Stepsize is  0.007740

                             Maximum     Tolerance    Cnvgd?
         Gradient           0.000081      0.000300     YES
         Displacement       0.005071      0.001200      NO
         Energy change     -0.000000      0.000001     YES

 Final energy is   -1510.24455999437     


 ******************************
 **  OPTIMIZATION CONVERGED  **
 ******************************

                       Coordinates (Angstroms)
     ATOM                X               Y               Z
      1  O        -0.8101382915   -2.0936575900    0.0394150390
      2  C        -1.4425941332   -1.6095704655   -0.9285119654
      3  C        -2.8713900429   -0.9187898341   -0.8642062176
      4  C        -2.8804597658    0.1169333866    0.3337557009
      5  C        -2.2561456243   -0.5573783217    1.6449966707
      6  O        -1.1354718749   -0.1031950523    2.4362739521
      7  C        -1.2828312988    1.1583388786    3.1721850958
      8  C        -0.5036378015    2.3543935541    2.4772907463
      9  O         0.8795337274    1.9484191452    2.1160604910
     10  C         0.9495184329    1.2879119011    0.8375815494
     11  C         2.4506030008    1.3424720620    0.3301831782
     12  C         3.2342047098   -0.0278344986    0.4713620589
     13  C         2.3168783532   -1.1052023222    1.1407551702
     14  O         1.2007900952   -0.8657898700    1.6611988944
     15  O        -0.9674673998   -1.6059844464   -2.2684089601
     16  O         2.8167776373   -2.4189789024    0.9279896255
     17  O        -0.0307058522    1.0053294081    0.1192782127
     18  C         1.7561324899   -3.3982729141    1.2917615298
     19  C         2.4687223763    1.5187099118   -1.2482298947
     20  C         3.9201641038    1.9559958078   -1.6892626808
     21  C         4.7123463391    0.6043289093   -1.5274513735
     22  C         3.5681171697   -0.3656309926   -1.0383225430
     23  O         2.3740798338    0.1281161812   -1.7598176505
     24  H         2.9740911351    2.1636068239    0.8492860735
     25  H         4.1591258229    0.0876367574    1.0662059597
     26  H         1.6363914552    2.1266975539   -1.6522635926
     27  H         3.9177177114    2.2992839593   -2.7360542051
     28  H         4.3193796327    2.7613983847   -1.0524624540
     29  H         5.1240668561    0.2595220587   -2.4893442167
     30  H         5.5334282108    0.6750738950   -0.7964418572
     31  H         3.7287336294   -1.4433481780   -1.2351800515
     32  O        -2.7753771145   -1.6424275375    1.9991728573
     33  C         0.4535663496   -2.0288812618   -2.3232738748
     34  C        -2.9993238565    0.0814063972   -2.0800893052
     35  C        -4.3596371489    0.8860540019   -2.0015837458
     36  C        -4.0098811949    1.9895574245   -0.9338781794
     37  C        -2.5938194415    1.4799972835   -0.4440975306
     38  O        -1.9623226969    1.0858879012   -1.7248099510
     39  H        -3.6731255102   -1.6743757826   -0.7820822880
     40  H        -3.9393730588    0.1904917153    0.6523671169
     41  H         0.6399655877   -2.9019925062   -1.6676112105
     42  H        -2.7730245075   -0.3716727320   -3.0632365076
     43  H        -4.6077152788    1.3278209560   -2.9793251444
     44  H        -5.1966203660    0.2427602692   -1.6848940403
     45  H        -3.9108670010    2.9813800229   -1.4042707807
     46  H        -4.7509029252    2.0536837306   -0.1209230792
     47  H        -1.9748802331    2.2291160366    0.0763367841
     48  H         1.1205131912   -1.1787373593   -2.0284767760
     49  H         0.6463799963   -2.3069248955   -3.3755230114
     50  H         2.0827381427   -4.3665827631    0.8704042331
     51  H         0.7760955976   -3.0849955260    0.8628302837
     52  H         1.6569215111   -3.4890089772    2.3923715044
     53  H        -1.0565366470    2.7102044039    1.5850303634
     54  H        -0.3957694197    3.1893723693    3.1995677964
     55  H        -0.8215641964    0.9763737955    4.1664931931
     56  H        -2.3439877051    1.4544092741    3.3275195085

Z-matrix Print:
$molecule
0 1
O 
C  1 1.247659
O  2 1.440721 1 125.208962
C  3 1.486091 2 112.715497 1 -3.748452 0
H  4 1.108344 3 110.874284 2 -37.849804 0
H  4 1.109283 3 105.866295 2 -156.320942 0
C  2 1.585460 1 124.568054 3 -162.407350 0
H  7 1.103526 2 108.916764 1 143.737845 0
C  7 1.584835 2 114.196082 1 -90.866636 0
H  9 1.105736 7 111.790480 2 -123.806106 0
C  9 1.565342 7 110.086611 2 -2.008709 0
O  11 1.254525 9 124.570018 7 -9.474014 0
O  11 1.421681 9 111.467013 7 162.560909 0
C  13 1.488729 11 108.710940 9 -166.572298 0
H  14 1.105367 13 105.818345 11 165.692962 0
H  14 1.108791 13 111.107915 11 -75.588117 0
H  14 1.114718 13 110.333246 11 45.478942 0
C  9 1.582641 7 101.764565 2 117.629421 0
H  18 1.107260 9 114.075556 7 -155.643531 0
O  18 1.479887 9 102.921565 7 -35.541177 0
C  20 1.484732 18 95.339988 9 56.477056 0
H  21 1.107098 20 109.918316 18 -179.353254 0
C  18 1.577761 9 108.512939 7 73.392485 0
H  23 1.101615 18 111.981149 9 46.229483 0
H  23 1.101655 18 110.444796 9 167.550743 0
C  23 1.575036 18 101.225690 9 -74.209669 0
H  26 1.101617 23 112.691496 18 120.402896 0
H  26 1.101647 23 111.478830 18 -116.920909 0
C  4 1.587630 3 110.939870 2 85.263043 0
H  29 1.111093 4 108.138569 3 68.528781 0
H  29 1.112582 4 109.192139 3 -173.789355 0
O  29 1.467906 4 112.255962 3 -47.367995 0
C  32 1.445099 29 117.824542 4 -104.210948 0
O  33 1.253943 32 116.003110 29 -116.595414 0
C  33 1.601192 32 128.200709 29 66.315983 0
H  35 1.108252 33 99.501261 32 -126.461944 0
C  35 1.583641 33 109.987714 32 123.157999 0
H  37 1.104733 35 112.763297 33 76.778149 0
C  37 1.579598 35 99.653900 33 -160.124036 0
H  39 1.105925 37 114.098310 35 165.982014 0
O  39 1.486801 37 100.798976 35 47.835406 0
C  41 1.481329 39 95.106241 37 -60.674883 0
H  42 1.102323 41 110.464365 39 177.737995 0
C  39 1.582426 37 110.696004 35 -61.907065 0
H  44 1.101217 39 110.707350 37 -161.689169 0
H  44 1.102116 39 111.733653 37 -40.564958 0
C  44 1.574816 39 101.479910 37 79.535456 0
H  47 1.101872 44 113.056305 39 -128.910168 0
H  47 1.102173 44 111.171358 39 108.323718 0
C  37 1.588323 35 108.676041 33 -46.732818 0
O  50 1.253485 37 126.198053 35 47.367953 0
O  50 1.421648 37 109.736976 35 -132.733126 0
C  52 1.483640 50 110.746873 37 170.225534 0
H  53 1.105312 52 105.901760 50 162.524221 0
H  53 1.107683 52 111.343956 50 43.428037 0
H  53 1.120030 52 110.136346 50 -78.896105 0
$end

 
 --------------------------------------------------------------
 
                    Orbital Energies (a.u.)
 --------------------------------------------------------------
 
 Alpha MOs
 -- Occupied --
-18.934 -18.919 -18.910 -18.900 -18.898 -18.883 -18.872 -18.864
-18.860 -18.846 -10.097 -10.089 -10.086 -10.086 -10.068 -10.064
-10.063 -10.062 -10.048 -10.045 -10.045 -10.038 -10.030 -10.030
-10.025 -10.023 -10.022 -10.019 -10.012 -10.010  -1.012  -0.997
 -0.991  -0.982  -0.976  -0.955  -0.933  -0.921  -0.918  -0.913
 -0.763  -0.750  -0.723  -0.711  -0.709  -0.695  -0.689  -0.652
 -0.641  -0.605  -0.585  -0.577  -0.546  -0.539  -0.537  -0.527
 -0.508  -0.494  -0.473  -0.468  -0.459  -0.457  -0.452  -0.436
 -0.431  -0.425  -0.420  -0.409  -0.402  -0.398  -0.392  -0.385
 -0.378  -0.374  -0.369  -0.362  -0.359  -0.352  -0.346  -0.337
 -0.333  -0.328  -0.325  -0.324  -0.319  -0.315  -0.313  -0.311
 -0.304  -0.296  -0.295  -0.291  -0.287  -0.273  -0.273  -0.269
 -0.261  -0.249  -0.239  -0.233  -0.230  -0.220  -0.206  -0.176
 -0.167  -0.162  -0.150  -0.146  -0.145  -0.138  -0.133  -0.126
 -0.124
 -- Virtual --
  0.098   0.099   0.118   0.125   0.224   0.240   0.248   0.252
  0.260   0.271   0.282   0.290   0.305   0.316   0.327   0.331
  0.335   0.345   0.349   0.350   0.354   0.357   0.365   0.375
  0.376   0.383   0.386   0.403   0.406   0.407   0.413   0.418
  0.421   0.424   0.426   0.433   0.436   0.438   0.441   0.444
  0.447   0.449   0.452   0.456   0.463   0.468   0.472   0.486
  0.486   0.491   0.506   0.510   0.511   0.525   0.536   0.539
  0.551   0.551   0.597   0.619   0.635   0.658   0.666
 --------------------------------------------------------------
 
          Ground-State Mulliken Net Atomic Charges

     Atom                 Charge (a.u.)
  ----------------------------------------
      1 O                    -0.217264
      2 C                     0.221250
      3 C                    -0.072814
      4 C                    -0.081728
      5 C                     0.222303
      6 O                    -0.175802
      7 C                    -0.040910
      8 C                    -0.049694
      9 O                    -0.180740
     10 C                     0.220347
     11 C                    -0.081519
     12 C                    -0.078937
     13 C                     0.213066
     14 O                    -0.182344
     15 O                    -0.169374
     16 O                    -0.170970
     17 O                    -0.224578
     18 C                    -0.139376
     19 C                     0.028306
     20 C                    -0.143711
     21 C                    -0.143254
     22 C                     0.025426
     23 O                    -0.187582
     24 H                     0.083622
     25 H                     0.085384
     26 H                     0.092467
     27 H                     0.079176
     28 H                     0.074755
     29 H                     0.078948
     30 H                     0.074929
     31 H                     0.090873
     32 O                    -0.194461
     33 C                    -0.146728
     34 C                     0.022601
     35 C                    -0.146797
     36 C                    -0.142920
     37 C                     0.029143
     38 O                    -0.184864
     39 H                     0.086358
     40 H                     0.074404
     41 H                     0.079741
     42 H                     0.090392
     43 H                     0.075420
     44 H                     0.071507
     45 H                     0.073805
     46 H                     0.068853
     47 H                     0.081676
     48 H                     0.114531
     49 H                     0.079076
     50 H                     0.083783
     51 H                     0.118740
     52 H                     0.086299
     53 H                     0.079153
     54 H                     0.084117
     55 H                     0.088788
     56 H                     0.077128
  ----------------------------------------
  Sum of atomic charges =    -0.000000

 -----------------------------------------------------------------
                    Cartesian Multipole Moments
 -----------------------------------------------------------------
    Charge (ESU x 10^10)
                 0.0000
    Dipole Moment (Debye)
         X       1.2341      Y       2.5290      Z      -0.2900
       Tot       2.8289
    Quadrupole Moments (Debye-Ang)
        XX    -142.1782     XY      -4.7740     YY    -153.2095
        XZ      -0.6953     YZ       7.8020     ZZ    -160.1363
    Octopole Moments (Debye-Ang^2)
       XXX      -0.5915    XXY      19.2099    XYY       9.5377
       YYY     -22.2056    XXZ      -9.9013    XYZ     -20.3315
       YYZ       4.8476    XZZ      -2.7279    YZZ       7.2731
       ZZZ      27.7393
    Hexadecapole Moments (Debye-Ang^3)
      XXXX   -6416.9786   XXXY     158.3272   XXYY   -1543.1110
      XYYY      78.3562   YYYY   -2420.0362   XXXZ      41.8726
      XXYZ      31.8458   XYYZ      12.0869   YYYZ      -2.7543
      XXZZ   -1542.7731   XYZZ     -13.4397   YYZZ    -850.5343
      XZZZ       4.8896   YZZZ      33.9894   ZZZZ   -2658.6593
 -----------------------------------------------------------------
Archival summary:
1\1\vega02.cac.cornell.edu\OPT\ProcedureUnspecified\STO-3G\102026\jj585\TueJan1620:44:052018TueJan1620:44:052018\0\\#,OPT,ProcedureUnspecified,STO-3G,\\0,1\O\C,1,1.24766\O,2,1.44072,1,125.209\C,3,1.48609,2,112.715,1,-3.74845,0\H,4,1.10834,3,110.874,2,-37.8498,0\H,4,1.10928,3,105.866,2,-156.321,0\C,2,1.58546,1,124.568,3,-162.407,0\H,7,1.10353,2,108.917,1,143.738,0\C,7,1.58484,2,114.196,1,-90.8666,0\H,9,1.10574,7,111.79,2,-123.806,0\C,9,1.56534,7,110.087,2,-2.00871,0\O,11,1.25453,9,124.57,7,-9.47401,0\O,11,1.42168,9,111.467,7,162.561,0\C,13,1.48873,11,108.711,9,-166.572,0\H,14,1.10537,13,105.818,11,165.693,0\H,14,1.10879,13,111.108,11,-75.5881,0\H,14,1.11472,13,110.333,11,45.4789,0\C,9,1.58264,7,101.765,2,117.629,0\H,18,1.10726,9,114.076,7,-155.644,0\O,18,1.47989,9,102.922,7,-35.5412,0\C,20,1.48473,18,95.34,9,56.4771,0\H,21,1.1071,20,109.918,18,-179.353,0\C,18,1.57776,9,108.513,7,73.3925,0\H,23,1.10161,18,111.981,9,46.2295,0\H,23,1.10165,18,110.445,9,167.551,0\C,23,1.57504,18,101.226,9,-74.2097,0\H,26,1.10162,23,112.691,18,120.403,0\H,26,1.10165,23,111.479,18,-116.921,0\C,4,1.58763,3,110.94,2,85.263,0\H,29,1.11109,4,108.139,3,68.5288,0\H,29,1.11258,4,109.192,3,-173.789,0\O,29,1.46791,4,112.256,3,-47.368,0\C,32,1.4451,29,117.825,4,-104.211,0\O,33,1.25394,32,116.003,29,-116.595,0\C,33,1.60119,32,128.201,29,66.316,0\H,35,1.10825,33,99.5013,32,-126.462,0\C,35,1.58364,33,109.988,32,123.158,0\H,37,1.10473,35,112.763,33,76.7781,0\C,37,1.5796,35,99.6539,33,-160.124,0\H,39,1.10593,37,114.098,35,165.982,0\O,39,1.4868,37,100.799,35,47.8354,0\C,41,1.48133,39,95.1062,37,-60.6749,0\H,42,1.10232,41,110.464,39,177.738,0\C,39,1.58243,37,110.696,35,-61.9071,0\H,44,1.10122,39,110.707,37,-161.689,0\H,44,1.10212,39,111.734,37,-40.565,0\C,44,1.57482,39,101.48,37,79.5355,0\H,47,1.10187,44,113.056,39,-128.91,0\H,47,1.10217,44,111.171,39,108.324,0\C,37,1.58832,35,108.676,33,-46.7328,0\O,50,1.25348,37,126.198,35,47.368,0\O,50,1.42165,37,109.737,35,-132.733,0\C,52,1.48364,50,110.747,37,170.226,0\H,53,1.10531,52,105.902,50,162.524,0\H,53,1.10768,52,111.344,50,43.428,0\H,53,1.12003,52,110.136,50,-78.8961,0\\\@

 Total job time:  120.00s(wall), 5724.85s(cpu) 
 Tue Jan 16 20:44:05 2018

        *************************************************************
        *                                                           *
        *  Thank you very much for using Q-Chem.  Have a nice day.  *
        *                                                           *
        *************************************************************


0 sent ACK to 0 
now end server 0 ... 
