mFile = /opt/software/qchem/qchem-5.0.1//bin/mpi/machines
Process 0 of 1 is on vega02.cac.cornell.edu - thread support 0
initial socket setup ...start
initial socket setup ...done 
now start server 0 ... 
vega02.cac.cornell.edu 10.84.3
Q-Chem Developer Version! Running on 10.84.3.*
                  Welcome to Q-Chem
     A Quantum Leap Into The Future Of Chemistry


 Q-Chem 5.0, Q-Chem, Inc., Pleasanton, CA (2017)

 Yihan Shao,  Zhengting Gan,  E. Epifanovsky,  A. T. B. Gilbert,  M. Wormit,  
 J. Kussmann,  A. W. Lange,  A. Behn,  Jia Deng,  Xintian Feng,  D. Ghosh,  
 M. Goldey,  P. R. Horn,  L. D. Jacobson,  I. Kaliman,  T. Kus,  A. Landau,  
 Jie Liu,  E. I. Proynov,  R. M. Richard,  R. P. Steele,  E. J. Sundstrom,  
 H. L. Woodcock III,  P. M. Zimmerman,  D. Zuev,  B. Albrecht,  E. Alguire,  
 S. A. Baeppler,  Z. Benda,  Y. A. Bernard,  E. J. Berquist,  K. B. Bravaya,  
 D. Casanova,  Chun-Min Chang,  Yunqing Chen,  A. Chien,  K. D. Closser,  
 M. P. Coons,  S. Dasgupta,  M. Diedenhofen,  Hainam Do,  R. G. Edgar,  
 Po-Tung Fang,  S. Fatehi,  Qingguo Feng,  Qinghui Ge,  A. Ghysels,  
 J. Gomes,  J. Gonthier,  A. Gunina,  M. W. D. Hanson-Heine,  
 P. H. P. Harbach,  A. W. Hauser,  J. E. Herr,  E. G. Hohenstein,  
 Z. C. Holden,  Kerwin Hui,  T.-C. Jagau,  Hyunjun Ji,  B. Kaduk,  
 K. Khistyaev,  Jaehoon Kim,  P. Klunzinger,  K. Koh,  D. Kosenkov,  
 T. Kowalczyk,  C. M. Krauter,  A. Kunitsa,  Ka Un Lao,  A. Laurent,  
 K. V. Lawler,  Joonho Lee,  D. Lefrancois,  S. Lehtola,  D. S. Levine,  
 Yi-Pei Li,  You-Sheng Lin,  Fenglai Liu,  E. Livshits,  A. Luenser,  
 P. Manohar,  E. Mansoor,  S. F. Manzer,  Shan-Ping Mao,  Yuezhi Mao,  
 N. Mardirossian,  A. V. Marenich,  L. A. Martinez-Martinez,  S. A. Maurer,  
 N. J. Mayhall,  S. C. McKenzie,  J.-M. Mewes,  A. F. Morrison,  K. Nanda,  
 T. S. Nguyen-Beck,  R. Olivares-Amaya,  J. A. Parkhill,  T. M. Perrine,  
 F. Plasser,  S. Prager,  A. Prociuk,  D. R. Rehn,  F. Rob,  M. Schneider,  
 N. Sergueev,  S. M. Sharada,  S. Sharma,  D. W. Small,  T. Stauch,  
 T. Stein,  Yu-Chuan Su,  A. J. W. Thom,  T. Tsuchimochi,  L. Vogt,  
 O. Vydrov,  M. A. Watson,  J. Wenzel,  M. de Wergifosse,  T. A. Wesolowski,  
 A. White,  J. Witte,  A. Yamada,  Jun Yang,  K. Yao,  S. Yeganeh,  
 S. R. Yost,  Zhi-Qiang You,  A. Zech,  Igor Ying Zhang,  Xing Zhang,  
 Yan Zhao,  Ying Zhu,  B. R. Brooks,  G. K. L. Chan,  C. J. Cramer,  
 M. S. Gordon,  W. J. Hehre,  A. Klamt,  M. W. Schmidt,  C. D. Sherrill,  
 D. G. Truhlar,  A. Aspuru-Guzik,  R. Baer,  A. T. Bell,  N. A. Besley,  
 Jeng-Da Chai,  A. Dreuw,  B. D. Dunietz,  T. R. Furlani,  Chao-Ping Hsu,  
 Yousung Jung,  Jing Kong,  D. S. Lambrecht,  WanZhen Liang,  C. Ochsenfeld,  
 V. A. Rassolov,  L. V. Slipchenko,  J. E. Subotnik,  T. Van Voorhis,  
 J. M. Herbert,  A. I. Krylov,  P. M. W. Gill,  M. Head-Gordon

 Contributors to earlier versions of Q-Chem not listed above: 
 R. D. Adamson,  B. Austin,  J. Baker,  G. J. O. Beran,  K. Brandhorst,  
 S. T. Brown,  E. F. C. Byrd,  A. K. Chakraborty,  C.-L. Cheng,  
 Siu Hung Chien,  D. M. Chipman,  D. L. Crittenden,  H. Dachsel,  
 R. A. DiStasio Jr.,  R. J. Doerksen,  A. D. Dutoi,  L. Fusti-Molnar,  
 W. A. Goddard III,  A. Golubeva-Zadorozhnaya,  S. R. Gwaltney,  G. Hawkins,  
 A. Heyden,  S. Hirata,  G. Kedziora,  F. J. Keil,  C. Kelley,  Jihan Kim,  
 R. A. King,  R. Z. Khaliullin,  P. P. Korambath,  W. Kurlancheek,  
 A. M. Lee,  M. S. Lee,  S. V. Levchenko,  Ching Yeh Lin,  D. Liotard,  
 R. C. Lochan,  I. Lotan,  P. E. Maslen,  N. Nair,  D. P. O'Neill,  
 D. Neuhauser,  E. Neuscamman,  C. M. Oana,  R. Olson,  B. Peters,  
 R. Peverati,  P. A. Pieniazek,  Y. M. Rhee,  J. Ritchie,  M. A. Rohrdanz,  
 E. Rosta,  N. J. Russ,  H. F. Schaefer III,  N. E. Schultz,  N. Shenvi,  
 A. C. Simmonett,  A. Sodt,  D. Stuck,  K. S. Thanthiriwatte,  V. Vanovschi,  
 Tao Wang,  A. Warshel,  C. F. Williams,  Q. Wu,  X. Xu,  W. Zhang

 Please cite Q-Chem as follows:
 Y. Shao et al., Mol. Phys. 113, 184-215 (2015)
 DOI: 10.1080/00268976.2014.952696

 Q-Chem 5.0.1 for Intel X86 EM64T Linux

 Parts of Q-Chem use Armadillo 5.200.1 (Boston Tea Smuggler).
 http://arma.sourceforge.net/

 Q-Chem begins on Tue Jan 16 21:52:05 2018  

Host: vega02.cac.cornell.edu
0

     Scratch files written to /scratch/jj585/SOT1001/1284c.save//
 Parallel job on  1  processors

Checking the input file for inconsistencies... 	...done.

--------------------------------------------------------------
User input:
--------------------------------------------------------------
$molecule
0  1
O -3.94934 -3.66094 2.70899
C -3.26408 -4.56952 2.26188
C -3.36658 -6.02376 2.66595
C -2.93384 -7.07329 1.62908
C -2.28017 -6.548 0.37016
O -1.99551 -7.58478 -0.47214
C -1.52596 -7.15578 -1.75462
C -0.51728 -6.02325 -1.59318
O 0.79577 -6.48269 -1.95054
C 1.79746 -5.58768 -1.76427
C 2.8724 -5.67931 -2.82104
C 2.3624 -5.97347 -4.23937
C 0.87566 -5.7799 -4.46036
O 0.32018 -5.73947 -5.54864
O -2.04205 -4.18886 1.78754
O 0.48193 -4.66325 -3.77366
O 1.69066 -4.6053 -1.0388
C -0.46514 -3.72225 -4.16219
C 3.69289 -4.39482 -3.05319
C 5.0447 -4.75405 -3.66935
C 4.62026 -5.15914 -5.06635
C 3.11955 -4.85643 -4.99695
O 3.03918 -3.75723 -4.1203
H 3.54955 -6.49216 -2.47539
H 2.62844 -6.98172 -4.62543
H 3.84265 -3.78897 -2.13355
H 5.63694 -3.81331 -3.73765
H 5.63055 -5.51594 -3.1115
H 5.11825 -4.48027 -5.79402
H 4.8184 -6.21883 -5.33684
H 2.7145 -4.6903 -6.01949
O -2.72404 -5.51568 -0.12705
C -1.66624 -2.88985 1.51107
C -2.37903 -6.35022 3.80539
C -2.84615 -7.59128 4.56453
C -2.5447 -8.67216 3.54831
C -1.87909 -7.84007 2.44757
O -1.22454 -6.81179 3.14816
H -4.40489 -6.18623 3.03355
H -3.79192 -7.70906 1.31398
H -1.71134 -2.27085 2.43242
H -2.23348 -5.50263 4.51116
H -2.16269 -7.72334 5.43385
H -3.89655 -7.55625 4.92544
H -1.81037 -9.37901 3.99502
H -3.42847 -9.2306 3.1706
H -1.23082 -8.48825 1.81783
H -2.33256 -2.45865 0.73353
H -0.62459 -2.8874 1.1295
H -0.55422 -2.94891 -3.37182
H -1.4549 -4.20626 -4.30645
H -0.14829 -3.22737 -5.1049
H -0.89488 -5.16125 -2.14506
H -0.41286 -5.61057 -0.57161
H -2.40325 -6.76861 -2.32204
H -1.12907 -8.009 -2.34466
$end

$opt
CONSTRAINT
tors           1           2           3           4    +153.140
tors           3           4           5           6    -177.851
tors           4           5           6           7    +172.749
tors           5           6           7           8     +43.438
tors           6           7           8           9    +110.527
tors           7           8           9          10    -175.859
tors           8           9          10          11    -144.475
tors           9          10          11          12     +37.475
tors          11          12          13          14    +166.826
ENDCONSTRAINT
$end

$rem
JOBTYPE                   OPT
METHOD                    B3LYP
DFT_D                     d3_op
BASIS                     STO-3G
GEOM_OPT_MAX_CYCLES       100
GEOM_OPT_TOL_GRADIENT     300
GEOM_OPT_TOL_DISPLACEMENT 1200
GEOM_OPT_TOL_ENERGY       100
SYMMETRY                  False
THRESH                    12
SCF_CONVERGENCE           8
MAX_SUB_FILE_NUM          128
MEM_STATIC                400
MEM_TOTAL                 4000
$end
--------------------------------------------------------------
 Adding empirical dispersion correction 
 ----------------------------------------------------------------
 Doing -D3(op) with
 s6 =   1.00000
 s8 =   0.78311
 a1 =   0.30000
 a2 =   4.25000
 n  =  10.00000
 -D3 energy without 3body term =     -0.0709358027 hartrees
 ----------------------------------------------------------------
             Standard Nuclear Orientation (Angstroms)
    I     Atom           X                Y                Z
 ----------------------------------------------------------------
    1      O       4.7167980170    -2.7575607927     0.4797413966
    2      C       4.0863108665    -1.7276543557     0.2879474449
    3      C       4.6808610073    -0.4041131662    -0.1402366770
    4      C       3.7687712751     0.5560179649    -0.9213365792
    5      C       2.3126569964     0.1618679237    -1.0330082931
    6      O       1.6403546804     1.0791682838    -1.7893038830
    7      C       0.2932605158     0.6912161855    -2.0793101486
    8      C      -0.3696855048     0.1199248951    -0.8302099716
    9      O      -1.3827234012     1.0218489672    -0.3577919637
   10      C      -1.9864746175     0.6644119001     0.8027447573
   11      C      -3.4513682108     1.0295226284     0.8406368402
   12      C      -4.1949577162     0.8619552707    -0.4925120346
   13      C      -3.4842365745     0.0367423951    -1.5463625559
   14      O      -3.9941218040    -0.3985828883    -2.5686418349
   15      O       2.9122217667    -1.6347092113     0.9779719213
   16      O      -2.8777847972    -1.0215288552    -0.9252622193
   17      O      -1.5056514289    -0.1483259528     1.5844414178
   18      C      -2.7399756718    -2.3185206923    -1.4071324975
   19      C      -4.3271204239     0.1829564341     1.7858329905
   20      C      -5.5797262074     0.9711102494     2.1677779201
   21      C      -6.3425585870     0.9418185650     0.8589291972
   22      C      -5.4143764066     0.0578955745     0.0188469422
   23      O      -4.8500022246    -0.8251944545     0.9595110601
   24      H      -3.4762440061     2.0928962057     1.1682784086
   25      H      -4.5061874170     1.8165329320    -0.9703249998
   26      H      -3.7963964151    -0.1556547896     2.7017448178
   27      H      -6.1368822896     0.3632337980     2.9164221448
   28      H      -5.3916723624     1.9837117671     2.5851112820
   29      H      -7.3141737980     0.4275276396     1.0316453568
   30      H      -6.5147954575     1.9321860443     0.3847204751
   31      H      -5.9843249035    -0.4174582664    -0.8096759408
   32      O       2.0440406411    -1.0247986406    -1.2050276595
   33      C       2.2724490614    -2.6858421096     1.6031969311
   34      C       5.0085510545     0.4749846362     1.0844922459
   35      C       6.0700360014     1.5109202383     0.7173251268
   36      C       5.2591380478     2.4478185449    -0.1524695831
   37      C       3.8723730319     1.8080805077    -0.0314033930
   38      O       3.8603796558     1.2665681868     1.2659949168
   39      H       5.6267955693    -0.6328540309    -0.6810687564
   40      H       4.1456531304     0.7207846470    -1.9560369208
   41      H       2.9219544206    -3.1169100120     2.3946538688
   42      H       5.3396576147    -0.1151621736     1.9675551497
   43      H       6.3453703155     2.0476635590     1.6534727117
   44      H       6.9885488094     1.0990813468     0.2466381416
   45      H       5.2617085341     3.4555567332     0.3196367946
   46      H       5.5915874426     2.5229090139    -1.2104905242
   47      H       3.0837939060     2.5609425976    -0.2511883078
   48      H       2.0129147346    -3.4694199786     0.8594685598
   49      H       1.3376462670    -2.3144313480     2.0709940791
   50      H      -2.1882911166    -2.9264717819    -0.6609995581
   51      H      -2.1726303624    -2.3180548342    -2.3625489345
   52      H      -3.7397813930    -2.7763847287    -1.5644580362
   53      H      -0.6957678922    -0.8949980535    -1.0621560417
   54      H       0.2968942595    -0.0485880893     0.0370203183
   55      H       0.3326436474    -0.1080091848    -2.8546756017
   56      H      -0.2796777026     1.5296123098    -2.5292956802
 ----------------------------------------------------------------
 Molecular Point Group                 C1    NOp =  1
 Largest Abelian Subgroup              C1    NOp =  1
 Nuclear Repulsion Energy =  3248.9112112469 hartrees
 There are      113 alpha and      113 beta electrons
 Requested basis set is STO-3G
 There are 86 shells and 176 basis functions

 Total QAlloc Memory Limit   4000 MB
 Mega-Array Size       392 MB
 MEM_STATIC part       400 MB
 A cutoff of  1.0D-12 yielded   2201 shell pairs
 There are     10370 function pairs
 
 -------------------------------------------------------
 OpenMP Integral Computing Module                       
 Release: version 1.0, May 2013, Q-Chem Inc. Pittsburgh 
 -------------------------------------------------------
 Integral Job Info:
 Integral job number is                      11
 Integral operator is                         1
 short-range coefficients                     0
 long-range coefficients              100000000
 Omega coefficients                           0
 if combine SR and LR in K                    0
 Integral screening is                        0
 Integral computing path is                   2
 max size of driver memory is            800000
 size of driver memory is                 45569
 size of scratch memory is              1046100
 max col of scratch BK array                289
 max len of scratch array in speh3           22
 max len of scratch index in speh4            8
 max int batch size is                      520
 min int batch size is                       52
 fixed nKL is                                52
 max L of basis functions is                  1
 order of int derivative is                   0
 number of shells is                         86
 number of basis is                         176
 number of cartesian basis is               176
 number of contracted shell pairs          2201
 number of primitive shell pairs          11469
 maxK2 (contraction) of shell pair            9
 max number of K2 of shell pair               1
 max number of CS2 of shell pair            330
 max number of PS2 of shell pair           1374
 mem total for path MDJ                   58218
 -------------------------------------------------------
 Smallest overlap matrix eigenvalue = 1.93E-01

 Scale SEOQF with 1.000000e-02/1.000000e-01/1.000000e-01

 Standard Electronic Orientation quadrupole field applied
 Nucleus-field energy     =     0.0000000024 hartrees
 Guess from superposition of atomic densities
 Warning:  Energy on first SCF cycle will be non-variational
 A restricted hybrid HF-DFT SCF calculation will be
 performed using Pulay DIIS extrapolation
 Exchange:     0.2000 Hartree-Fock + 0.0800 Slater + 0.7200 B88
 Correlation:  0.1900 VWN1RPA + 0.8100 LYP
 Using SG-1 standard quadrature grid
 Dispersion:   Grimme D3
 SCF converges when DIIS error is below 1.0E-08
 using 48 threads for integral computing
 -------------------------------------------------------
 OpenMP Integral computing Module                
 Release: version 1.0, May 2013, Q-Chem Inc. Pittsburgh 
 -------------------------------------------------------
 -------------------------------------------------------
 OpenMP BLAS3 based DFT computing Module                
 Release: version 1.0, May 2013, Q-Chem Inc. Pittsburgh 
 -------------------------------------------------------
 ---------------------------------------
  Cycle       Energy         DIIS Error
 ---------------------------------------
    1   -1509.4621080079      8.29E-02
    2   -1509.4986258098      1.05E-02
    3   -1507.2942714023      2.60E-02
    4   -1509.9885460181      3.85E-03
    5   -1510.0463313892      1.45E-03
    6   -1510.0538371858      6.83E-04
    7   -1510.0558567455      1.47E-04
    8   -1510.0559481451      3.77E-05
    9   -1510.0559534215      1.68E-05
   10   -1510.0559545765      5.10E-06
   11   -1510.0559546888      1.25E-06
   12   -1510.0559546953      3.69E-07
   13   -1510.0559546957      2.16E-07
   14   -1510.0559546959      4.45E-08
   15   -1510.0559546959      9.82E-09 Convergence criterion met
 ---------------------------------------
 SCF time:  CPU 111.84 s  wall 2.39 s
 SCF   energy in the final basis set = -1510.05595470
 Total energy in the final basis set = -1510.05595470
 
 --------------------------------------------------------------
 
                    Orbital Energies (a.u.)
 --------------------------------------------------------------
 
 Alpha MOs
 -- Occupied --
-18.944 -18.935 -18.908 -18.907 -18.902 -18.899 -18.867 -18.862
-18.855 -18.843 -10.111 -10.110 -10.107 -10.101 -10.090 -10.075
-10.075 -10.072 -10.069 -10.068 -10.066 -10.065 -10.048 -10.040
-10.039 -10.037 -10.020 -10.017 -10.016 -10.014  -1.055  -1.050
 -1.036  -1.030  -1.026  -1.023  -0.952  -0.946  -0.931  -0.929
 -0.787  -0.782  -0.750  -0.744  -0.734  -0.724  -0.715  -0.675
 -0.666  -0.637  -0.610  -0.595  -0.560  -0.551  -0.541  -0.536
 -0.526  -0.523  -0.504  -0.491  -0.488  -0.477  -0.463  -0.459
 -0.449  -0.446  -0.443  -0.424  -0.420  -0.417  -0.415  -0.412
 -0.405  -0.393  -0.390  -0.381  -0.379  -0.373  -0.364  -0.356
 -0.352  -0.348  -0.346  -0.342  -0.339  -0.330  -0.325  -0.317
 -0.312  -0.308  -0.305  -0.304  -0.301  -0.294  -0.290  -0.277
 -0.273  -0.248  -0.243  -0.237  -0.233  -0.219  -0.211  -0.180
 -0.175  -0.166  -0.161  -0.154  -0.152  -0.146  -0.137  -0.128
 -0.127
 -- Virtual --
  0.072   0.077   0.106   0.116   0.247   0.255   0.261   0.276
  0.291   0.299   0.321   0.327   0.335   0.340   0.346   0.355
  0.370   0.372   0.381   0.386   0.389   0.391   0.394   0.398
  0.401   0.407   0.409   0.412   0.417   0.418   0.420   0.426
  0.436   0.439   0.442   0.444   0.447   0.449   0.460   0.464
  0.465   0.469   0.472   0.479   0.482   0.488   0.492   0.495
  0.503   0.508   0.514   0.519   0.526   0.546   0.548   0.568
  0.568   0.581   0.586   0.657   0.673   0.694   0.696
 --------------------------------------------------------------
 
          Ground-State Mulliken Net Atomic Charges

     Atom                 Charge (a.u.)
  ----------------------------------------
      1 O                    -0.240532
      2 C                     0.240134
      3 C                    -0.080863
      4 C                    -0.077128
      5 C                     0.231744
      6 O                    -0.190144
      7 C                    -0.035974
      8 C                    -0.046513
      9 O                    -0.202042
     10 C                     0.241528
     11 C                    -0.081286
     12 C                    -0.071608
     13 C                     0.225380
     14 O                    -0.231874
     15 O                    -0.212627
     16 O                    -0.220065
     17 O                    -0.224950
     18 C                    -0.098622
     19 C                     0.041028
     20 C                    -0.141929
     21 C                    -0.143392
     22 C                     0.040097
     23 O                    -0.207787
     24 H                     0.082400
     25 H                     0.086929
     26 H                     0.094078
     27 H                     0.075823
     28 H                     0.072884
     29 H                     0.077876
     30 H                     0.073326
     31 H                     0.086905
     32 O                    -0.220168
     33 C                    -0.097426
     34 C                     0.041996
     35 C                    -0.142459
     36 C                    -0.144148
     37 C                     0.037958
     38 O                    -0.210031
     39 H                     0.089957
     40 H                     0.090297
     41 H                     0.082202
     42 H                     0.085396
     43 H                     0.075786
     44 H                     0.073259
     45 H                     0.074138
     46 H                     0.071009
     47 H                     0.085377
     48 H                     0.085055
     49 H                     0.095273
     50 H                     0.095278
     51 H                     0.082220
     52 H                     0.087905
     53 H                     0.103260
     54 H                     0.103196
     55 H                     0.088431
     56 H                     0.103443
  ----------------------------------------
  Sum of atomic charges =    -0.000000

 -----------------------------------------------------------------
                    Cartesian Multipole Moments
 -----------------------------------------------------------------
    Charge (ESU x 10^10)
                -0.0000
    Dipole Moment (Debye)
         X      -0.8809      Y       2.6843      Z      -0.5688
       Tot       2.8819
    Quadrupole Moments (Debye-Ang)
        XX    -150.6785     XY       4.0217     YY    -160.8135
        XZ      -7.7838     YZ       0.3708     ZZ    -161.8287
    Octopole Moments (Debye-Ang^2)
       XXX     -15.5537    XXY      80.7733    XYY     -39.8212
       YYY     -12.1531    XXZ      18.4277    XYZ     -10.6543
       YYZ      -2.4423    XZZ      23.0881    YZZ     -10.6442
       ZZZ       6.1954
    Hexadecapole Moments (Debye-Ang^3)
      XXXX  -14412.8362   XXXY     150.6645   XXYY   -2958.4599
      XYYY      81.8966   YYYY   -1933.1738   XXXZ    -127.2344
      XXYZ      23.9360   XYYZ      42.6898   YYYZ       8.7720
      XXZZ   -2806.0803   XYZZ     -40.4010   YYZZ    -584.5896
      XZZZ     -36.3285   YZZZ     -29.7518   ZZZZ   -1694.8782
 -----------------------------------------------------------------
 Calculating analytic gradient of the SCF energy
 Gradient of SCF Energy
            1           2           3           4           5           6
    1  -0.0549939   0.0012649  -0.0148467  -0.0217080  -0.0388820   0.0001816
    2   0.0647728   0.0202323   0.0066176  -0.0282455   0.0330597  -0.0943810
    3   0.0187398  -0.0327297   0.0301982   0.0132959   0.0482611   0.0067648
            7           8           9          10          11          12
    1   0.0060212  -0.0084835   0.0106308   0.0174809  -0.0003693  -0.0022134
    2   0.0180208   0.0164372  -0.0510695   0.0470166  -0.0717453  -0.0584391
    3   0.0235429  -0.0363756   0.0668102  -0.0116267  -0.0076059   0.0127068
           13          14          15          16          17          18
    1   0.0248786   0.0466924   0.0453670  -0.0731348  -0.0329792   0.0061557
    2   0.0641829  -0.0314042  -0.1175083  -0.0196845   0.0301426   0.0247534
    3  -0.0084017   0.1200812   0.0078908  -0.1358778  -0.0461242   0.0383094
           19          20          21          22          23          24
    1  -0.0384054   0.0150965   0.0399426   0.0423844  -0.0010317   0.0064409
    2  -0.0179608  -0.0205562  -0.0235078   0.0023372   0.0863739   0.0024915
    3  -0.0584214  -0.0459590   0.0114344   0.0591686  -0.0003575   0.0030524
           25          26          27          28          29          30
    1  -0.0020126  -0.0034417  -0.0058290   0.0003416  -0.0051387   0.0009880
    2   0.0024273   0.0104210  -0.0098858   0.0076975  -0.0069698   0.0065083
    3  -0.0070703   0.0097274   0.0010621   0.0031277   0.0098678  -0.0057880
           31          32          33          34          35          36
    1  -0.0079568   0.0303845   0.0040439  -0.0455337  -0.0498042  -0.0145018
    2   0.0091729   0.0738841   0.0524301   0.0428782  -0.0045943  -0.0416796
    3  -0.0040558  -0.0156709  -0.0134615  -0.0339509  -0.0154258   0.0238540
           37          38          39          40          41          42
    1   0.0213307   0.0530987   0.0098228   0.0038087   0.0022793   0.0128254
    2  -0.0524621  -0.0084421   0.0004492  -0.0007999   0.0085645  -0.0025276
    3   0.0464891  -0.0670466   0.0009590  -0.0057408  -0.0025176  -0.0015634
           43          44          45          46          47          48
    1  -0.0043479   0.0071706   0.0023258   0.0003107   0.0049224   0.0021355
    2   0.0074797  -0.0018444   0.0046010  -0.0009677   0.0080833   0.0075932
    3   0.0077639  -0.0036183   0.0116743  -0.0087323  -0.0089565  -0.0046433
           49          50          51          52          53          54
    1  -0.0010980  -0.0003320   0.0014891   0.0005770   0.0210142  -0.0128122
    2  -0.0032850  -0.0042995   0.0087882   0.0048597   0.0079091  -0.0043090
    3   0.0015803  -0.0021093   0.0043493   0.0055716   0.0009265   0.0035082
           55          56
    1   0.0033077  -0.0048574
    2   0.0015333  -0.0051503
    3   0.0004911  -0.0073780
 Max gradient component =       1.359E-01
 RMS gradient           =       3.221E-02
 Gradient time:  CPU 33.41 s  wall 0.72 s
 Geometry Optimization Parameters
   NAtoms,    NIC,     NZ,  NCons,   NDum,   NFix, NCnnct, MaxDiis
       56     458       0       9       0       0       0       0


** CONSTRAINED OPTIMIZATION IN DELOCALIZED INTERNAL COORDINATES **
   Searching for a Minimum

   Optimization Cycle:   1

                       Coordinates (Angstroms)
     ATOM                X               Y               Z
      1  O         4.7167980170   -2.7575607927    0.4797413966
      2  C         4.0863108665   -1.7276543557    0.2879474449
      3  C         4.6808610073   -0.4041131662   -0.1402366770
      4  C         3.7687712751    0.5560179649   -0.9213365792
      5  C         2.3126569964    0.1618679237   -1.0330082931
      6  O         1.6403546804    1.0791682838   -1.7893038830
      7  C         0.2932605158    0.6912161855   -2.0793101486
      8  C        -0.3696855048    0.1199248951   -0.8302099716
      9  O        -1.3827234012    1.0218489672   -0.3577919637
     10  C        -1.9864746175    0.6644119001    0.8027447573
     11  C        -3.4513682108    1.0295226284    0.8406368402
     12  C        -4.1949577162    0.8619552707   -0.4925120346
     13  C        -3.4842365745    0.0367423951   -1.5463625559
     14  O        -3.9941218040   -0.3985828883   -2.5686418349
     15  O         2.9122217667   -1.6347092113    0.9779719213
     16  O        -2.8777847972   -1.0215288552   -0.9252622193
     17  O        -1.5056514289   -0.1483259528    1.5844414178
     18  C        -2.7399756718   -2.3185206923   -1.4071324975
     19  C        -4.3271204239    0.1829564341    1.7858329905
     20  C        -5.5797262074    0.9711102494    2.1677779201
     21  C        -6.3425585870    0.9418185650    0.8589291972
     22  C        -5.4143764066    0.0578955745    0.0188469422
     23  O        -4.8500022246   -0.8251944545    0.9595110601
     24  H        -3.4762440061    2.0928962057    1.1682784086
     25  H        -4.5061874170    1.8165329320   -0.9703249998
     26  H        -3.7963964151   -0.1556547896    2.7017448178
     27  H        -6.1368822896    0.3632337980    2.9164221448
     28  H        -5.3916723624    1.9837117671    2.5851112820
     29  H        -7.3141737980    0.4275276396    1.0316453568
     30  H        -6.5147954575    1.9321860443    0.3847204751
     31  H        -5.9843249035   -0.4174582664   -0.8096759408
     32  O         2.0440406411   -1.0247986406   -1.2050276595
     33  C         2.2724490614   -2.6858421096    1.6031969311
     34  C         5.0085510545    0.4749846362    1.0844922459
     35  C         6.0700360014    1.5109202383    0.7173251268
     36  C         5.2591380478    2.4478185449   -0.1524695831
     37  C         3.8723730319    1.8080805077   -0.0314033930
     38  O         3.8603796558    1.2665681868    1.2659949168
     39  H         5.6267955693   -0.6328540309   -0.6810687564
     40  H         4.1456531304    0.7207846470   -1.9560369208
     41  H         2.9219544206   -3.1169100120    2.3946538688
     42  H         5.3396576147   -0.1151621736    1.9675551497
     43  H         6.3453703155    2.0476635590    1.6534727117
     44  H         6.9885488094    1.0990813468    0.2466381416
     45  H         5.2617085341    3.4555567332    0.3196367946
     46  H         5.5915874426    2.5229090139   -1.2104905242
     47  H         3.0837939060    2.5609425976   -0.2511883078
     48  H         2.0129147346   -3.4694199786    0.8594685598
     49  H         1.3376462670   -2.3144313480    2.0709940791
     50  H        -2.1882911166   -2.9264717819   -0.6609995581
     51  H        -2.1726303624   -2.3180548342   -2.3625489345
     52  H        -3.7397813930   -2.7763847287   -1.5644580362
     53  H        -0.6957678922   -0.8949980535   -1.0621560417
     54  H         0.2968942595   -0.0485880893    0.0370203183
     55  H         0.3326436474   -0.1080091848   -2.8546756017
     56  H        -0.2796777026    1.5296123098   -2.5292956802
   Point Group: c1    Number of degrees of freedom:   162


   Energy is  -1510.055954696

              Constraints and their Current Values
                                        Value     Constraint
   Dihedral:        1   2   3   4      153.140      153.140
   Dihedral:        3   4   5   6     -177.851     -177.851
   Dihedral:        4   5   6   7      172.749      172.749
   Dihedral:        5   6   7   8       43.437       43.438
   Dihedral:        6   7   8   9      110.527      110.527
   Dihedral:        7   8   9  10     -175.859     -175.859
   Dihedral:        8   9  10  11     -144.475     -144.475
   Dihedral:        9  10  11  12       37.475       37.475
   Dihedral:       11  12  13  14      166.826      166.826

 Attempting to Generate Delocalized Internal Coordinates

   Using Lagrange Multiplier Algorithm


169 Hessian modes will be used to form the next step
  Hessian Eigenvalues:
    -0.977753   -0.977753   -0.977753   -0.977753   -0.977753   -0.977753
    -0.977753   -0.977753    0.045000    0.045000    0.045000    0.045000
     0.045567    0.045567    0.046315    0.047776    0.048867    0.048887
     0.053502    0.053883    0.056102    0.060004    0.060052    0.062507
     0.063112    0.067093    0.067132    0.067776    0.068277    0.068877
     0.071919    0.072405    0.074146    0.074790    0.075864    0.076059
     0.076824    0.077190    0.082348    0.082590    0.083687    0.083692
     0.083828    0.084413    0.084506    0.084777    0.085752    0.086353
     0.086886    0.087046    0.088639    0.088760    0.089107    0.089209
     0.089778    0.089830    0.093756    0.093883    0.096619    0.096652
     0.111560    0.111571    0.114461    0.114599    0.115892    0.115983
     0.117222    0.117270    0.118280    0.118737    0.118795    0.124669
     0.124789    0.130556    0.130915    0.131195    0.138904    0.141718
     0.160000    0.160000    0.160000    0.160000    0.160000    0.160000
     0.171268    0.171608    0.172016    0.173559    0.202736    0.212751
     0.217005    0.219808    0.237685    0.238606    0.241274    0.241811
     0.250000    0.250000    0.250000    0.250000    0.250000    0.250000
     0.250000    0.250000    0.258180    0.259129    0.267242    0.267526
     0.278494    0.279535    0.281611    0.284266    0.295294    0.295878
     0.298747    0.308054    0.310698    0.310862    0.313320    0.321565
     0.322078    0.322139    0.322364    0.322448    0.322862    0.323005
     0.323036    0.323345    0.323558    0.323694    0.323966    0.324352
     0.324448    0.324518    0.324672    0.324706    0.324763    0.324866
     0.325058    0.325095    0.325261    0.326681    0.326699    0.329505
     0.347017    0.368997    0.369471    0.384748    0.384804    0.401005
     0.407705    0.472388    0.490562    0.512168    0.517920    0.519472
     0.537350    0.915927    0.928245    0.941950    0.942770    1.022753
     1.022753    1.022753    1.022753    1.022753    1.022753    1.022753
     1.022753

 Minimum Search - Taking P-RFO Step
 Searching for Lamda that Maximizes Along the Constraint modes Only
 Value Taken    Lamda =   0.00771197
 Searching for Lamda that Minimizes Along All other modes
 Value Taken    Lamda =  -0.21500053
 Calculated Step too Large.  Step scaled by  0.476772
 Step Taken.  Stepsize is  0.300000

                             Maximum     Tolerance    Cnvgd?
         Gradient            0.133076       0.000300      NO
         Displacement        0.103921       0.001200      NO
         Energy change     *********       0.000001      NO


 New Cartesian Coordinates Obtained by Inverse Iteration

 Displacement from previous Coordinates is:  2.384351
 Adding empirical dispersion correction 
 ----------------------------------------------------------------
 Doing -D3(op) with
 s6 =   1.00000
 s8 =   0.78311
 a1 =   0.30000
 a2 =   4.25000
 n  =  10.00000
 -D3 energy without 3body term =     -0.0699713662 hartrees
 ----------------------------------------------------------------
             Standard Nuclear Orientation (Angstroms)
    I     Atom           X                Y                Z
 ----------------------------------------------------------------
    1      O       4.9270986813    -2.7816916181     0.4785917053
    2      C       4.2558394038    -1.7521736496     0.3128717021
    3      C       4.8156925990    -0.4102183681    -0.1625232776
    4      C       3.8515582151     0.5537829149    -0.9100623195
    5      C       2.3787381141     0.1248893729    -0.9765572361
    6      O       1.6678551269     1.0625147036    -1.7160858996
    7      C       0.2942865100     0.6863788394    -1.9942204397
    8      C      -0.4235653332     0.0789208226    -0.7696156400
    9      O      -1.4365665252     0.9994834406    -0.2958140364
   10      C      -2.0873550917     0.6030458556     0.8549188780
   11      C      -3.5692482964     1.0033735926     0.8609480390
   12      C      -4.2966376690     0.9043430957    -0.5097481782
   13      C      -3.5985507472     0.0710059153    -1.5917457176
   14      O      -4.1361714226    -0.3100696390    -2.6494644747
   15      O       3.0980616897    -1.6197392288     1.0590235411
   16      O      -3.0016320087    -1.0062221990    -0.9327506500
   17      O      -1.6273203359    -0.2436239934     1.6348022653
   18      C      -2.9175901746    -2.3010963707    -1.4785415419
   19      C      -4.4888130725     0.1357475797     1.7668095859
   20      C      -5.7424861500     0.9555373914     2.1520485655
   21      C      -6.4866424356     0.9904683973     0.8105541597
   22      C      -5.5573166262     0.0976466743    -0.0503275519
   23      O      -5.0254527382    -0.8490527358     0.8816303330
   24      H      -3.5794572529     2.0548266757     1.2212314872
   25      H      -4.5772555388     1.8800620483    -0.9566243542
   26      H      -3.9818252763    -0.2503699820     2.6755368603
   27      H      -6.3287567846     0.3452880842     2.8695917120
   28      H      -5.5350897651     1.9450991290     2.6038218646
   29      H      -7.4734295992     0.5022840175     0.9396526052
   30      H      -6.6206569475     1.9974914976     0.3691001800
   31      H      -6.1156743828    -0.3381232066    -0.9060581654
   32      O       2.0950818593    -1.0794083057    -1.1213792668
   33      C       2.5195793703    -2.7073863249     1.7290393822
   34      C       5.1922357666     0.4842612855     1.0625811176
   35      C       6.2398869383     1.5387670820     0.6352571848
   36      C       5.3730004845     2.4789950583    -0.2122213419
   37      C       3.9808143779     1.8253094946    -0.0218896001
   38      O       4.0278156446     1.2792000935     1.2987396841
   39      H       5.7346102452    -0.6302895761    -0.7444606362
   40      H       4.1815027149     0.7192888961    -1.9573217141
   41      H       3.2151885165    -3.1249571892     2.4904672490
   42      H       5.5609219709    -0.1006301695     1.9318264632
   43      H       6.5581173035     2.0781279782     1.5510223867
   44      H       7.1341167615     1.1296709938     0.1259654445
   45      H       5.3887385824     3.4881649967     0.2463041134
   46      H       5.6565671283     2.5488464098    -1.2806943690
   47      H       3.1737321663     2.5652335029    -0.2067991476
   48      H       2.2381892891    -3.5100012503     1.0121227258
   49      H       1.6020588151    -2.3536676064     2.2420320554
   50      H      -2.3894691162    -2.9522400270    -0.7526084004
   51      H      -2.3533172093    -2.3008495465    -2.4373864624
   52      H      -3.9331808414    -2.7195526545    -1.6543635864
   53      H      -0.7867289676    -0.9207282993    -1.0390634754
   54      H       0.2307404736    -0.1338053329     0.0997924395
   55      H       0.3193627333    -0.0901975559    -2.7937155757
   56      H      -0.2554185958     1.5542785441    -2.4144160505
 ----------------------------------------------------------------
 Molecular Point Group                 C1    NOp =  1
 Largest Abelian Subgroup              C1    NOp =  1
 Nuclear Repulsion Energy =  3192.5283133461 hartrees
 There are      113 alpha and      113 beta electrons
 Applying Cartesian multipole field
    Component          Value
    ---------          -----
     (2,0,0)        1.00000E-12
     (0,2,0)        2.00000E-11
     (0,0,2)       -3.00000E-11
 Nucleus-field energy     =     0.0000000033 hartrees
 Requested basis set is STO-3G
 There are 86 shells and 176 basis functions
 A cutoff of  1.0D-12 yielded   2163 shell pairs
 There are     10182 function pairs
 Smallest overlap matrix eigenvalue = 2.01E-01
 Guess MOs from SCF MO coefficient file
 Reading MOs from coefficient file
 Reading MOs from coefficient file
 A restricted hybrid HF-DFT SCF calculation will be
 performed using Pulay DIIS extrapolation
 Exchange:     0.2000 Hartree-Fock + 0.0800 Slater + 0.7200 B88
 Correlation:  0.1900 VWN1RPA + 0.8100 LYP
 Using SG-1 standard quadrature grid
 Dispersion:   Grimme D3
 SCF converges when DIIS error is below 1.0E-08
 Geometry optimization detected.  Setting ReadMinima to 0
 Setting SaveMinima to 0
 using 48 threads for integral computing
 -------------------------------------------------------
 OpenMP Integral computing Module                
 Release: version 1.0, May 2013, Q-Chem Inc. Pittsburgh 
 -------------------------------------------------------
 -------------------------------------------------------
 OpenMP BLAS3 based DFT computing Module                
 Release: version 1.0, May 2013, Q-Chem Inc. Pittsburgh 
 -------------------------------------------------------
 ---------------------------------------
  Cycle       Energy         DIIS Error
 ---------------------------------------
    1   -1509.9544797442      3.79E-03
    2   -1510.1321084355      9.83E-04
    3   -1510.1222248322      1.82E-03
    4   -1510.1360787568      3.11E-04
    5   -1510.1365254505      7.09E-05
    6   -1510.1365422655      4.07E-05
    7   -1510.1365490705      1.42E-05
    8   -1510.1365500094      2.67E-06
    9   -1510.1365500487      8.82E-07
   10   -1510.1365500523      4.52E-07
   11   -1510.1365500531      2.87E-07
   12   -1510.1365500535      4.48E-08
   13   -1510.1365500535      2.62E-08
   14   -1510.1365500536      1.23E-08
   15   -1510.1365500537      1.94E-09 Convergence criterion met
 ---------------------------------------
 SCF time:  CPU 108.35 s  wall 2.26 s
 SCF   energy in the final basis set = -1510.13655005
 Total energy in the final basis set = -1510.13655005
 
 --------------------------------------------------------------
 
                    Orbital Energies (a.u.)
 --------------------------------------------------------------
 
 Alpha MOs
 -- Occupied --
-18.940 -18.930 -18.915 -18.914 -18.901 -18.897 -18.868 -18.864
-18.861 -18.846 -10.105 -10.105 -10.100 -10.096 -10.086 -10.074
-10.072 -10.070 -10.067 -10.065 -10.064 -10.063 -10.048 -10.040
-10.038 -10.038 -10.021 -10.018 -10.016 -10.015  -1.038  -1.035
 -1.022  -1.018  -1.008  -1.006  -0.943  -0.938  -0.929  -0.925
 -0.779  -0.774  -0.742  -0.736  -0.727  -0.718  -0.709  -0.669
 -0.662  -0.631  -0.606  -0.591  -0.555  -0.548  -0.539  -0.535
 -0.521  -0.519  -0.499  -0.486  -0.482  -0.471  -0.455  -0.452
 -0.443  -0.441  -0.437  -0.418  -0.416  -0.412  -0.411  -0.408
 -0.401  -0.388  -0.385  -0.375  -0.373  -0.367  -0.360  -0.352
 -0.349  -0.345  -0.344  -0.341  -0.334  -0.329  -0.327  -0.314
 -0.310  -0.308  -0.304  -0.301  -0.297  -0.291  -0.287  -0.273
 -0.270  -0.246  -0.243  -0.236  -0.234  -0.224  -0.218  -0.178
 -0.173  -0.169  -0.161  -0.152  -0.152  -0.146  -0.138  -0.136
 -0.131
 -- Virtual --
  0.065   0.075   0.100   0.109   0.239   0.251   0.256   0.268
  0.285   0.291   0.310   0.315   0.325   0.336   0.343   0.352
  0.359   0.362   0.372   0.377   0.378   0.380   0.383   0.390
  0.394   0.400   0.402   0.404   0.408   0.409   0.414   0.420
  0.424   0.427   0.433   0.436   0.440   0.445   0.453   0.453
  0.459   0.461   0.463   0.467   0.469   0.476   0.483   0.486
  0.488   0.492   0.498   0.503   0.512   0.529   0.530   0.555
  0.559   0.562   0.565   0.634   0.636   0.667   0.670
 --------------------------------------------------------------
 
          Ground-State Mulliken Net Atomic Charges

     Atom                 Charge (a.u.)
  ----------------------------------------
      1 O                    -0.232383
      2 C                     0.228223
      3 C                    -0.079983
      4 C                    -0.075710
      5 C                     0.220949
      6 O                    -0.184933
      7 C                    -0.039244
      8 C                    -0.046453
      9 O                    -0.197302
     10 C                     0.231707
     11 C                    -0.078735
     12 C                    -0.070563
     13 C                     0.211917
     14 O                    -0.221595
     15 O                    -0.199675
     16 O                    -0.205437
     17 O                    -0.219030
     18 C                    -0.106135
     19 C                     0.036454
     20 C                    -0.142736
     21 C                    -0.144202
     22 C                     0.035548
     23 O                    -0.199833
     24 H                     0.081958
     25 H                     0.086289
     26 H                     0.093825
     27 H                     0.076252
     28 H                     0.073612
     29 H                     0.077979
     30 H                     0.073907
     31 H                     0.086595
     32 O                    -0.214015
     33 C                    -0.103961
     34 C                     0.037619
     35 C                    -0.143236
     36 C                    -0.144787
     37 C                     0.033832
     38 O                    -0.201701
     39 H                     0.088673
     40 H                     0.089704
     41 H                     0.082695
     42 H                     0.084836
     43 H                     0.075995
     44 H                     0.073743
     45 H                     0.074858
     46 H                     0.071909
     47 H                     0.085911
     48 H                     0.085891
     49 H                     0.094404
     50 H                     0.095196
     51 H                     0.082656
     52 H                     0.087859
     53 H                     0.100018
     54 H                     0.101070
     55 H                     0.087179
     56 H                     0.102385
  ----------------------------------------
  Sum of atomic charges =     0.000000

 -----------------------------------------------------------------
                    Cartesian Multipole Moments
 -----------------------------------------------------------------
    Charge (ESU x 10^10)
                 0.0000
    Dipole Moment (Debye)
         X      -0.9351      Y       2.5519      Z      -0.5466
       Tot       2.7723
    Quadrupole Moments (Debye-Ang)
        XX    -150.4168     XY       4.0853     YY    -160.4029
        XZ      -7.8286     YZ       0.4033     ZZ    -161.6169
    Octopole Moments (Debye-Ang^2)
       XXX     -19.3525    XXY      85.9559    XYY     -39.2537
       YYY     -11.1904    XXZ      18.0530    XYZ     -14.8823
       YYZ      -2.9129    XZZ      23.3958    YZZ     -12.3787
       ZZZ       5.4114
    Hexadecapole Moments (Debye-Ang^3)
      XXXX  -15364.6090   XXXY     186.7739   XXYY   -3126.8064
      XYYY     102.1221   YYYY   -1946.4701   XXXZ    -176.3093
      XXYZ      31.2663   XYYZ      33.8501   YYYZ      19.8588
      XXZZ   -2970.5684   XYZZ     -34.3023   YYZZ    -585.2200
      XZZZ     -84.1705   YZZZ     -12.1785   ZZZZ   -1709.6072
 -----------------------------------------------------------------
 Calculating analytic gradient of the SCF energy
 Gradient of SCF Energy
            1           2           3           4           5           6
    1  -0.0260303  -0.0106162  -0.0053698  -0.0121571  -0.0234025   0.0027357
    2   0.0330518   0.0249017   0.0013219  -0.0204344   0.0418263  -0.0691966
    3   0.0192416  -0.0340975   0.0200490   0.0038180   0.0541975  -0.0048810
            7           8           9          10          11          12
    1  -0.0003212  -0.0123729   0.0108404   0.0123282  -0.0065135  -0.0052525
    2   0.0201411   0.0113884  -0.0407943   0.0515001  -0.0565972  -0.0409259
    3   0.0153062  -0.0310652   0.0467205  -0.0064885  -0.0044306   0.0063345
           13          14          15          16          17          18
    1   0.0375014   0.0127571   0.0321416  -0.0499138  -0.0185258   0.0054393
    2   0.0696989  -0.0340177  -0.0859752  -0.0228123   0.0123175   0.0215438
    3   0.0050930   0.0612950   0.0081032  -0.0914533  -0.0265112   0.0337938
           19          20          21          22          23          24
    1  -0.0241701   0.0110087   0.0233748   0.0298737   0.0010563   0.0061602
    2  -0.0140170  -0.0103885  -0.0146175  -0.0038971   0.0561784   0.0013728
    3  -0.0406544  -0.0284848   0.0057085   0.0397194   0.0021258   0.0024534
           25          26          27          28          29          30
    1  -0.0016039  -0.0031183  -0.0038916  -0.0005085  -0.0030514   0.0005372
    2   0.0008400   0.0099590  -0.0072051   0.0045807  -0.0051502   0.0039255
    3  -0.0064056   0.0084599  -0.0004128   0.0030374   0.0074495  -0.0042032
           31          32          33          34          35          36
    1  -0.0064917   0.0203437   0.0009159  -0.0354871  -0.0302059  -0.0084805
    2   0.0089455   0.0358738   0.0427632   0.0276267  -0.0046594  -0.0246359
    3  -0.0032871  -0.0192521  -0.0110733  -0.0181490  -0.0088136   0.0133189
           37          38          39          40          41          42
    1   0.0130835   0.0327185   0.0070014   0.0019737   0.0015426   0.0114183
    2  -0.0347791  -0.0051823   0.0003373  -0.0013576   0.0049823  -0.0021206
    3   0.0338429  -0.0455397   0.0018001  -0.0036887  -0.0005858  -0.0028643
           43          44          45          46          47          48
    1  -0.0038450   0.0051182   0.0023390  -0.0006007   0.0047158   0.0005005
    2   0.0051514  -0.0005907   0.0024430  -0.0001194   0.0066823   0.0039893
    3   0.0053187  -0.0017414   0.0085712  -0.0056330  -0.0086686  -0.0035725
           49          50          51          52          53          54
    1  -0.0014376  -0.0001425   0.0018195  -0.0003398   0.0174984  -0.0118676
    2  -0.0029689  -0.0039350   0.0053753   0.0022126   0.0031679  -0.0039166
    3   0.0018271  -0.0016389   0.0021220   0.0038414   0.0026936   0.0033583
           55          56
    1   0.0027497  -0.0037759
    2   0.0004764  -0.0042803
    3   0.0003281  -0.0063326
 Max gradient component =       9.145E-02
 RMS gradient           =       2.297E-02
 Gradient time:  CPU 32.94 s  wall 0.70 s
 Geometry Optimization Parameters
   NAtoms,    NIC,     NZ,  NCons,   NDum,   NFix, NCnnct, MaxDiis
       56     458       0       9       0       0       0       0

 Cartesian Hessian Update
 Hessian Updated using BFGS Update


** CONSTRAINED OPTIMIZATION IN DELOCALIZED INTERNAL COORDINATES **
   Searching for a Minimum

   Optimization Cycle:   2

                       Coordinates (Angstroms)
     ATOM                X               Y               Z
      1  O         4.9270986813   -2.7816916181    0.4785917053
      2  C         4.2558394038   -1.7521736496    0.3128717021
      3  C         4.8156925990   -0.4102183681   -0.1625232776
      4  C         3.8515582151    0.5537829149   -0.9100623195
      5  C         2.3787381141    0.1248893729   -0.9765572361
      6  O         1.6678551269    1.0625147036   -1.7160858996
      7  C         0.2942865100    0.6863788394   -1.9942204397
      8  C        -0.4235653332    0.0789208226   -0.7696156400
      9  O        -1.4365665252    0.9994834406   -0.2958140364
     10  C        -2.0873550917    0.6030458556    0.8549188780
     11  C        -3.5692482964    1.0033735926    0.8609480390
     12  C        -4.2966376690    0.9043430957   -0.5097481782
     13  C        -3.5985507472    0.0710059153   -1.5917457176
     14  O        -4.1361714226   -0.3100696390   -2.6494644747
     15  O         3.0980616897   -1.6197392288    1.0590235411
     16  O        -3.0016320087   -1.0062221990   -0.9327506500
     17  O        -1.6273203359   -0.2436239934    1.6348022653
     18  C        -2.9175901746   -2.3010963707   -1.4785415419
     19  C        -4.4888130725    0.1357475797    1.7668095859
     20  C        -5.7424861500    0.9555373914    2.1520485655
     21  C        -6.4866424356    0.9904683973    0.8105541597
     22  C        -5.5573166262    0.0976466743   -0.0503275519
     23  O        -5.0254527382   -0.8490527358    0.8816303330
     24  H        -3.5794572529    2.0548266757    1.2212314872
     25  H        -4.5772555388    1.8800620483   -0.9566243542
     26  H        -3.9818252763   -0.2503699820    2.6755368603
     27  H        -6.3287567846    0.3452880842    2.8695917120
     28  H        -5.5350897651    1.9450991290    2.6038218646
     29  H        -7.4734295992    0.5022840175    0.9396526052
     30  H        -6.6206569475    1.9974914976    0.3691001800
     31  H        -6.1156743828   -0.3381232066   -0.9060581654
     32  O         2.0950818593   -1.0794083057   -1.1213792668
     33  C         2.5195793703   -2.7073863249    1.7290393822
     34  C         5.1922357666    0.4842612855    1.0625811176
     35  C         6.2398869383    1.5387670820    0.6352571848
     36  C         5.3730004845    2.4789950583   -0.2122213419
     37  C         3.9808143779    1.8253094946   -0.0218896001
     38  O         4.0278156446    1.2792000935    1.2987396841
     39  H         5.7346102452   -0.6302895761   -0.7444606362
     40  H         4.1815027149    0.7192888961   -1.9573217141
     41  H         3.2151885165   -3.1249571892    2.4904672490
     42  H         5.5609219709   -0.1006301695    1.9318264632
     43  H         6.5581173035    2.0781279782    1.5510223867
     44  H         7.1341167615    1.1296709938    0.1259654445
     45  H         5.3887385824    3.4881649967    0.2463041134
     46  H         5.6565671283    2.5488464098   -1.2806943690
     47  H         3.1737321663    2.5652335029   -0.2067991476
     48  H         2.2381892891   -3.5100012503    1.0121227258
     49  H         1.6020588151   -2.3536676064    2.2420320554
     50  H        -2.3894691162   -2.9522400270   -0.7526084004
     51  H        -2.3533172093   -2.3008495465   -2.4373864624
     52  H        -3.9331808414   -2.7195526545   -1.6543635864
     53  H        -0.7867289676   -0.9207282993   -1.0390634754
     54  H         0.2307404736   -0.1338053329    0.0997924395
     55  H         0.3193627333   -0.0901975559   -2.7937155757
     56  H        -0.2554185958    1.5542785441   -2.4144160505
   Point Group: c1    Number of degrees of freedom:   162


   Energy is  -1510.136550054

              Constraints and their Current Values
                                        Value     Constraint
   Dihedral:        1   2   3   4      153.221      153.140
   Dihedral:        3   4   5   6     -177.758     -177.851
   Dihedral:        4   5   6   7      172.692      172.749
   Dihedral:        5   6   7   8       43.370       43.438
   Dihedral:        6   7   8   9      110.514      110.527
   Dihedral:        7   8   9  10     -175.859     -175.859
   Dihedral:        8   9  10  11     -144.355     -144.475
   Dihedral:        9  10  11  12       37.421       37.475
   Dihedral:       11  12  13  14      166.628      166.826
 Hessian Updated using BFGS Update

   Using Lagrange Multiplier Algorithm


157 Hessian modes will be used to form the next step
  Hessian Eigenvalues:
    -0.977753   -0.977753   -0.977753   -0.977753   -0.977753   -0.977753
    -0.977753   -0.974107    0.044961    0.045000    0.045559    0.045583
     0.046334    0.047752    0.048878    0.048890    0.053418    0.053886
     0.056228    0.059960    0.060028    0.062535    0.063127    0.067091
     0.067157    0.067778    0.068278    0.068789    0.071838    0.072739
     0.074168    0.074963    0.075881    0.076053    0.076816    0.077183
     0.082350    0.082584    0.083618    0.083701    0.083822    0.084447
     0.084506    0.084850    0.085734    0.086385    0.086909    0.087028
     0.088563    0.088771    0.089123    0.089210    0.089779    0.089836
     0.093767    0.093892    0.096619    0.096653    0.111568    0.111603
     0.114465    0.114608    0.115894    0.115983    0.117263    0.117276
     0.118268    0.118647    0.118790    0.124289    0.124798    0.130344
     0.131026    0.131225    0.138919    0.142121    0.159752    0.160763
     0.171299    0.171579    0.171889    0.173633    0.201862    0.213717
     0.216854    0.222261    0.227456    0.237784    0.239212    0.241275
     0.241948    0.256846    0.258708    0.265453    0.267315    0.267879
     0.278827    0.280601    0.282626    0.287734    0.295550    0.296893
     0.302261    0.308197    0.310685    0.312055    0.321252    0.321592
     0.322106    0.322267    0.322408    0.322760    0.322876    0.323021
     0.323330    0.323544    0.323657    0.323835    0.324059    0.324394
     0.324498    0.324534    0.324669    0.324698    0.324819    0.324978
     0.325081    0.325258    0.326630    0.326690    0.329463    0.332186
     0.347192    0.369089    0.369464    0.384772    0.395073    0.400876
     0.426670    0.464356    0.486350    0.515215    0.518800    0.531723
     0.542348    0.918714    0.928675    0.941567    0.988448    1.022753
     1.022753    1.022753    1.022753    1.022753    1.022753    1.022753
     1.074669

 Minimum Search - Taking P-RFO Step
 Searching for Lamda that Maximizes Along the Constraint modes Only
 Value Taken    Lamda =   0.00031817
 Searching for Lamda that Minimizes Along All other modes
 Value Taken    Lamda =  -0.11018462
 Calculated Step too Large.  Step scaled by  0.519882
 Step Taken.  Stepsize is  0.300000

                             Maximum     Tolerance    Cnvgd?
         Gradient            0.078964       0.000300      NO
         Displacement        0.090586       0.001200      NO
         Energy change     -0.080595       0.000001      NO


 New Cartesian Coordinates Obtained by Inverse Iteration

 Displacement from previous Coordinates is:  1.108975
 Adding empirical dispersion correction 
 ----------------------------------------------------------------
 Doing -D3(op) with
 s6 =   1.00000
 s8 =   0.78311
 a1 =   0.30000
 a2 =   4.25000
 n  =  10.00000
 -D3 energy without 3body term =     -0.0694514377 hartrees
 ----------------------------------------------------------------
             Standard Nuclear Orientation (Angstroms)
    I     Atom           X                Y                Z
 ----------------------------------------------------------------
    1      O       4.9211939028    -2.8069399450     0.5427136480
    2      C       4.2604702644    -1.7613070426     0.3722282602
    3      C       4.8324511545    -0.4269294717    -0.1551462705
    4      C       3.8643943735     0.5507720810    -0.9021985505
    5      C       2.3746215822     0.1180822287    -0.9605681657
    6      O       1.6746025113     1.0843060348    -1.7062960974
    7      C       0.2916315306     0.6980773304    -1.9731924315
    8      C      -0.4377758809     0.0848017593    -0.7460166113
    9      O      -1.4581273158     1.0205931517    -0.2847334871
   10      C      -2.1100995561     0.5939587604     0.8795953653
   11      C      -3.6099196782     0.9935028422     0.8784229169
   12      C      -4.3383234083     0.9100021157    -0.5046110768
   13      C      -3.6468881416     0.0594178813    -1.6034533957
   14      O      -4.1846382400    -0.3113910472    -2.6741312675
   15      O       3.1048762488    -1.5558133652     1.1345009483
   16      O      -2.9910747723    -1.0066207978    -0.9443240764
   17      O      -1.6280287113    -0.2457308712     1.6658239185
   18      C      -2.9229239226    -2.2691021107    -1.6134110855
   19      C      -4.5291332980     0.1062192673     1.7828519440
   20      C      -5.7926779535     0.9333893405     2.1749939606
   21      C      -6.5419893634     0.9815726031     0.8199701504
   22      C      -5.6096093315     0.0839680569    -0.0558393949
   23      O      -5.0710732268    -0.8875819440     0.8764094286
   24      H      -3.6277192467     2.0416285188     1.2442362364
   25      H      -4.6216952949     1.8887893072    -0.9371183321
   26      H      -4.0157088489    -0.2960259356     2.6794214994
   27      H      -6.3797935397     0.3269266796     2.8897794248
   28      H      -5.5794020320     1.9167293963     2.6300553140
   29      H      -7.5301917890     0.5009289804     0.9364023654
   30      H      -6.6692719556     1.9911037565     0.3901108971
   31      H      -6.1583582139    -0.3512764700    -0.9159890172
   32      O       2.0389808094    -1.0863112599    -1.0561576474
   33      C       2.5705331590    -2.6844204721     1.8247600665
   34      C       5.2498846455     0.4865221538     1.0630104874
   35      C       6.3152300233     1.5217038407     0.5858872613
   36      C       5.4391404870     2.4705945299    -0.2693086156
   37      C       4.0261397137     1.8457812725    -0.0340642793
   38      O       4.0874892563     1.3155046976     1.3149017916
   39      H       5.7324075170    -0.6692511201    -0.7525479236
   40      H       4.1789444047     0.6954959428    -1.9550861896
   41      H       3.2944874586    -3.0922504530     2.5644907848
   42      H       5.6148500057    -0.0898606898     1.9372905174
   43      H       6.6701077313     2.0696243419     1.4786246815
   44      H       7.1843749796     1.0828438070     0.0646335018
   45      H       5.4823831868     3.4884721102     0.1589086170
   46      H       5.7012081604     2.5094568123    -1.3416459879
   47      H       3.2213709474     2.5878778874    -0.2109915993
   48      H       2.2863539868    -3.4951801401     1.1189178968
   49      H       1.6624679631    -2.3461033667     2.3616007615
   50      H      -2.3711441895    -2.9656291379    -0.9520022659
   51      H      -2.3898246379    -2.1982174812    -2.5870052851
   52      H      -3.9406205584    -2.6793506302    -1.7952627958
   53      H      -0.8300863998    -0.9100486014    -1.0159335652
   54      H       0.2377241745    -0.1292405784     0.1104108035
   55      H       0.3060999148    -0.0743620058    -2.7769566297
   56      H      -0.2525380094     1.5765370040    -2.3771367832
 ----------------------------------------------------------------
 Molecular Point Group                 C1    NOp =  1
 Largest Abelian Subgroup              C1    NOp =  1
 Nuclear Repulsion Energy =  3169.0374030196 hartrees
 There are      113 alpha and      113 beta electrons
 Applying Cartesian multipole field
    Component          Value
    ---------          -----
     (2,0,0)        1.00000E-12
     (0,2,0)        2.00000E-11
     (0,0,2)       -3.00000E-11
 Nucleus-field energy     =     0.0000000023 hartrees
 Requested basis set is STO-3G
 There are 86 shells and 176 basis functions
 A cutoff of  1.0D-12 yielded   2137 shell pairs
 There are     10078 function pairs
 Smallest overlap matrix eigenvalue = 2.06E-01
 Guess MOs from SCF MO coefficient file
 Reading MOs from coefficient file
 Reading MOs from coefficient file
 A restricted hybrid HF-DFT SCF calculation will be
 performed using Pulay DIIS extrapolation
 Exchange:     0.2000 Hartree-Fock + 0.0800 Slater + 0.7200 B88
 Correlation:  0.1900 VWN1RPA + 0.8100 LYP
 Using SG-1 standard quadrature grid
 Dispersion:   Grimme D3
 SCF converges when DIIS error is below 1.0E-08
 Geometry optimization detected.  Setting ReadMinima to 0
 Setting SaveMinima to 0
 using 48 threads for integral computing
 -------------------------------------------------------
 OpenMP Integral computing Module                
 Release: version 1.0, May 2013, Q-Chem Inc. Pittsburgh 
 -------------------------------------------------------
 -------------------------------------------------------
 OpenMP BLAS3 based DFT computing Module                
 Release: version 1.0, May 2013, Q-Chem Inc. Pittsburgh 
 -------------------------------------------------------
 ---------------------------------------
  Cycle       Energy         DIIS Error
 ---------------------------------------
    1   -1510.0476550328      2.83E-03
    2   -1510.1814685336      7.60E-04
    3   -1510.1758290217      1.38E-03
    4   -1510.1838499239      2.57E-04
    5   -1510.1841432473      5.92E-05
    6   -1510.1841547041      3.41E-05
    7   -1510.1841594161      1.21E-05
    8   -1510.1841601041      2.15E-06
    9   -1510.1841601305      7.33E-07
   10   -1510.1841601325      4.83E-07
   11   -1510.1841601335      1.72E-07
   12   -1510.1841601337      3.99E-08
   13   -1510.1841601337      2.59E-08
   14   -1510.1841601338      1.23E-08
   15   -1510.1841601339      1.78E-09 Convergence criterion met
 ---------------------------------------
 SCF time:  CPU 108.60 s  wall 2.27 s
 SCF   energy in the final basis set = -1510.18416013
 Total energy in the final basis set = -1510.18416013
 
 --------------------------------------------------------------
 
                    Orbital Energies (a.u.)
 --------------------------------------------------------------
 
 Alpha MOs
 -- Occupied --
-18.938 -18.926 -18.921 -18.919 -18.899 -18.896 -18.870 -18.867
-18.864 -18.851 -10.102 -10.102 -10.097 -10.093 -10.082 -10.069
-10.068 -10.067 -10.065 -10.063 -10.062 -10.060 -10.047 -10.040
-10.038 -10.037 -10.021 -10.019 -10.017 -10.016  -1.029  -1.026
 -1.014  -1.012  -0.995  -0.992  -0.939  -0.934  -0.927  -0.923
 -0.774  -0.769  -0.736  -0.731  -0.721  -0.713  -0.703  -0.665
 -0.657  -0.625  -0.603  -0.588  -0.552  -0.547  -0.539  -0.535
 -0.518  -0.516  -0.494  -0.481  -0.476  -0.466  -0.450  -0.448
 -0.440  -0.438  -0.434  -0.415  -0.414  -0.408  -0.408  -0.404
 -0.399  -0.383  -0.381  -0.369  -0.367  -0.363  -0.356  -0.348
 -0.346  -0.343  -0.342  -0.341  -0.332  -0.328  -0.326  -0.314
 -0.310  -0.307  -0.304  -0.299  -0.295  -0.290  -0.286  -0.271
 -0.269  -0.248  -0.244  -0.236  -0.235  -0.233  -0.227  -0.178
 -0.173  -0.169  -0.163  -0.152  -0.151  -0.148  -0.141  -0.139
 -0.135
 -- Virtual --
  0.067   0.076   0.098   0.105   0.238   0.249   0.253   0.264
  0.280   0.286   0.300   0.305   0.316   0.330   0.339   0.345
  0.351   0.355   0.361   0.366   0.367   0.373   0.377   0.387
  0.388   0.391   0.397   0.397   0.400   0.407   0.410   0.412
  0.416   0.423   0.427   0.434   0.439   0.442   0.446   0.446
  0.450   0.453   0.455   0.459   0.460   0.467   0.471   0.474
  0.480   0.483   0.490   0.493   0.507   0.520   0.522   0.548
  0.551   0.554   0.556   0.623   0.626   0.653   0.657
 --------------------------------------------------------------
 
          Ground-State Mulliken Net Atomic Charges

     Atom                 Charge (a.u.)
  ----------------------------------------
      1 O                    -0.226833
      2 C                     0.219657
      3 C                    -0.080116
      4 C                    -0.075372
      5 C                     0.215594
      6 O                    -0.180229
      7 C                    -0.042967
      8 C                    -0.047405
      9 O                    -0.192900
     10 C                     0.224665
     11 C                    -0.078221
     12 C                    -0.070587
     13 C                     0.205454
     14 O                    -0.218241
     15 O                    -0.186482
     16 O                    -0.192260
     17 O                    -0.213816
     18 C                    -0.113792
     19 C                     0.032274
     20 C                    -0.143366
     21 C                    -0.144939
     22 C                     0.031528
     23 O                    -0.193459
     24 H                     0.082070
     25 H                     0.086587
     26 H                     0.093549
     27 H                     0.076766
     28 H                     0.074162
     29 H                     0.078219
     30 H                     0.074299
     31 H                     0.086296
     32 O                    -0.210553
     33 C                    -0.112059
     34 C                     0.033518
     35 C                    -0.143882
     36 C                    -0.145180
     37 C                     0.030178
     38 O                    -0.194599
     39 H                     0.087204
     40 H                     0.089140
     41 H                     0.083850
     42 H                     0.084336
     43 H                     0.076401
     44 H                     0.074299
     45 H                     0.075744
     46 H                     0.072785
     47 H                     0.086530
     48 H                     0.086841
     49 H                     0.093839
     50 H                     0.093822
     51 H                     0.084158
     52 H                     0.088640
     53 H                     0.099166
     54 H                     0.099713
     55 H                     0.085704
     56 H                     0.100272
  ----------------------------------------
  Sum of atomic charges =     0.000000

 -----------------------------------------------------------------
                    Cartesian Multipole Moments
 -----------------------------------------------------------------
    Charge (ESU x 10^10)
                 0.0000
    Dipole Moment (Debye)
         X      -0.8445      Y       2.4605      Z      -0.6366
       Tot       2.6782
    Quadrupole Moments (Debye-Ang)
        XX    -149.0185     XY       3.3763     YY    -160.4100
        XZ      -7.9841     YZ       0.6245     ZZ    -161.2279
    Octopole Moments (Debye-Ang^2)
       XXX     -13.7421    XXY      85.4919    XYY     -36.8852
       YYY     -10.5518    XXZ      15.7190    XYZ     -16.2562
       YYZ      -4.8129    XZZ      22.8956    YZZ     -14.0937
       ZZZ       2.3088
    Hexadecapole Moments (Debye-Ang^3)
      XXXX  -15566.5409   XXXY     157.6919   XXYY   -3160.8978
      XYYY      90.2897   YYYY   -1936.0008   XXXZ    -196.7335
      XXYZ      38.7034   XYYZ      27.6082   YYYZ      29.9613
      XXZZ   -3018.4962   XYZZ     -38.7676   YYZZ    -589.7830
      XZZZ     -99.1534   YZZZ      -1.6588   ZZZZ   -1753.5130
 -----------------------------------------------------------------
 Calculating analytic gradient of the SCF energy
 Gradient of SCF Energy
            1           2           3           4           5           6
    1  -0.0108541  -0.0143458  -0.0009414  -0.0059547  -0.0200512   0.0021314
    2   0.0177895   0.0169859  -0.0005753  -0.0114119   0.0392280  -0.0481527
    3   0.0176151  -0.0313164   0.0107427  -0.0015034   0.0539756  -0.0110576
            7           8           9          10          11          12
    1   0.0008270  -0.0130189   0.0104094   0.0084399  -0.0091462  -0.0048688
    2   0.0177090   0.0067027  -0.0278059   0.0478207  -0.0447189  -0.0222010
    3   0.0125113  -0.0257699   0.0300052  -0.0016199  -0.0031134   0.0052657
           13          14          15          16          17          18
    1   0.0369902   0.0037804   0.0218255  -0.0350829  -0.0101959   0.0040442
    2   0.0626158  -0.0335768  -0.0550476  -0.0158171   0.0013352   0.0146143
    3   0.0021500   0.0378145   0.0065940  -0.0611163  -0.0145435   0.0240864
           19          20          21          22          23          24
    1  -0.0138438   0.0076191   0.0123077   0.0202282   0.0003318   0.0053634
    2  -0.0116170  -0.0034153  -0.0070096  -0.0061213   0.0321619   0.0008891
    3  -0.0257839  -0.0162420   0.0018614   0.0249399   0.0019346   0.0015651
           25          26          27          28          29          30
    1  -0.0017792  -0.0026534  -0.0021248  -0.0010789  -0.0010442   0.0000525
    2  -0.0000971   0.0089554  -0.0050703   0.0021064  -0.0035713   0.0017388
    3  -0.0047858   0.0069008  -0.0013007   0.0026355   0.0055157  -0.0029406
           31          32          33          34          35          36
    1  -0.0049416   0.0118267   0.0009412  -0.0251826  -0.0160752  -0.0047940
    2   0.0080007   0.0140335   0.0293330   0.0168237  -0.0039215  -0.0132067
    3  -0.0024304  -0.0186994  -0.0086827  -0.0083985  -0.0060409   0.0060686
           37          38          39          40          41          42
    1   0.0067177   0.0180423   0.0047902   0.0005183   0.0008066   0.0095102
    2  -0.0208833  -0.0034597   0.0003518  -0.0019670   0.0024433  -0.0018954
    3   0.0236357  -0.0266494   0.0022158  -0.0022958   0.0003866  -0.0034359
           43          44          45          46          47          48
    1  -0.0035567   0.0035343   0.0019284  -0.0010618   0.0043556  -0.0002351
    2   0.0033720   0.0002734   0.0006795   0.0003353   0.0047783   0.0016257
    3   0.0031460  -0.0000969   0.0060296  -0.0030717  -0.0078989  -0.0021001
           49          50          51          52          53          54
    1  -0.0009594  -0.0001017   0.0014259  -0.0006436   0.0126876  -0.0059750
    2  -0.0021368  -0.0028255   0.0024967   0.0003327  -0.0011492  -0.0042627
    3   0.0013252  -0.0015207   0.0006890   0.0023773   0.0017303   0.0033081
           55          56
    1   0.0017938  -0.0027184
    2  -0.0003719  -0.0032436
    3   0.0004185  -0.0050299
 Max gradient component =       6.262E-02
 RMS gradient           =       1.648E-02
 Gradient time:  CPU 32.37 s  wall 0.69 s
 Geometry Optimization Parameters
   NAtoms,    NIC,     NZ,  NCons,   NDum,   NFix, NCnnct, MaxDiis
       56     458       0       9       0       0       0       0

 Cartesian Hessian Update
 Hessian Updated using BFGS Update


** CONSTRAINED OPTIMIZATION IN DELOCALIZED INTERNAL COORDINATES **
   Searching for a Minimum

   Optimization Cycle:   3

                       Coordinates (Angstroms)
     ATOM                X               Y               Z
      1  O         4.9211939028   -2.8069399450    0.5427136480
      2  C         4.2604702644   -1.7613070426    0.3722282602
      3  C         4.8324511545   -0.4269294717   -0.1551462705
      4  C         3.8643943735    0.5507720810   -0.9021985505
      5  C         2.3746215822    0.1180822287   -0.9605681657
      6  O         1.6746025113    1.0843060348   -1.7062960974
      7  C         0.2916315306    0.6980773304   -1.9731924315
      8  C        -0.4377758809    0.0848017593   -0.7460166113
      9  O        -1.4581273158    1.0205931517   -0.2847334871
     10  C        -2.1100995561    0.5939587604    0.8795953653
     11  C        -3.6099196782    0.9935028422    0.8784229169
     12  C        -4.3383234083    0.9100021157   -0.5046110768
     13  C        -3.6468881416    0.0594178813   -1.6034533957
     14  O        -4.1846382400   -0.3113910472   -2.6741312675
     15  O         3.1048762488   -1.5558133652    1.1345009483
     16  O        -2.9910747723   -1.0066207978   -0.9443240764
     17  O        -1.6280287113   -0.2457308712    1.6658239185
     18  C        -2.9229239226   -2.2691021107   -1.6134110855
     19  C        -4.5291332980    0.1062192673    1.7828519440
     20  C        -5.7926779535    0.9333893405    2.1749939606
     21  C        -6.5419893634    0.9815726031    0.8199701504
     22  C        -5.6096093315    0.0839680569   -0.0558393949
     23  O        -5.0710732268   -0.8875819440    0.8764094286
     24  H        -3.6277192467    2.0416285188    1.2442362364
     25  H        -4.6216952949    1.8887893072   -0.9371183321
     26  H        -4.0157088489   -0.2960259356    2.6794214994
     27  H        -6.3797935397    0.3269266796    2.8897794248
     28  H        -5.5794020320    1.9167293963    2.6300553140
     29  H        -7.5301917890    0.5009289804    0.9364023654
     30  H        -6.6692719556    1.9911037565    0.3901108971
     31  H        -6.1583582139   -0.3512764700   -0.9159890172
     32  O         2.0389808094   -1.0863112599   -1.0561576474
     33  C         2.5705331590   -2.6844204721    1.8247600665
     34  C         5.2498846455    0.4865221538    1.0630104874
     35  C         6.3152300233    1.5217038407    0.5858872613
     36  C         5.4391404870    2.4705945299   -0.2693086156
     37  C         4.0261397137    1.8457812725   -0.0340642793
     38  O         4.0874892563    1.3155046976    1.3149017916
     39  H         5.7324075170   -0.6692511201   -0.7525479236
     40  H         4.1789444047    0.6954959428   -1.9550861896
     41  H         3.2944874586   -3.0922504530    2.5644907848
     42  H         5.6148500057   -0.0898606898    1.9372905174
     43  H         6.6701077313    2.0696243419    1.4786246815
     44  H         7.1843749796    1.0828438070    0.0646335018
     45  H         5.4823831868    3.4884721102    0.1589086170
     46  H         5.7012081604    2.5094568123   -1.3416459879
     47  H         3.2213709474    2.5878778874   -0.2109915993
     48  H         2.2863539868   -3.4951801401    1.1189178968
     49  H         1.6624679631   -2.3461033667    2.3616007615
     50  H        -2.3711441895   -2.9656291379   -0.9520022659
     51  H        -2.3898246379   -2.1982174812   -2.5870052851
     52  H        -3.9406205584   -2.6793506302   -1.7952627958
     53  H        -0.8300863998   -0.9100486014   -1.0159335652
     54  H         0.2377241745   -0.1292405784    0.1104108035
     55  H         0.3060999148   -0.0743620058   -2.7769566297
     56  H        -0.2525380094    1.5765370040   -2.3771367832
   Point Group: c1    Number of degrees of freedom:   162


   Energy is  -1510.184160134

              Constraints and their Current Values
                                        Value     Constraint
   Dihedral:        1   2   3   4      153.165      153.140
   Dihedral:        3   4   5   6     -177.816     -177.851
   Dihedral:        4   5   6   7      172.738      172.749
   Dihedral:        5   6   7   8       43.444       43.438
   Dihedral:        6   7   8   9      110.531      110.527
   Dihedral:        7   8   9  10     -175.859     -175.859
   Dihedral:        8   9  10  11     -144.444     -144.475
   Dihedral:        9  10  11  12       37.454       37.475
   Dihedral:       11  12  13  14      166.786      166.826
 Hessian Updated using BFGS Update

   Using Lagrange Multiplier Algorithm


160 Hessian modes will be used to form the next step
  Hessian Eigenvalues:
    -0.977754   -0.977753   -0.977753   -0.977753   -0.977753   -0.977753
    -0.977452   -0.975375    0.044949    0.045000    0.045011    0.045331
     0.045582    0.046296    0.047704    0.048665    0.048895    0.053425
     0.053885    0.057141    0.059375    0.060058    0.062454    0.063161
     0.067026    0.067138    0.067803    0.068439    0.068900    0.071611
     0.072477    0.074231    0.074782    0.075836    0.076064    0.076819
     0.077201    0.082354    0.082567    0.083369    0.083732    0.083819
     0.084472    0.084504    0.084902    0.085760    0.086370    0.086907
     0.087128    0.088674    0.088793    0.089139    0.089217    0.089776
     0.089906    0.093698    0.093898    0.096623    0.096655    0.111566
     0.111616    0.114467    0.114610    0.115887    0.115983    0.117113
     0.117335    0.118271    0.118773    0.118835    0.124794    0.125199
     0.130124    0.131044    0.131488    0.138928    0.141433    0.159514
     0.160008    0.161500    0.171274    0.171534    0.172094    0.173310
     0.202855    0.214641    0.216303    0.219083    0.234629    0.237747
     0.239619    0.241349    0.241954    0.253464    0.258696    0.260522
     0.267229    0.267546    0.278614    0.279513    0.282127    0.282602
     0.287638    0.295549    0.297814    0.303350    0.309736    0.310613
     0.313119    0.319762    0.321589    0.322103    0.322240    0.322405
     0.322654    0.322859    0.323020    0.323311    0.323424    0.323569
     0.323714    0.323947    0.324372    0.324452    0.324515    0.324647
     0.324694    0.324819    0.324962    0.325080    0.325260    0.326628
     0.326690    0.329307    0.331575    0.347845    0.369079    0.369450
     0.384767    0.392484    0.401099    0.410409    0.458077    0.483294
     0.515205    0.516204    0.521428    0.534041    0.920356    0.931175
     0.942576    0.996467    1.022753    1.022753    1.022753    1.022753
     1.022753    1.022753    1.023837    1.067715

 Minimum Search - Taking P-RFO Step
 Searching for Lamda that Maximizes Along the Constraint modes Only
 Value Taken    Lamda =   0.00017065
 Searching for Lamda that Minimizes Along All other modes
 Value Taken    Lamda =  -0.06382228
 Calculated Step too Large.  Step scaled by  0.547340
 Step Taken.  Stepsize is  0.300000

                             Maximum     Tolerance    Cnvgd?
         Gradient            0.048506       0.000300      NO
         Displacement        0.090230       0.001200      NO
         Energy change     -0.047610       0.000001      NO


 New Cartesian Coordinates Obtained by Inverse Iteration

 Displacement from previous Coordinates is:  2.205233
 Adding empirical dispersion correction 
 ----------------------------------------------------------------
 Doing -D3(op) with
 s6 =   1.00000
 s8 =   0.78311
 a1 =   0.30000
 a2 =   4.25000
 n  =  10.00000
 -D3 energy without 3body term =     -0.0685370215 hartrees
 ----------------------------------------------------------------
             Standard Nuclear Orientation (Angstroms)
    I     Atom           X                Y                Z
 ----------------------------------------------------------------
    1      O       5.0749780717    -2.8022616330     0.5948917286
    2      C       4.4008635666    -1.7594514195     0.4377991682
    3      C       4.9369590587    -0.4239843391    -0.1521152847
    4      C       3.9254804377     0.5426894361    -0.8692606603
    5      C       2.4354035345     0.0701759952    -0.8939079010
    6      O       1.7044830999     1.0480826953    -1.6233651034
    7      C       0.3038581390     0.6702855786    -1.8869241182
    8      C      -0.4723619363     0.0287984855    -0.6887199046
    9      O      -1.4913540576     0.9855051115    -0.2354527278
   10      C      -2.1856055197     0.5260733239     0.9134145057
   11      C      -3.6922085415     0.9551590098     0.8842322819
   12      C      -4.4127426638     0.9360157610    -0.5151151221
   13      C      -3.7770650639     0.0595338016    -1.6400715083
   14      O      -4.3447832070    -0.2482138029    -2.7188168606
   15      O       3.2582238426    -1.5206118368     1.2368839197
   16      O      -3.1161815321    -1.0306248382    -0.9902490998
   17      O      -1.7199299498    -0.3210621362     1.7052882681
   18      C      -3.1205324747    -2.2549759911    -1.7683462577
   19      C      -4.6464215224     0.0635664643     1.7586171754
   20      C      -5.8939973746     0.9233199464     2.1656419553
   21      C      -6.6332417593     1.0384571809     0.7994226724
   22      C      -5.7222855325     0.1312110022    -0.1019603654
   23      O      -5.2149799119    -0.8966459606     0.8089715362
   24      H      -3.6898471372     1.9940120779     1.2731980821
   25      H      -4.6597702238     1.9362244365    -0.9153983834
   26      H      -4.1466153629    -0.3903696513     2.6372072374
   27      H      -6.5069154869     0.3244189221     2.8621319230
   28      H      -5.6467169851     1.8849801551     2.6453839045
   29      H      -7.6396477668     0.5946697136     0.8861687504
   30      H      -6.7184861004     2.0642947209     0.4031220644
   31      H      -6.2686193557    -0.2705382467    -0.9786971132
[...]
     15  O         3.3778548691   -1.1392842007    1.5840888375
     16  O        -3.1770468483   -1.1633621113   -1.1865219685
     17  O        -1.8456744761   -0.7183166397    1.6919451367
     18  C        -3.0809156258   -2.2879697620   -2.1468328246
     19  C        -4.9083413012   -0.3017140270    1.5401398490
     20  C        -5.9364837486    0.6836518488    2.2162019570
     21  C        -6.5481664486    1.3658208935    0.9340731110
     22  C        -5.9501132310    0.4668844560   -0.2215677017
     23  O        -5.7105783114   -0.8533101719    0.4202932814
     24  H        -3.8106344464    1.5921438601    1.3706856529
     25  H        -4.3225378129    1.9129674732   -0.9252753676
     26  H        -4.5031996727   -1.1112117334    2.1780247098
     27  H        -6.7019057065    0.1176629808    2.7714743201
     28  H        -5.4560576323    1.4012749947    2.9002917127
     29  H        -7.6485151642    1.3209257331    0.9302860706
     30  H        -6.2391346981    2.4185354352    0.8298045789
     31  H        -6.5944840600    0.3535419722   -1.1152007956
     32  O         2.0473354731   -1.1562596366   -0.6523746636
     33  C         2.8616889102   -2.1891094250    2.4892754693
     34  C         5.8400250927    0.4275146102    0.7961182226
     35  C         6.6065573316    1.5100374701   -0.0667247201
     36  C         5.4556232539    2.5421709074   -0.3672682042
     37  C         4.2162602156    1.7756960308    0.2385616653
     38  O         4.7752604016    1.1976089489    1.4807225839
     39  H         5.5985020372   -0.9831264273   -0.9605521548
     40  H         4.2276559778    0.7994397041   -1.7400201278
     41  H         3.6623294641   -2.6021612839    3.1365449240
     42  H         6.4661799444   -0.1093628582    1.5350506022
     43  H         7.4210298872    1.9657661716    0.5181106444
     44  H         7.0336977793    1.0739806195   -0.9842014088
     45  H         5.6177143086    3.4910859918    0.1690489776
     46  H         5.3385038011    2.7557474941   -1.4416935091
     47  H         3.3243821166    2.3949802164    0.4554387559
     48  H         2.3997244026   -3.0226079182    1.9216965124
     49  H         2.0927953727   -1.6991626798    3.1145356999
     50  H        -2.4609269924   -3.0578387818   -1.6515813157
     51  H        -2.5993252191   -1.9767086198   -3.0965010369
     52  H        -4.0814075438   -2.7047771398   -2.3794006183
     53  H        -1.0280377627   -0.9450366558   -1.2085463942
     54  H         0.1283088615   -0.5311114552    0.1057884994
     55  H         0.3095475399    0.2234594606   -2.6999059913
     56  H        -0.1963889005    1.7270769021   -1.8505170315
   Point Group: c1    Number of degrees of freedom:   162


   Energy is  -1510.254305567

              Constraints and their Current Values
                                        Value     Constraint
   Dihedral:        1   2   3   4      153.140      153.140
   Dihedral:        3   4   5   6     -177.851     -177.851
   Dihedral:        4   5   6   7      172.749      172.749
   Dihedral:        5   6   7   8       43.438       43.438
   Dihedral:        6   7   8   9      110.527      110.527
   Dihedral:        7   8   9  10     -175.859     -175.859
   Dihedral:        8   9  10  11     -144.475     -144.475
   Dihedral:        9  10  11  12       37.475       37.475
   Dihedral:       11  12  13  14      166.826      166.826
 Hessian Updated using BFGS Update

153 Hessian modes will be used to form the next step
  Hessian Eigenvalues:
     0.003842    0.008657    0.015585    0.021681    0.045007    0.045054
     0.045611    0.045694    0.046849    0.047626    0.051979    0.053788
     0.056353    0.058251    0.060365    0.063983    0.065086    0.067144
     0.067447    0.067992    0.068987    0.069219    0.070956    0.073757
     0.074399    0.075560    0.075992    0.076761    0.078152    0.080282
     0.082466    0.083384    0.083658    0.084322    0.084536    0.085036
     0.085216    0.085253    0.086047    0.086702    0.087477    0.087923
     0.089105    0.089168    0.089643    0.089752    0.092338    0.093524
     0.094038    0.096502    0.096706    0.097661    0.111590    0.111633
     0.114550    0.114864    0.115916    0.115977    0.117328    0.118623
     0.119068    0.119780    0.122230    0.124888    0.125485    0.131466
     0.132053    0.136684    0.155679    0.156047    0.160001    0.160069
     0.160101    0.160810    0.161583    0.162012    0.170563    0.172047
     0.192142    0.209605    0.216742    0.218144    0.222791    0.230225
     0.238306    0.239698    0.241347    0.244409    0.248284    0.250837
     0.254196    0.258505    0.267088    0.267341    0.270452    0.275925
     0.278354    0.280169    0.283322    0.287411    0.295273    0.298226
     0.299563    0.305800    0.310451    0.311650    0.318069    0.320995
     0.321605    0.322104    0.322231    0.322459    0.322629    0.322861
     0.323026    0.323361    0.323520    0.323644    0.323798    0.323998
     0.324403    0.324522    0.324552    0.324698    0.324896    0.324940
     0.325139    0.325307    0.326316    0.326852    0.327492    0.331779
     0.338437    0.344212    0.354289    0.367616    0.369983    0.376623
     0.386420    0.397281    0.413139    0.466321    0.477493    0.492627
     0.504828    0.520425    0.538036    0.586809    0.619947    0.920666
     0.931724    0.944306    1.059767

 Minimum Search - Taking Simple RFO Step
 Searching for Lamda that Minimizes Along All modes
 Value Taken    Lamda =   0.00000000
 Step Taken.  Stepsize is  0.003357

                             Maximum     Tolerance    Cnvgd?
         Gradient           0.000032      0.000300     YES
         Displacement       0.001074      0.001200     YES
         Energy change     -0.000001      0.000001     YES

 Final energy is   -1510.25430556651     


 ******************************
 **  OPTIMIZATION CONVERGED  **
 ******************************

                       Coordinates (Angstroms)
     ATOM                X               Y               Z
      1  O         4.9026125105   -2.8141971174    0.8956728938
      2  C         4.4106695643   -1.6731516919    0.7498122013
      3  C         4.9915524352   -0.5281758517   -0.1589655658
      4  C         3.9482570456    0.5212309198   -0.7062613253
      5  C         2.4680741200    0.0095001672   -0.8165894312
      6  O         1.7140599733    1.0898933970   -1.3745295262
      7  C         0.3098154644    0.7482548614   -1.7184674666
      8  C        -0.5225294240   -0.1080942714   -0.6866937369
      9  O        -1.5553622615    0.7972402922   -0.1256673080
     10  C        -2.3131073889    0.1320892918    0.9052740169
     11  C        -3.8087690762    0.6163923850    0.8459538098
     12  C        -4.4471896551    0.8754955023   -0.5690419246
     13  C        -4.0703260915   -0.1634773077   -1.6937911210
     14  O        -4.6430760769   -0.2723036697   -2.8003968352
     15  O         3.3778548691   -1.1392842007    1.5840888375
     16  O        -3.1770468483   -1.1633621113   -1.1865219685
     17  O        -1.8456744761   -0.7183166397    1.6919451367
     18  C        -3.0809156258   -2.2879697620   -2.1468328246
     19  C        -4.9083413012   -0.3017140270    1.5401398490
     20  C        -5.9364837486    0.6836518488    2.2162019570
     21  C        -6.5481664486    1.3658208935    0.9340731110
     22  C        -5.9501132310    0.4668844560   -0.2215677017
     23  O        -5.7105783114   -0.8533101719    0.4202932814
     24  H        -3.8106344464    1.5921438601    1.3706856529
     25  H        -4.3225378129    1.9129674732   -0.9252753676
     26  H        -4.5031996727   -1.1112117334    2.1780247098
     27  H        -6.7019057065    0.1176629808    2.7714743201
     28  H        -5.4560576323    1.4012749947    2.9002917127
     29  H        -7.6485151642    1.3209257331    0.9302860706
     30  H        -6.2391346981    2.4185354352    0.8298045789
     31  H        -6.5944840600    0.3535419722   -1.1152007956
     32  O         2.0473354731   -1.1562596366   -0.6523746636
     33  C         2.8616889102   -2.1891094250    2.4892754693
     34  C         5.8400250927    0.4275146102    0.7961182226
     35  C         6.6065573316    1.5100374701   -0.0667247201
     36  C         5.4556232539    2.5421709074   -0.3672682042
     37  C         4.2162602156    1.7756960308    0.2385616653
     38  O         4.7752604016    1.1976089489    1.4807225839
     39  H         5.5985020372   -0.9831264273   -0.9605521548
     40  H         4.2276559778    0.7994397041   -1.7400201278
     41  H         3.6623294641   -2.6021612839    3.1365449240
     42  H         6.4661799444   -0.1093628582    1.5350506022
     43  H         7.4210298872    1.9657661716    0.5181106444
     44  H         7.0336977793    1.0739806195   -0.9842014088
     45  H         5.6177143086    3.4910859918    0.1690489776
     46  H         5.3385038011    2.7557474941   -1.4416935091
     47  H         3.3243821166    2.3949802164    0.4554387559
     48  H         2.3997244026   -3.0226079182    1.9216965124
     49  H         2.0927953727   -1.6991626798    3.1145356999
     50  H        -2.4609269924   -3.0578387818   -1.6515813157
     51  H        -2.5993252191   -1.9767086198   -3.0965010369
     52  H        -4.0814075438   -2.7047771398   -2.3794006183
     53  H        -1.0280377627   -0.9450366558   -1.2085463942
     54  H         0.1283088615   -0.5311114552    0.1057884994
     55  H         0.3095475399    0.2234594606   -2.6999059913
     56  H        -0.1963889005    1.7270769021   -1.8505170315

Z-matrix Print:
$molecule
0 1
O 
C  1 1.442028
O  2 1.249214 1 124.582649
C  1 1.483619 2 110.774290 3 33.878898 0
H  4 1.108306 1 108.743982 2 65.629625 0
H  4 1.109307 1 111.776856 2 -54.035034 0
C  2 1.573236 1 109.305848 3 -178.353919 0
H  7 1.107898 2 104.765460 1 -80.475328 0
C  7 1.573826 2 118.049069 1 37.475034 0
H  9 1.103988 7 113.517279 2 -90.458969 0
C  9 1.576880 7 115.840740 2 40.041173 0
O  11 1.250785 9 125.376303 7 166.826006 0
O  11 1.433541 9 110.860197 7 -0.678929 0
C  13 1.481952 11 109.902832 9 167.107712 0
H  14 1.105603 13 105.934069 11 -174.626552 0
H  14 1.108513 13 111.268869 11 -55.375229 0
H  14 1.109361 13 111.713314 11 66.089820 0
C  4 1.578192 1 106.455076 2 -175.858979 0
H  18 1.109852 4 108.408407 1 -8.422026 0
H  18 1.112938 4 108.695079 1 -125.710517 0
O  18 1.485568 4 118.161487 1 110.527032 0
C  21 1.430763 18 114.505449 4 43.438012 0
O  22 1.250193 21 125.308882 18 2.412462 0
C  22 1.570026 21 106.148402 18 172.748957 0
H  24 1.106400 22 104.736823 21 -58.026682 0
C  24 1.577737 22 115.531338 21 -177.850945 0
H  26 1.103589 24 112.700781 22 101.556330 0
C  26 1.572982 24 116.127353 22 -24.938516 0
O  28 1.251107 26 125.874887 24 153.139982 0
O  28 1.430992 26 109.377912 24 -37.793677 0
C  30 1.479163 28 110.111472 26 -177.453235 0
H  31 1.105529 30 105.918265 28 178.581291 0
H  31 1.109178 30 111.440366 28 -62.486933 0
H  31 1.109322 30 111.683577 28 59.207640 0
C  7 1.591814 2 117.562180 1 160.326272 0
H  35 1.107395 7 114.840719 2 11.282193 0
O  35 1.483880 7 104.995312 2 -111.100442 0
C  37 1.487372 35 94.749241 7 -50.653914 0
H  38 1.107538 37 110.551969 35 -177.781481 0
C  35 1.576415 7 106.082818 2 141.659548 0
H  40 1.101713 35 112.894581 7 -54.509541 0
H  40 1.102062 35 110.367581 7 -176.688569 0
C  40 1.575870 35 100.068004 7 66.000867 0
H  43 1.101271 40 111.899597 35 127.766277 0
H  43 1.102080 40 112.434530 35 -109.707490 0
C  24 1.593173 22 117.187979 21 61.953013 0
H  46 1.107247 24 114.901175 22 -20.500728 0
O  46 1.479740 24 104.700414 22 101.522032 0
C  48 1.481706 46 94.971253 24 52.669484 0
H  49 1.107397 48 110.486743 46 178.280998 0
C  46 1.578143 24 106.670738 22 -150.362263 0
H  51 1.101690 46 112.647170 24 51.193145 0
H  51 1.101975 46 110.298083 24 173.055268 0
C  51 1.574889 46 100.507374 24 -69.345289 0
H  54 1.101402 51 111.751285 46 -123.970649 0
H  54 1.101979 51 112.564073 46 113.486645 0
$end

 
 --------------------------------------------------------------
 
                    Orbital Energies (a.u.)
 --------------------------------------------------------------
 
 Alpha MOs
 -- Occupied --
-18.941 -18.936 -18.923 -18.913 -18.888 -18.887 -18.879 -18.876
-18.876 -18.861 -10.105 -10.102 -10.100 -10.089 -10.077 -10.068
-10.063 -10.061 -10.060 -10.059 -10.059 -10.053 -10.042 -10.037
-10.035 -10.035 -10.023 -10.021 -10.020 -10.019  -1.017  -1.014
 -1.001  -0.999  -0.971  -0.970  -0.942  -0.939  -0.931  -0.923
 -0.765  -0.762  -0.727  -0.723  -0.714  -0.703  -0.694  -0.665
 -0.651  -0.617  -0.599  -0.583  -0.546  -0.544  -0.539  -0.537
 -0.511  -0.511  -0.490  -0.477  -0.463  -0.456  -0.446  -0.436
 -0.434  -0.433  -0.428  -0.414  -0.410  -0.407  -0.403  -0.400
 -0.394  -0.381  -0.377  -0.364  -0.363  -0.358  -0.350  -0.348
 -0.342  -0.339  -0.334  -0.331  -0.330  -0.320  -0.319  -0.315
 -0.311  -0.309  -0.304  -0.301  -0.299  -0.290  -0.287  -0.272
 -0.271  -0.255  -0.250  -0.243  -0.240  -0.235  -0.233  -0.182
 -0.181  -0.169  -0.163  -0.157  -0.153  -0.148  -0.145  -0.143
 -0.139
 -- Virtual --
  0.094   0.095   0.099   0.109   0.224   0.238   0.248   0.251
  0.254   0.266   0.281   0.283   0.301   0.304   0.323   0.327
  0.329   0.333   0.340   0.349   0.351   0.357   0.363   0.368
  0.374   0.375   0.383   0.394   0.398   0.401   0.408   0.409
  0.412   0.416   0.419   0.428   0.430   0.433   0.435   0.438
  0.440   0.442   0.443   0.444   0.448   0.449   0.455   0.463
  0.466   0.473   0.489   0.490   0.496   0.503   0.507   0.536
  0.538   0.553   0.554   0.628   0.640   0.647   0.658
 --------------------------------------------------------------
 
          Ground-State Mulliken Net Atomic Charges

     Atom                 Charge (a.u.)
  ----------------------------------------
      1 O                    -0.219353
      2 C                     0.212457
      3 C                    -0.078823
      4 C                    -0.078632
      5 C                     0.216166
      6 O                    -0.174603
      7 C                    -0.049665
      8 C                    -0.054604
      9 O                    -0.188554
     10 C                     0.218178
     11 C                    -0.080392
     12 C                    -0.073742
     13 C                     0.213074
     14 O                    -0.215595
     15 O                    -0.165290
     16 O                    -0.169393
     17 O                    -0.207314
     18 C                    -0.128335
     19 C                     0.023524
     20 C                    -0.140503
     21 C                    -0.146118
     22 C                     0.022829
     23 O                    -0.193198
     24 H                     0.081286
     25 H                     0.087643
     26 H                     0.091188
     27 H                     0.078290
     28 H                     0.074101
     29 H                     0.079135
     30 H                     0.073929
     31 H                     0.086929
     32 O                    -0.211511
     33 C                    -0.126405
     34 C                     0.025185
     35 C                    -0.145279
     36 C                    -0.141811
     37 C                     0.027006
     38 O                    -0.186006
     39 H                     0.084742
     40 H                     0.084140
     41 H                     0.086971
     42 H                     0.083232
     43 H                     0.078220
     44 H                     0.073759
     45 H                     0.077839
     46 H                     0.073586
     47 H                     0.087670
     48 H                     0.089856
     49 H                     0.091224
     50 H                     0.093642
     51 H                     0.087093
     52 H                     0.095315
     53 H                     0.092033
     54 H                     0.105061
     55 H                     0.081978
     56 H                     0.097847
  ----------------------------------------
  Sum of atomic charges =    -0.000000

 -----------------------------------------------------------------
                    Cartesian Multipole Moments
 -----------------------------------------------------------------
    Charge (ESU x 10^10)
                 0.0000
    Dipole Moment (Debye)
         X      -0.3085      Y       2.4550      Z      -1.2183
       Tot       2.7579
    Quadrupole Moments (Debye-Ang)
        XX    -153.5629     XY       2.1436     YY    -161.4067
        XZ     -11.2803     YZ       1.8148     ZZ    -159.4176
    Octopole Moments (Debye-Ang^2)
       XXX      49.6227    XXY      91.3733    XYY     -33.4236
       YYY      11.5592    XXZ       6.8177    XYZ     -17.6144
       YYZ     -14.2347    XZZ      22.1838    YZZ     -15.3987
       ZZZ     -12.8278
    Hexadecapole Moments (Debye-Ang^3)
      XXXX  -17346.2192   XXXY     -63.4404   XXYY   -3409.0804
      XYYY      30.6324   YYYY   -1826.2881   XXXZ    -527.3128
      XXYZ      45.5389   XYYZ     -48.5100   YYYZ      84.1426
      XXZZ   -3359.0636   XYZZ     -63.0257   YYZZ    -588.7634
      XZZZ    -298.8878   YZZZ      39.3905   ZZZZ   -1914.4679
 -----------------------------------------------------------------
Archival summary:
1\1\vega02.cac.cornell.edu\OPT\ProcedureUnspecified\STO-3G\102026\jj585\TueJan1621:53:102018TueJan1621:53:102018\0\\#,OPT,ProcedureUnspecified,STO-3G,\\0,1\O\C,1,1.44203\O,2,1.24921,1,124.583\C,1,1.48362,2,110.774,3,33.8789,0\H,4,1.10831,1,108.744,2,65.6296,0\H,4,1.10931,1,111.777,2,-54.035,0\C,2,1.57324,1,109.306,3,-178.354,0\H,7,1.1079,2,104.765,1,-80.4753,0\C,7,1.57383,2,118.049,1,37.475,0\H,9,1.10399,7,113.517,2,-90.459,0\C,9,1.57688,7,115.841,2,40.0412,0\O,11,1.25078,9,125.376,7,166.826,0\O,11,1.43354,9,110.86,7,-0.678929,0\C,13,1.48195,11,109.903,9,167.108,0\H,14,1.1056,13,105.934,11,-174.627,0\H,14,1.10851,13,111.269,11,-55.3752,0\H,14,1.10936,13,111.713,11,66.0898,0\C,4,1.57819,1,106.455,2,-175.859,0\H,18,1.10985,4,108.408,1,-8.42203,0\H,18,1.11294,4,108.695,1,-125.711,0\O,18,1.48557,4,118.161,1,110.527,0\C,21,1.43076,18,114.505,4,43.438,0\O,22,1.25019,21,125.309,18,2.41246,0\C,22,1.57003,21,106.148,18,172.749,0\H,24,1.1064,22,104.737,21,-58.0267,0\C,24,1.57774,22,115.531,21,-177.851,0\H,26,1.10359,24,112.701,22,101.556,0\C,26,1.57298,24,116.127,22,-24.9385,0\O,28,1.25111,26,125.875,24,153.14,0\O,28,1.43099,26,109.378,24,-37.7937,0\C,30,1.47916,28,110.111,26,-177.453,0\H,31,1.10553,30,105.918,28,178.581,0\H,31,1.10918,30,111.44,28,-62.4869,0\H,31,1.10932,30,111.684,28,59.2076,0\C,7,1.59181,2,117.562,1,160.326,0\H,35,1.10739,7,114.841,2,11.2822,0\O,35,1.48388,7,104.995,2,-111.1,0\C,37,1.48737,35,94.7492,7,-50.6539,0\H,38,1.10754,37,110.552,35,-177.781,0\C,35,1.57641,7,106.083,2,141.66,0\H,40,1.10171,35,112.895,7,-54.5095,0\H,40,1.10206,35,110.368,7,-176.689,0\C,40,1.57587,35,100.068,7,66.0009,0\H,43,1.10127,40,111.9,35,127.766,0\H,43,1.10208,40,112.435,35,-109.707,0\C,24,1.59317,22,117.188,21,61.953,0\H,46,1.10725,24,114.901,22,-20.5007,0\O,46,1.47974,24,104.7,22,101.522,0\C,48,1.48171,46,94.9713,24,52.6695,0\H,49,1.1074,48,110.487,46,178.281,0\C,46,1.57814,24,106.671,22,-150.362,0\H,51,1.10169,46,112.647,24,51.1931,0\H,51,1.10198,46,110.298,24,173.055,0\C,51,1.57489,46,100.507,24,-69.3453,0\H,54,1.1014,51,111.751,46,-123.971,0\H,54,1.10198,51,112.564,46,113.487,0\\\@

 Total job time:  65.29s(wall), 3104.84s(cpu) 
 Tue Jan 16 21:53:10 2018

        *************************************************************
        *                                                           *
        *  Thank you very much for using Q-Chem.  Have a nice day.  *
        *                                                           *
        *************************************************************


0 sent ACK to 0 
now end server 0 ... 
