mFile = /opt/software/qchem/qchem-5.0.1//bin/mpi/machines
Process 0 of 1 is on vega02.cac.cornell.edu - thread support 0
initial socket setup ...start
initial socket setup ...done 
now start server 0 ... 
vega02.cac.cornell.edu 10.84.3
Q-Chem Developer Version! Running on 10.84.3.*
                  Welcome to Q-Chem
     A Quantum Leap Into The Future Of Chemistry


 Q-Chem 5.0, Q-Chem, Inc., Pleasanton, CA (2017)

 Yihan Shao,  Zhengting Gan,  E. Epifanovsky,  A. T. B. Gilbert,  M. Wormit,  
 J. Kussmann,  A. W. Lange,  A. Behn,  Jia Deng,  Xintian Feng,  D. Ghosh,  
 M. Goldey,  P. R. Horn,  L. D. Jacobson,  I. Kaliman,  T. Kus,  A. Landau,  
 Jie Liu,  E. I. Proynov,  R. M. Richard,  R. P. Steele,  E. J. Sundstrom,  
 H. L. Woodcock III,  P. M. Zimmerman,  D. Zuev,  B. Albrecht,  E. Alguire,  
 S. A. Baeppler,  Z. Benda,  Y. A. Bernard,  E. J. Berquist,  K. B. Bravaya,  
 D. Casanova,  Chun-Min Chang,  Yunqing Chen,  A. Chien,  K. D. Closser,  
 M. P. Coons,  S. Dasgupta,  M. Diedenhofen,  Hainam Do,  R. G. Edgar,  
 Po-Tung Fang,  S. Fatehi,  Qingguo Feng,  Qinghui Ge,  A. Ghysels,  
 J. Gomes,  J. Gonthier,  A. Gunina,  M. W. D. Hanson-Heine,  
 P. H. P. Harbach,  A. W. Hauser,  J. E. Herr,  E. G. Hohenstein,  
 Z. C. Holden,  Kerwin Hui,  T.-C. Jagau,  Hyunjun Ji,  B. Kaduk,  
 K. Khistyaev,  Jaehoon Kim,  P. Klunzinger,  K. Koh,  D. Kosenkov,  
 T. Kowalczyk,  C. M. Krauter,  A. Kunitsa,  Ka Un Lao,  A. Laurent,  
 K. V. Lawler,  Joonho Lee,  D. Lefrancois,  S. Lehtola,  D. S. Levine,  
 Yi-Pei Li,  You-Sheng Lin,  Fenglai Liu,  E. Livshits,  A. Luenser,  
 P. Manohar,  E. Mansoor,  S. F. Manzer,  Shan-Ping Mao,  Yuezhi Mao,  
 N. Mardirossian,  A. V. Marenich,  L. A. Martinez-Martinez,  S. A. Maurer,  
 N. J. Mayhall,  S. C. McKenzie,  J.-M. Mewes,  A. F. Morrison,  K. Nanda,  
 T. S. Nguyen-Beck,  R. Olivares-Amaya,  J. A. Parkhill,  T. M. Perrine,  
 F. Plasser,  S. Prager,  A. Prociuk,  D. R. Rehn,  F. Rob,  M. Schneider,  
 N. Sergueev,  S. M. Sharada,  S. Sharma,  D. W. Small,  T. Stauch,  
 T. Stein,  Yu-Chuan Su,  A. J. W. Thom,  T. Tsuchimochi,  L. Vogt,  
 O. Vydrov,  M. A. Watson,  J. Wenzel,  M. de Wergifosse,  T. A. Wesolowski,  
 A. White,  J. Witte,  A. Yamada,  Jun Yang,  K. Yao,  S. Yeganeh,  
 S. R. Yost,  Zhi-Qiang You,  A. Zech,  Igor Ying Zhang,  Xing Zhang,  
 Yan Zhao,  Ying Zhu,  B. R. Brooks,  G. K. L. Chan,  C. J. Cramer,  
 M. S. Gordon,  W. J. Hehre,  A. Klamt,  M. W. Schmidt,  C. D. Sherrill,  
 D. G. Truhlar,  A. Aspuru-Guzik,  R. Baer,  A. T. Bell,  N. A. Besley,  
 Jeng-Da Chai,  A. Dreuw,  B. D. Dunietz,  T. R. Furlani,  Chao-Ping Hsu,  
 Yousung Jung,  Jing Kong,  D. S. Lambrecht,  WanZhen Liang,  C. Ochsenfeld,  
 V. A. Rassolov,  L. V. Slipchenko,  J. E. Subotnik,  T. Van Voorhis,  
 J. M. Herbert,  A. I. Krylov,  P. M. W. Gill,  M. Head-Gordon

 Contributors to earlier versions of Q-Chem not listed above: 
 R. D. Adamson,  B. Austin,  J. Baker,  G. J. O. Beran,  K. Brandhorst,  
 S. T. Brown,  E. F. C. Byrd,  A. K. Chakraborty,  C.-L. Cheng,  
 Siu Hung Chien,  D. M. Chipman,  D. L. Crittenden,  H. Dachsel,  
 R. A. DiStasio Jr.,  R. J. Doerksen,  A. D. Dutoi,  L. Fusti-Molnar,  
 W. A. Goddard III,  A. Golubeva-Zadorozhnaya,  S. R. Gwaltney,  G. Hawkins,  
 A. Heyden,  S. Hirata,  G. Kedziora,  F. J. Keil,  C. Kelley,  Jihan Kim,  
 R. A. King,  R. Z. Khaliullin,  P. P. Korambath,  W. Kurlancheek,  
 A. M. Lee,  M. S. Lee,  S. V. Levchenko,  Ching Yeh Lin,  D. Liotard,  
 R. C. Lochan,  I. Lotan,  P. E. Maslen,  N. Nair,  D. P. O'Neill,  
 D. Neuhauser,  E. Neuscamman,  C. M. Oana,  R. Olson,  B. Peters,  
 R. Peverati,  P. A. Pieniazek,  Y. M. Rhee,  J. Ritchie,  M. A. Rohrdanz,  
 E. Rosta,  N. J. Russ,  H. F. Schaefer III,  N. E. Schultz,  N. Shenvi,  
 A. C. Simmonett,  A. Sodt,  D. Stuck,  K. S. Thanthiriwatte,  V. Vanovschi,  
 Tao Wang,  A. Warshel,  C. F. Williams,  Q. Wu,  X. Xu,  W. Zhang

 Please cite Q-Chem as follows:
 Y. Shao et al., Mol. Phys. 113, 184-215 (2015)
 DOI: 10.1080/00268976.2014.952696

 Q-Chem 5.0.1 for Intel X86 EM64T Linux

 Parts of Q-Chem use Armadillo 5.200.1 (Boston Tea Smuggler).
 http://arma.sourceforge.net/

 Q-Chem begins on Wed Jan 17 00:20:40 2018  

Host: vega02.cac.cornell.edu
0

     Scratch files written to /scratch/jj585/SOT1001/1328c.save//
 Parallel job on  1  processors

Checking the input file for inconsistencies... 	...done.

--------------------------------------------------------------
User input:
--------------------------------------------------------------
$molecule
0  1
O -3.94934 -3.66094 2.70899
C -3.26408 -4.56952 2.26188
C -3.36658 -6.02376 2.66595
C -2.30727 -6.55757 3.64409
C -1.36996 -5.53491 4.24717
O -0.38694 -6.16659 4.95434
C 0.54666 -5.26133 5.55279
C 1.46092 -4.6678 4.48603
O 1.32292 -3.23836 4.46336
C 1.23442 -2.68056 3.23041
C 1.11203 -1.17594 3.27274
C 1.02051 -0.49503 1.89932
C 0.70768 -1.40631 0.72953
O -0.28721 -1.33601 0.02256
O -2.45078 -4.32488 1.20792
O 1.76938 -2.10662 0.23892
O 1.2582 -3.37729 2.22999
C 1.73259 -2.88693 -0.8988
C -0.18415 -0.67757 3.93864
C 0.03189 0.73682 4.47135
C 0.11978 1.51533 3.17425
C -0.20597 0.40603 2.16543
O -1.06794 -0.45583 2.86864
H 1.99264 -0.80662 3.8461
H 1.92639 0.09445 1.63602
H -0.55349 -1.34417 4.74831
H -0.90494 1.02798 4.9988
H 0.89377 0.86609 5.16078
H -0.67333 2.29563 3.18058
H 1.10886 1.97597 2.96181
H -0.61639 0.85136 1.23246
O -1.42975 -4.32038 4.09716
C -2.50087 -3.16675 0.47049
C -4.63297 -6.28902 3.52016
C -5.01984 -7.76623 3.44533
C -3.92292 -8.38756 4.28211
C -3.19438 -7.12772 4.75908
O -4.20706 -6.15852 4.85449
H -3.47428 -6.62157 1.73273
H -1.66873 -7.31774 3.14038
H -2.28695 -2.29327 1.12068
H -5.50378 -5.66406 3.22297
H -5.98463 -7.87831 3.99056
H -5.13044 -8.18086 2.42035
H -4.39216 -8.91789 5.14047
H -3.24026 -9.07472 3.73664
H -2.62889 -7.33752 5.69369
H -3.50892 -3.04818 0.01847
H -1.76376 -3.24086 -0.35289
H 2.73055 -3.34391 -1.05868
H 1.47803 -2.26485 -1.78328
H 0.98205 -3.69775 -0.78093
H 2.50116 -4.83667 4.84186
H 1.40784 -5.23187 3.52812
H 1.1801 -5.89687 6.20955
H 0.07511 -4.50748 6.22359
$end

$opt
CONSTRAINT
tors           1           2           3           4    -101.695
tors           3           4           5           6    -172.361
tors           4           5           6           7    +179.742
tors           5           6           7           8     -73.421
tors           6           7           8           9    +120.105
tors           7           8           9          10    -135.976
tors           8           9          10          11    -179.139
tors           9          10          11          12    +179.510
tors          11          12          13          14    +117.484
ENDCONSTRAINT
$end

$rem
JOBTYPE                   OPT
METHOD                    B3LYP
DFT_D                     d3_op
BASIS                     STO-3G
GEOM_OPT_MAX_CYCLES       100
GEOM_OPT_TOL_GRADIENT     300
GEOM_OPT_TOL_DISPLACEMENT 1200
GEOM_OPT_TOL_ENERGY       100
SYMMETRY                  False
THRESH                    12
SCF_CONVERGENCE           8
MAX_SUB_FILE_NUM          128
MEM_STATIC                400
MEM_TOTAL                 4000
$end
--------------------------------------------------------------
 Adding empirical dispersion correction 
 ----------------------------------------------------------------
 Doing -D3(op) with
 s6 =   1.00000
 s8 =   0.78311
 a1 =   0.30000
 a2 =   4.25000
 n  =  10.00000
 -D3 energy without 3body term =     -0.0702607214 hartrees
 ----------------------------------------------------------------
             Standard Nuclear Orientation (Angstroms)
    I     Atom           X                Y                Z
 ----------------------------------------------------------------
    1      O      -1.6230148731     1.7852558666     1.6560657751
    2      C      -1.8598187547     1.6588149020     0.4631940971
    3      C      -3.1746070568     1.1949359125    -0.1239522188
    4      C      -3.2548410179    -0.2641782375    -0.6018612692
    5      C      -2.0697781678    -1.1463518400    -0.2770770729
    6      O      -2.2038566625    -2.3526724977    -0.9033763463
    7      C      -1.1133046377    -3.2441103044    -0.6478730231
    8      C       0.1253911792    -2.7925817673    -1.4146068488
    9      O       1.1943835630    -2.5136246329    -0.4968406242
   10      C       1.8918445107    -1.3767561987    -0.7422325193
   11      C       3.0134880267    -1.1502937528     0.2433044252
   12      C       3.8417919893     0.1198771843     0.0006623618
   13      C       3.2287909177     1.1391153713    -0.9385318118
   14      O       2.9087152846     2.2794872230    -0.6357804088
   15      O      -0.9581207376     2.1105159556    -0.4396038566
   16      O       3.3764185132     0.8677741583    -2.2662814860
   17      O       1.5942283504    -0.6550923388    -1.6789631380
   18      C       3.0123278047     1.7252331504    -3.2845378542
   19      C       2.5325820502    -0.9201415025     1.6881703161
   20      C       3.6491073118    -1.2961019806     2.6592405283
   21      C       4.6355652884    -0.1751941560     2.4009051039
   22      C       3.8181883490     0.6929839144     1.4352244519
   23      O       2.4833579336     0.4776856163     1.8253188629
   24      H       3.6536608132    -2.0608830718     0.2030698692
   25      H       4.8760933051    -0.0867063834    -0.3528573017
   26      H       1.5992509486    -1.4696859754     1.9396201750
   27      H       3.2351905602    -1.1766995009     3.6863939091
   28      H       4.0591731854    -2.3229561960     2.5484344287
   29      H       4.8184018795     0.3574832248     3.3604660556
   30      H       5.6006253330    -0.4861770446     1.9453307818
   31      H       4.1749421700     1.7456400696     1.4780979441
   32      O      -1.0978083888    -0.8332594120     0.3999818945
   33      C       0.1179315726     2.8951439580    -0.1018947605
   34      C      -4.2939327123     1.1550674423     0.9481027265
   35      C      -5.6668239047     1.2397533213     0.2807082512
   36      C      -5.7614968683    -0.1348682224    -0.3445419909
   37      C      -4.4717117812    -0.7674173880     0.1863098909
   38      O      -4.2812433696    -0.1627399705     1.4401278583
   39      H      -3.4823597176     1.9464630120    -0.8857730463
   40      H      -3.3852649792    -0.2990843387    -1.7068891780
   41      H       0.7733142049     2.3538333355     0.6115003110
   42      H      -4.2035738455     1.9607389710     1.7096377664
   43      H      -6.4219994330     1.3079655258     1.0966215064
   44      H      -5.8076924912     2.0921095607    -0.4181331327
   45      H      -6.6532313350    -0.6518959690     0.0746356876
   46      H      -5.7991501876    -0.1502788235    -1.4554406375
   47      H      -4.5555129814    -1.8765919333     0.1861717911
   48      H      -0.2332894431     3.8388624008     0.3677700419
   49      H       0.6670576966     3.1577472912    -1.0272476975
   50      H       3.2378683572     1.2478049414    -4.2599917285
   51      H       3.5841481223     2.6747481525    -3.2101606038
   52      H       1.9228692348     1.9375001629    -3.2330068857
   53      H       0.4778058622    -3.6812523328    -1.9832014676
   54      H      -0.1192793394    -2.0464781045    -2.2033081111
   55      H      -1.4310552774    -4.2166053003    -1.0835093814
   56      H      -0.9366341424    -3.4398202559     0.4343039568
 ----------------------------------------------------------------
 Molecular Point Group                 C1    NOp =  1
 Largest Abelian Subgroup              C1    NOp =  1
 Nuclear Repulsion Energy =  3345.4098469310 hartrees
 There are      113 alpha and      113 beta electrons
 Requested basis set is STO-3G
 There are 86 shells and 176 basis functions

 Total QAlloc Memory Limit   4000 MB
 Mega-Array Size       392 MB
 MEM_STATIC part       400 MB
 A cutoff of  1.0D-12 yielded   2424 shell pairs
 There are     11799 function pairs
 
 -------------------------------------------------------
 OpenMP Integral Computing Module                       
 Release: version 1.0, May 2013, Q-Chem Inc. Pittsburgh 
 -------------------------------------------------------
 Integral Job Info:
 Integral job number is                      11
 Integral operator is                         1
 short-range coefficients                     0
 long-range coefficients              100000000
 Omega coefficients                           0
 if combine SR and LR in K                    0
 Integral screening is                        0
 Integral computing path is                   2
 max size of driver memory is            800000
 size of driver memory is                 45569
 size of scratch memory is              1046100
 max col of scratch BK array                289
 max len of scratch array in speh3           22
 max len of scratch index in speh4            8
 max int batch size is                      520
 min int batch size is                       52
 fixed nKL is                                52
 max L of basis functions is                  1
 order of int derivative is                   0
 number of shells is                         86
 number of basis is                         176
 number of cartesian basis is               176
 number of contracted shell pairs          2424
 number of primitive shell pairs          11873
 maxK2 (contraction) of shell pair            9
 max number of K2 of shell pair               1
 max number of CS2 of shell pair            352
 max number of PS2 of shell pair           1248
 mem total for path MDJ                   52138
 -------------------------------------------------------
 Smallest overlap matrix eigenvalue = 1.93E-01

 Scale SEOQF with 1.000000e-02/1.000000e-01/1.000000e-01

 Standard Electronic Orientation quadrupole field applied
 Nucleus-field energy     =     0.0000000038 hartrees
 Guess from superposition of atomic densities
 Warning:  Energy on first SCF cycle will be non-variational
 A restricted hybrid HF-DFT SCF calculation will be
 performed using Pulay DIIS extrapolation
 Exchange:     0.2000 Hartree-Fock + 0.0800 Slater + 0.7200 B88
 Correlation:  0.1900 VWN1RPA + 0.8100 LYP
 Using SG-1 standard quadrature grid
 Dispersion:   Grimme D3
 SCF converges when DIIS error is below 1.0E-08
 using 48 threads for integral computing
 -------------------------------------------------------
 OpenMP Integral computing Module                
 Release: version 1.0, May 2013, Q-Chem Inc. Pittsburgh 
 -------------------------------------------------------
 -------------------------------------------------------
 OpenMP BLAS3 based DFT computing Module                
 Release: version 1.0, May 2013, Q-Chem Inc. Pittsburgh 
 -------------------------------------------------------
 ---------------------------------------
  Cycle       Energy         DIIS Error
 ---------------------------------------
    1   -1509.4954661920      8.31E-02
    2   -1509.6118679062      1.03E-02
    3   -1507.8375401518      2.39E-02
    4   -1510.0966916059      3.39E-03
    5   -1510.1423153628      1.16E-03
    6   -1510.1476559239      4.52E-04
    7   -1510.1484662644      1.30E-04
    8   -1510.1485381007      2.22E-05
    9   -1510.1485399093      1.06E-05
   10   -1510.1485403561      3.54E-06
   11   -1510.1485404116      6.17E-07
   12   -1510.1485404132      1.73E-07
   13   -1510.1485404132      8.32E-08
   14   -1510.1485404133      3.27E-08
   15   -1510.1485404132      6.09E-09 Convergence criterion met
 ---------------------------------------
 SCF time:  CPU 112.76 s  wall 2.40 s
 SCF   energy in the final basis set = -1510.14854041
 Total energy in the final basis set = -1510.14854041
 
 --------------------------------------------------------------
 
                    Orbital Energies (a.u.)
 --------------------------------------------------------------
 
 Alpha MOs
 -- Occupied --
-18.948 -18.944 -18.911 -18.906 -18.895 -18.894 -18.873 -18.862
-18.844 -18.832 -10.111 -10.110 -10.101 -10.091 -10.089 -10.084
-10.068 -10.066 -10.063 -10.062 -10.059 -10.051 -10.037 -10.036
-10.035 -10.029 -10.013 -10.013 -10.011 -10.011  -1.052  -1.044
 -1.028  -1.024  -1.019  -1.018  -0.956  -0.948  -0.932  -0.924
 -0.780  -0.777  -0.748  -0.738  -0.732  -0.720  -0.711  -0.670
 -0.661  -0.636  -0.604  -0.586  -0.550  -0.546  -0.534  -0.532
 -0.526  -0.520  -0.499  -0.480  -0.473  -0.467  -0.465  -0.460
 -0.449  -0.442  -0.441  -0.420  -0.416  -0.416  -0.410  -0.406
 -0.403  -0.391  -0.381  -0.373  -0.371  -0.361  -0.359  -0.354
 -0.352  -0.348  -0.342  -0.336  -0.330  -0.324  -0.316  -0.314
 -0.308  -0.306  -0.305  -0.294  -0.293  -0.284  -0.276  -0.273
 -0.272  -0.252  -0.247  -0.232  -0.231  -0.213  -0.203  -0.193
 -0.172  -0.163  -0.156  -0.150  -0.149  -0.145  -0.134  -0.130
 -0.119
 -- Virtual --
  0.110   0.120   0.126   0.139   0.244   0.252   0.261   0.270
  0.307   0.314   0.324   0.329   0.334   0.344   0.348   0.356
  0.366   0.378   0.391   0.393   0.397   0.399   0.400   0.406
  0.408   0.408   0.412   0.415   0.417   0.421   0.423   0.428
  0.430   0.441   0.450   0.451   0.455   0.459   0.463   0.466
  0.469   0.474   0.478   0.480   0.483   0.491   0.495   0.498
  0.498   0.502   0.508   0.523   0.531   0.553   0.559   0.568
  0.571   0.581   0.583   0.693   0.697   0.700   0.714
 --------------------------------------------------------------
 
          Ground-State Mulliken Net Atomic Charges

     Atom                 Charge (a.u.)
  ----------------------------------------
      1 O                    -0.236050
      2 C                     0.241983
      3 C                    -0.083233
      4 C                    -0.081516
      5 C                     0.235305
      6 O                    -0.191016
      7 C                    -0.036123
      8 C                    -0.040723
      9 O                    -0.189187
     10 C                     0.240053
     11 C                    -0.082984
     12 C                    -0.080325
     13 C                     0.245785
     14 O                    -0.240362
     15 O                    -0.218758
     16 O                    -0.208666
     17 O                    -0.230067
     18 C                    -0.096159
     19 C                     0.040329
     20 C                    -0.141534
     21 C                    -0.144682
     22 C                     0.041742
     23 O                    -0.206530
     24 H                     0.085807
     25 H                     0.087227
     26 H                     0.093222
     27 H                     0.076272
     28 H                     0.070796
     29 H                     0.076615
     30 H                     0.070059
     31 H                     0.089595
     32 O                    -0.219893
     33 C                    -0.099903
     34 C                     0.042243
     35 C                    -0.143239
     36 C                    -0.143313
     37 C                     0.038698
     38 O                    -0.210152
     39 H                     0.084348
     40 H                     0.086130
     41 H                     0.101988
     42 H                     0.089208
     43 H                     0.074838
     44 H                     0.071309
     45 H                     0.074333
     46 H                     0.071171
     47 H                     0.083783
     48 H                     0.075633
     49 H                     0.095469
     50 H                     0.089898
     51 H                     0.080291
     52 H                     0.087217
     53 H                     0.082557
     54 H                     0.109058
     55 H                     0.091090
     56 H                     0.100365
  ----------------------------------------
  Sum of atomic charges =    -0.000000

 -----------------------------------------------------------------
                    Cartesian Multipole Moments
 -----------------------------------------------------------------
    Charge (ESU x 10^10)
                 0.0000
    Dipole Moment (Debye)
         X       0.3768      Y      -2.6521      Z      -2.7720
       Tot       3.8549
    Quadrupole Moments (Debye-Ang)
        XX    -141.8651     XY      -3.9597     YY    -150.8464
        XZ       7.5570     YZ      -2.5527     ZZ    -161.2747
    Octopole Moments (Debye-Ang^2)
       XXX      19.5241    XXY       9.6922    XYY     -10.4586
       YYY     -18.5811    XXZ      -7.5269    XYZ      -6.8307
       YYZ     -15.7758    XZZ      26.4523    YZZ       1.2414
       ZZZ     -32.5850
    Hexadecapole Moments (Debye-Ang^3)
      XXXX   -9660.9845   XXXY     -20.2595   XXYY   -2098.9366
      XYYY      35.0071   YYYY   -2568.7019   XXXZ     -13.1746
      XXYZ     -14.0559   XYYZ     -46.5083   YYYZ      43.3546
      XXZZ   -2019.3575   XYZZ      42.6494   YYZZ    -757.7765
      XZZZ     -76.8020   YZZZ     -22.7300   ZZZZ   -1943.0288
 -----------------------------------------------------------------
 Calculating analytic gradient of the SCF energy
 Gradient of SCF Energy
            1           2           3           4           5           6
    1  -0.0022108  -0.0103280   0.0130320   0.0042834  -0.0051843   0.0450169
    2  -0.0020873  -0.0058341  -0.0199091  -0.0041464  -0.0278152   0.0281899
    3  -0.0716452  -0.0253173   0.0264747   0.0571589  -0.0050275   0.0252023
            7           8           9          10          11          12
    1   0.0097386  -0.0189049   0.0038910  -0.0068076  -0.0249778  -0.0314952
    2   0.0328622   0.0287369   0.0456154  -0.0206306   0.0425276   0.0196515
    3  -0.0065706   0.0326229  -0.0446556   0.0030662   0.0079564   0.0101995
           13          14          15          16          17          18
    1  -0.0041922   0.0273703   0.0421302  -0.0529193   0.0187014   0.0224101
    2  -0.0276471  -0.0607167   0.0348007   0.1093815  -0.0439823  -0.0471190
    3   0.0171529  -0.0362746   0.1145982   0.0130679   0.0481826   0.0189048
           19          20          21          22          23          24
    1   0.0332288  -0.0032646  -0.0438086  -0.0528756   0.0641042   0.0021743
    2   0.0618334   0.0388005  -0.0041876  -0.0522336  -0.0551924  -0.0055757
    3  -0.0108287  -0.0363186  -0.0153771   0.0068414  -0.0208466  -0.0009949
           25          26          27          28          29          30
    1   0.0063138   0.0041025  -0.0045765   0.0044241  -0.0055438   0.0058689
    2   0.0033079  -0.0118276   0.0078189  -0.0071255  -0.0006531  -0.0004248
    3  -0.0012319   0.0046224   0.0069133   0.0006875   0.0122521  -0.0069629
           31          32          33          34          35          36
    1   0.0145838  -0.0437654  -0.0367643  -0.0037571   0.0347754   0.0364389
    2  -0.0008787  -0.0119081  -0.0320382  -0.0720063  -0.0374577   0.0191185
    3   0.0016464  -0.0310257  -0.0384266  -0.0187835  -0.0004614   0.0299364
           37          38          39          40          41          42
    1   0.0170545  -0.0105757  -0.0056987   0.0043885  -0.0100801  -0.0079370
    2   0.0606320   0.0308695   0.0116158   0.0028671  -0.0054412   0.0116957
    3   0.0347034  -0.0801872   0.0041262  -0.0062654  -0.0012081  -0.0055572
           43          44          45          46          47          48
    1  -0.0044885  -0.0026674  -0.0078087   0.0028739  -0.0063652  -0.0053660
    2  -0.0061949   0.0059423   0.0019864  -0.0010756  -0.0031604  -0.0037960
    3   0.0087851  -0.0052444   0.0099246  -0.0083441  -0.0103516  -0.0047573
           49          50          51          52          53          54
    1  -0.0026754  -0.0008636   0.0036702   0.0017898  -0.0004576  -0.0042787
    2   0.0044722   0.0025672  -0.0071260  -0.0067831   0.0008307  -0.0109742
    3  -0.0007793  -0.0023963   0.0047523   0.0051802   0.0038544  -0.0119059
           55          56
    1   0.0037975  -0.0055240
    2  -0.0019742  -0.0082012
    3  -0.0015916   0.0005242
 Max gradient component =       1.146E-01
 RMS gradient           =       2.768E-02
 Gradient time:  CPU 32.85 s  wall 0.70 s
 Geometry Optimization Parameters
   NAtoms,    NIC,     NZ,  NCons,   NDum,   NFix, NCnnct, MaxDiis
       56     458       0       9       0       0       0       0


** CONSTRAINED OPTIMIZATION IN DELOCALIZED INTERNAL COORDINATES **
   Searching for a Minimum

   Optimization Cycle:   1

                       Coordinates (Angstroms)
     ATOM                X               Y               Z
      1  O        -1.6230148731    1.7852558666    1.6560657751
      2  C        -1.8598187547    1.6588149020    0.4631940971
      3  C        -3.1746070568    1.1949359125   -0.1239522188
      4  C        -3.2548410179   -0.2641782375   -0.6018612692
      5  C        -2.0697781678   -1.1463518400   -0.2770770729
      6  O        -2.2038566625   -2.3526724977   -0.9033763463
      7  C        -1.1133046377   -3.2441103044   -0.6478730231
      8  C         0.1253911792   -2.7925817673   -1.4146068488
      9  O         1.1943835630   -2.5136246329   -0.4968406242
     10  C         1.8918445107   -1.3767561987   -0.7422325193
     11  C         3.0134880267   -1.1502937528    0.2433044252
     12  C         3.8417919893    0.1198771843    0.0006623618
     13  C         3.2287909177    1.1391153713   -0.9385318118
     14  O         2.9087152846    2.2794872230   -0.6357804088
     15  O        -0.9581207376    2.1105159556   -0.4396038566
     16  O         3.3764185132    0.8677741583   -2.2662814860
     17  O         1.5942283504   -0.6550923388   -1.6789631380
     18  C         3.0123278047    1.7252331504   -3.2845378542
     19  C         2.5325820502   -0.9201415025    1.6881703161
     20  C         3.6491073118   -1.2961019806    2.6592405283
     21  C         4.6355652884   -0.1751941560    2.4009051039
     22  C         3.8181883490    0.6929839144    1.4352244519
     23  O         2.4833579336    0.4776856163    1.8253188629
     24  H         3.6536608132   -2.0608830718    0.2030698692
     25  H         4.8760933051   -0.0867063834   -0.3528573017
     26  H         1.5992509486   -1.4696859754    1.9396201750
     27  H         3.2351905602   -1.1766995009    3.6863939091
     28  H         4.0591731854   -2.3229561960    2.5484344287
     29  H         4.8184018795    0.3574832248    3.3604660556
     30  H         5.6006253330   -0.4861770446    1.9453307818
     31  H         4.1749421700    1.7456400696    1.4780979441
     32  O        -1.0978083888   -0.8332594120    0.3999818945
     33  C         0.1179315726    2.8951439580   -0.1018947605
     34  C        -4.2939327123    1.1550674423    0.9481027265
     35  C        -5.6668239047    1.2397533213    0.2807082512
     36  C        -5.7614968683   -0.1348682224   -0.3445419909
     37  C        -4.4717117812   -0.7674173880    0.1863098909
     38  O        -4.2812433696   -0.1627399705    1.4401278583
     39  H        -3.4823597176    1.9464630120   -0.8857730463
     40  H        -3.3852649792   -0.2990843387   -1.7068891780
     41  H         0.7733142049    2.3538333355    0.6115003110
     42  H        -4.2035738455    1.9607389710    1.7096377664
     43  H        -6.4219994330    1.3079655258    1.0966215064
     44  H        -5.8076924912    2.0921095607   -0.4181331327
     45  H        -6.6532313350   -0.6518959690    0.0746356876
     46  H        -5.7991501876   -0.1502788235   -1.4554406375
     47  H        -4.5555129814   -1.8765919333    0.1861717911
     48  H        -0.2332894431    3.8388624008    0.3677700419
     49  H         0.6670576966    3.1577472912   -1.0272476975
     50  H         3.2378683572    1.2478049414   -4.2599917285
     51  H         3.5841481223    2.6747481525   -3.2101606038
     52  H         1.9228692348    1.9375001629   -3.2330068857
     53  H         0.4778058622   -3.6812523328   -1.9832014676
     54  H        -0.1192793394   -2.0464781045   -2.2033081111
     55  H        -1.4310552774   -4.2166053003   -1.0835093814
     56  H        -0.9366341424   -3.4398202559    0.4343039568
   Point Group: c1    Number of degrees of freedom:   162


   Energy is  -1510.148540413

              Constraints and their Current Values
                                        Value     Constraint
   Dihedral:        1   2   3   4     -101.695     -101.695
   Dihedral:        3   4   5   6     -172.361     -172.361
   Dihedral:        4   5   6   7      179.742      179.742
   Dihedral:        5   6   7   8      -73.421      -73.421
   Dihedral:        6   7   8   9      120.105      120.105
   Dihedral:        7   8   9  10     -135.976     -135.976
   Dihedral:        8   9  10  11     -179.139     -179.139
   Dihedral:        9  10  11  12      179.510      179.510
   Dihedral:       11  12  13  14      117.484      117.484

 Attempting to Generate Delocalized Internal Coordinates

   Using Lagrange Multiplier Algorithm


169 Hessian modes will be used to form the next step
  Hessian Eigenvalues:
    -0.977753   -0.977753   -0.977753   -0.977753   -0.977753   -0.977753
    -0.977753   -0.977753    0.045000    0.045000    0.045000    0.045000
     0.045000    0.045031    0.045294    0.045578    0.045603    0.046330
     0.048881    0.048887    0.053704    0.059972    0.059999    0.062678
     0.062814    0.067036    0.067082    0.067100    0.067585    0.067634
     0.071204    0.071931    0.073680    0.073902    0.075807    0.075968
     0.076944    0.076989    0.082497    0.082609    0.083505    0.083578
     0.084370    0.084434    0.084948    0.085781    0.086541    0.086996
     0.087199    0.087354    0.088736    0.088757    0.089036    0.089113
     0.089857    0.089858    0.093876    0.093968    0.096639    0.096646
     0.111518    0.111592    0.114644    0.114961    0.115899    0.116423
     0.116539    0.116961    0.117749    0.118830    0.119080    0.122513
     0.126716    0.130787    0.131106    0.132985    0.139237    0.140146
     0.160000    0.160000    0.160000    0.160000    0.160000    0.160000
     0.171425    0.171476    0.172087    0.172544    0.219309    0.219802
     0.239370    0.239430    0.244790    0.248741    0.249716    0.250000
     0.250000    0.250000    0.250000    0.250000    0.250000    0.250000
     0.250000    0.250000    0.258011    0.258619    0.267107    0.267214
     0.278576    0.279983    0.283032    0.283998    0.295328    0.295784
     0.298745    0.308054    0.310698    0.310863    0.313321    0.321960
     0.321974    0.321976    0.321981    0.322326    0.322588    0.322931
     0.323103    0.323238    0.323473    0.323540    0.323568    0.323579
     0.323584    0.323917    0.323991    0.324266    0.324338    0.324687
     0.324748    0.324796    0.324837    0.325054    0.326298    0.326853
     0.328554    0.369332    0.369662    0.384517    0.385307    0.401022
     0.407718    0.490861    0.502361    0.517903    0.523041    0.537337
     0.542699    0.931079    0.941950    0.942755    0.956675    1.022753
     1.022753    1.022753    1.022753    1.022753    1.022753    1.022753
     1.022753

 Minimum Search - Taking P-RFO Step
 Searching for Lamda that Maximizes Along the Constraint modes Only
 Value Taken    Lamda =   0.00110549
 Searching for Lamda that Minimizes Along All other modes
 Value Taken    Lamda =  -0.17655910
 Calculated Step too Large.  Step scaled by  0.511542
 Step Taken.  Stepsize is  0.300000

                             Maximum     Tolerance    Cnvgd?
         Gradient            0.108257       0.000300      NO
         Displacement        0.095416       0.001200      NO
         Energy change     *********       0.000001      NO


 New Cartesian Coordinates Obtained by Inverse Iteration

 Displacement from previous Coordinates is:  1.969170
 Adding empirical dispersion correction 
 ----------------------------------------------------------------
 Doing -D3(op) with
 s6 =   1.00000
 s8 =   0.78311
 a1 =   0.30000
 a2 =   4.25000
 n  =  10.00000
 -D3 energy without 3body term =     -0.0688401250 hartrees
 ----------------------------------------------------------------
             Standard Nuclear Orientation (Angstroms)
    I     Atom           X                Y                Z
 ----------------------------------------------------------------
    1      O      -1.7031440600     1.8151284905     1.6774329286
    2      C      -1.9558742035     1.6769236161     0.4715841759
    3      C      -3.2916273525     1.1951075413    -0.1051263589
    4      C      -3.3623124028    -0.2834114232    -0.5740432794
    5      C      -2.1325069038    -1.1407117998    -0.2524149994
    6      O      -2.2588640364    -2.3747738879    -0.8750279673
    7      C      -1.1307904617    -3.2504284096    -0.6272405487
    8      C       0.1278780497    -2.8116691973    -1.4143744704
    9      O       1.2188955170    -2.5129555378    -0.5088688705
   10      C       1.9226176758    -1.3588563273    -0.8045815541
   11      C       3.0625819612    -1.1494473366     0.1972734980
   12      C       3.9523740689     0.1137920666    -0.0205340339
   13      C       3.4160568409     1.1781653406    -0.9894440747
   14      O       3.1309216488     2.3455064739    -0.6829895184
   15      O      -1.0783601662     2.1106353490    -0.4932901410
   16      O       3.6295618253     0.8580232645    -2.3179648946
   17      O       1.6208427859    -0.6366498826    -1.7605275874
   18      C       3.3275441932     1.7805372440    -3.3345967842
   19      C       2.5422328500    -0.8990763584     1.6483317924
   20      C       3.6383888526    -1.3169506949     2.6572885037
   21      C       4.6800850937    -0.2121165729     2.4202068741
   22      C       3.9065983147     0.7000886766     1.4267977385
   23      O       2.5289492890     0.5284319597     1.7859275483
   24      H       3.6767462869    -2.0744734282     0.1711585731
   25      H       4.9844890970    -0.1316565496    -0.3447792074
   26      H       1.5838988698    -1.4132588677     1.8705841591
   27      H       3.2080992317    -1.1922247701     3.6717643899
   28      H       4.0147067290    -2.3524543880     2.5514171439
   29      H       4.8636043001     0.3147751672     3.3769735609
   30      H       5.6403520556    -0.5553694076     1.9889370821
   31      H       4.2907484845     1.7405318118     1.4758684835
   32      O      -1.1443032458    -0.7976890619     0.4109204701
   33      C       0.0194355875     2.9059962969    -0.1286087891
   34      C      -4.4073635253     1.1641306411     0.9969805825
   35      C      -5.8019457649     1.2307690654     0.3229575852
   36      C      -5.8929871449    -0.1748471805    -0.2948868987
   37      C      -4.5797475547    -0.8019477377     0.2457757547
   38      O      -4.3793058960    -0.1706945918     1.5160885194
   39      H      -3.6123199904     1.9272781810    -0.8751938204
   40      H      -3.5088672334    -0.3367155112    -1.6732331867
   41      H       0.6884051347     2.3667538359     0.5771103041
   42      H      -4.3072810409     1.9730487296     1.7506435004
   43      H      -6.5525066015     1.3103442118     1.1353646158
   44      H      -5.9473067662     2.0699374704    -0.3838540286
   45      H      -6.7753517635    -0.6954720502     0.1266472770
   46      H      -5.9352818797    -0.2023991756    -1.4009117955
   47      H      -4.6453142163    -1.9101876404     0.2664410293
   48      H      -0.3186123546     3.8495555838     0.3553433992
   49      H       0.5713515113     3.1737181959    -1.0505870312
   50      H       3.5693523517     1.3143575198    -4.3110957365
   51      H       3.9286932490     2.7108901290    -3.2259744136
   52      H       2.2467777958     2.0448699342    -3.3254883251
   53      H       0.4750018200    -3.7100903800    -1.9737692815
   54      H      -0.1129580573    -2.0685661954    -2.2055331638
   55      H      -1.4558437604    -4.2283409469    -1.0431659197
   56      H      -0.9313028759    -3.4238202929     0.4541835579
 ----------------------------------------------------------------
 Molecular Point Group                 C1    NOp =  1
 Largest Abelian Subgroup              C1    NOp =  1
 Nuclear Repulsion Energy =  3287.4195656905 hartrees
 There are      113 alpha and      113 beta electrons
 Applying Cartesian multipole field
    Component          Value
    ---------          -----
     (2,0,0)        1.00000E-12
     (0,2,0)        2.00000E-11
     (0,0,2)       -3.00000E-11
 Nucleus-field energy     =     0.0000000039 hartrees
 Requested basis set is STO-3G
 There are 86 shells and 176 basis functions
 A cutoff of  1.0D-12 yielded   2374 shell pairs
 There are     11560 function pairs
 Smallest overlap matrix eigenvalue = 2.02E-01
 Guess MOs from SCF MO coefficient file
 Reading MOs from coefficient file
 Reading MOs from coefficient file
 A restricted hybrid HF-DFT SCF calculation will be
 performed using Pulay DIIS extrapolation
 Exchange:     0.2000 Hartree-Fock + 0.0800 Slater + 0.7200 B88
 Correlation:  0.1900 VWN1RPA + 0.8100 LYP
 Using SG-1 standard quadrature grid
 Dispersion:   Grimme D3
 SCF converges when DIIS error is below 1.0E-08
 Geometry optimization detected.  Setting ReadMinima to 0
 Setting SaveMinima to 0
 using 48 threads for integral computing
 -------------------------------------------------------
 OpenMP Integral computing Module                
 Release: version 1.0, May 2013, Q-Chem Inc. Pittsburgh 
 -------------------------------------------------------
 -------------------------------------------------------
 OpenMP BLAS3 based DFT computing Module                
 Release: version 1.0, May 2013, Q-Chem Inc. Pittsburgh 
 -------------------------------------------------------
 ---------------------------------------
  Cycle       Energy         DIIS Error
 ---------------------------------------
    1   -1510.0363816296      3.50E-03
    2   -1510.2151488711      9.17E-04
    3   -1510.2108036452      1.38E-03
    4   -1510.2186860044      3.07E-04
    5   -1510.2191204677      6.03E-05
    6   -1510.2191374391      1.41E-05
    7   -1510.2191379921      1.04E-05
    8   -1510.2191384331      3.01E-06
    9   -1510.2191384767      5.66E-07
   10   -1510.2191384775      4.47E-07
   11   -1510.2191384783      1.29E-07
   12   -1510.2191384784      2.92E-08
   13   -1510.2191384784      1.06E-08
   14   -1510.2191384785      3.82E-09 Convergence criterion met
 ---------------------------------------
 SCF time:  CPU 101.44 s  wall 2.12 s
 SCF   energy in the final basis set = -1510.21913848
 Total energy in the final basis set = -1510.21913848
 
 --------------------------------------------------------------
 
                    Orbital Energies (a.u.)
 --------------------------------------------------------------
 
 Alpha MOs
 -- Occupied --
-18.945 -18.941 -18.919 -18.911 -18.893 -18.892 -18.875 -18.866
-18.848 -18.836 -10.107 -10.106 -10.096 -10.087 -10.086 -10.081
-10.066 -10.064 -10.060 -10.059 -10.056 -10.051 -10.037 -10.036
-10.036 -10.029 -10.014 -10.013 -10.012 -10.011  -1.038  -1.030
 -1.018  -1.012  -1.000  -0.999  -0.949  -0.942  -0.928  -0.919
 -0.772  -0.769  -0.739  -0.730  -0.724  -0.713  -0.704  -0.666
 -0.656  -0.630  -0.600  -0.584  -0.546  -0.544  -0.532  -0.532
 -0.521  -0.516  -0.492  -0.476  -0.468  -0.460  -0.457  -0.455
 -0.444  -0.436  -0.436  -0.415  -0.412  -0.410  -0.406  -0.402
 -0.398  -0.386  -0.377  -0.369  -0.365  -0.357  -0.355  -0.351
 -0.347  -0.344  -0.339  -0.333  -0.329  -0.323  -0.317  -0.313
 -0.306  -0.304  -0.302  -0.294  -0.293  -0.281  -0.273  -0.272
 -0.270  -0.253  -0.247  -0.232  -0.231  -0.222  -0.212  -0.191
 -0.171  -0.164  -0.156  -0.149  -0.148  -0.147  -0.141  -0.134
 -0.123
 -- Virtual --
  0.104   0.113   0.116   0.131   0.239   0.248   0.256   0.262
  0.296   0.301   0.312   0.317   0.322   0.335   0.344   0.351
  0.355   0.365   0.379   0.384   0.385   0.386   0.390   0.394
  0.395   0.402   0.404   0.408   0.410   0.415   0.416   0.419
  0.423   0.432   0.434   0.438   0.444   0.449   0.453   0.457
  0.458   0.461   0.463   0.472   0.475   0.479   0.484   0.484
  0.491   0.493   0.494   0.496   0.506   0.535   0.538   0.553
  0.554   0.566   0.567   0.670   0.671   0.676   0.687
 --------------------------------------------------------------
 
          Ground-State Mulliken Net Atomic Charges

     Atom                 Charge (a.u.)
  ----------------------------------------
      1 O                    -0.227687
      2 C                     0.230166
      3 C                    -0.082258
      4 C                    -0.079727
      5 C                     0.225520
      6 O                    -0.184638
      7 C                    -0.040269
      8 C                    -0.044235
      9 O                    -0.184339
     10 C                     0.228836
     11 C                    -0.080810
     12 C                    -0.078898
     13 C                     0.231896
     14 O                    -0.231388
     15 O                    -0.205160
     16 O                    -0.196198
     17 O                    -0.221883
     18 C                    -0.104113
     19 C                     0.034972
     20 C                    -0.142695
     21 C                    -0.145463
     22 C                     0.036215
     23 O                    -0.197749
     24 H                     0.085657
     25 H                     0.086389
     26 H                     0.093220
     27 H                     0.076662
     28 H                     0.071691
     29 H                     0.076639
     30 H                     0.070650
     31 H                     0.089268
     32 O                    -0.212856
     33 C                    -0.107599
     34 C                     0.037061
     35 C                    -0.144171
     36 C                    -0.144112
     37 C                     0.034039
     38 O                    -0.201196
     39 H                     0.084021
     40 H                     0.086272
     41 H                     0.101319
     42 H                     0.088961
     43 H                     0.075092
     44 H                     0.071914
     45 H                     0.075057
     46 H                     0.072064
     47 H                     0.083840
     48 H                     0.077987
     49 H                     0.093424
     50 H                     0.090314
     51 H                     0.081836
     52 H                     0.087846
     53 H                     0.081981
     54 H                     0.107057
     55 H                     0.090570
     56 H                     0.099007
  ----------------------------------------
  Sum of atomic charges =     0.000000

 -----------------------------------------------------------------
                    Cartesian Multipole Moments
 -----------------------------------------------------------------
    Charge (ESU x 10^10)
                 0.0000
    Dipole Moment (Debye)
         X       0.3329      Y      -2.5337      Z      -2.6986
       Tot       3.7165
    Quadrupole Moments (Debye-Ang)
        XX    -141.2015     XY      -3.9301     YY    -150.7409
        XZ       7.4105     YZ      -2.8259     ZZ    -161.3048
    Octopole Moments (Debye-Ang^2)
       XXX      16.4103    XXY       9.6736    XYY     -11.0351
       YYY     -19.5471    XXZ     -10.0537    XYZ      -8.8715
       YYZ     -15.3099    XZZ      29.5248    YZZ       1.9596
       ZZZ     -31.8970
    Hexadecapole Moments (Debye-Ang^3)
      XXXX  -10186.8896   XXXY     -44.1695   XXYY   -2200.7527
      XYYY       6.6892   YYYY   -2604.6442   XXXZ      75.3156
      XXYZ     -17.5300   XYYZ     -23.7386   YYYZ      51.7294
      XXZZ   -2114.3764   XYZZ      41.5353   YYZZ    -767.2428
      XZZZ      -2.9936   YZZZ     -18.7375   ZZZZ   -1977.5746
 -----------------------------------------------------------------
 Calculating analytic gradient of the SCF energy
 Gradient of SCF Energy
            1           2           3           4           5           6
    1  -0.0004464  -0.0093556   0.0114307   0.0029656  -0.0106366   0.0273617
    2  -0.0017504  -0.0054153  -0.0114517  -0.0016994  -0.0217301   0.0171859
    3  -0.0318585  -0.0341283   0.0124046   0.0369563  -0.0065408   0.0143373
            7           8           9          10          11          12
    1   0.0063442  -0.0114727   0.0009949  -0.0011261  -0.0154753  -0.0136901
    2   0.0212363   0.0260912   0.0232193  -0.0207018   0.0236941   0.0155940
    3  -0.0020521   0.0234000  -0.0312964   0.0117454   0.0047349   0.0036976
           13          14          15          16          17          18
    1  -0.0053603   0.0191103   0.0294783  -0.0305709   0.0077392   0.0159191
    2  -0.0339834  -0.0259604   0.0226183   0.0810720  -0.0227845  -0.0381607
    3   0.0076373  -0.0174819   0.0801949   0.0052312   0.0227554   0.0145802
           19          20          21          22          23          24
    1   0.0175833  -0.0001404  -0.0229347  -0.0385007   0.0384849   0.0008862
    2   0.0406491   0.0197328  -0.0009765  -0.0280891  -0.0332855  -0.0037763
    3  -0.0072668  -0.0222329  -0.0090407   0.0031244  -0.0112722  -0.0011328
           25          26          27          28          29          30
    1   0.0038732   0.0042590  -0.0031235   0.0023628  -0.0048975   0.0036124
    2   0.0038947  -0.0106322   0.0059846  -0.0043551  -0.0013027   0.0005444
    3  -0.0011672   0.0038161   0.0036380   0.0021343   0.0078193  -0.0043666
           31          32          33          34          35          36
    1   0.0131170  -0.0215381  -0.0285203   0.0005578   0.0207416   0.0197902
    2  -0.0023206  -0.0053767  -0.0217322  -0.0474697  -0.0183104   0.0089045
    3   0.0013891  -0.0147531  -0.0302463  -0.0058415  -0.0016026   0.0143687
           37          38          39          40          41          42
    1   0.0113997  -0.0069297  -0.0051011   0.0042816  -0.0053487  -0.0069117
    2   0.0364118   0.0191173   0.0088284   0.0022939  -0.0030201   0.0097300
    3   0.0248105  -0.0489273   0.0047316  -0.0040904   0.0002874  -0.0058244
           43          44          45          46          47          48
    1  -0.0017919  -0.0029403  -0.0047400   0.0017620  -0.0052966  -0.0029546
    2  -0.0046854   0.0037074   0.0024074  -0.0016785  -0.0020566  -0.0004581
    3   0.0059932  -0.0023135   0.0067973  -0.0047804  -0.0094283  -0.0023827
           49          50          51          52          53          54
    1  -0.0010092  -0.0006337   0.0026187  -0.0005444   0.0010806  -0.0034976
    2   0.0040264   0.0023423  -0.0030134  -0.0037361   0.0003362  -0.0108742
    3   0.0000268  -0.0026203   0.0021354   0.0024698   0.0024577  -0.0101124
           55          56
    1   0.0018744  -0.0041408
    2  -0.0012423  -0.0075929
    3  -0.0011423   0.0002283
 Max gradient component =       8.107E-02
 RMS gradient           =       1.790E-02
 Gradient time:  CPU 30.38 s  wall 0.64 s
 Geometry Optimization Parameters
   NAtoms,    NIC,     NZ,  NCons,   NDum,   NFix, NCnnct, MaxDiis
       56     458       0       9       0       0       0       0

 Cartesian Hessian Update
 Hessian Updated using BFGS Update


** CONSTRAINED OPTIMIZATION IN DELOCALIZED INTERNAL COORDINATES **
   Searching for a Minimum

   Optimization Cycle:   2

                       Coordinates (Angstroms)
     ATOM                X               Y               Z
      1  O        -1.7031440600    1.8151284905    1.6774329286
      2  C        -1.9558742035    1.6769236161    0.4715841759
      3  C        -3.2916273525    1.1951075413   -0.1051263589
      4  C        -3.3623124028   -0.2834114232   -0.5740432794
      5  C        -2.1325069038   -1.1407117998   -0.2524149994
      6  O        -2.2588640364   -2.3747738879   -0.8750279673
      7  C        -1.1307904617   -3.2504284096   -0.6272405487
      8  C         0.1278780497   -2.8116691973   -1.4143744704
      9  O         1.2188955170   -2.5129555378   -0.5088688705
     10  C         1.9226176758   -1.3588563273   -0.8045815541
     11  C         3.0625819612   -1.1494473366    0.1972734980
     12  C         3.9523740689    0.1137920666   -0.0205340339
     13  C         3.4160568409    1.1781653406   -0.9894440747
     14  O         3.1309216488    2.3455064739   -0.6829895184
     15  O        -1.0783601662    2.1106353490   -0.4932901410
     16  O         3.6295618253    0.8580232645   -2.3179648946
     17  O         1.6208427859   -0.6366498826   -1.7605275874
     18  C         3.3275441932    1.7805372440   -3.3345967842
     19  C         2.5422328500   -0.8990763584    1.6483317924
     20  C         3.6383888526   -1.3169506949    2.6572885037
     21  C         4.6800850937   -0.2121165729    2.4202068741
     22  C         3.9065983147    0.7000886766    1.4267977385
     23  O         2.5289492890    0.5284319597    1.7859275483
     24  H         3.6767462869   -2.0744734282    0.1711585731
     25  H         4.9844890970   -0.1316565496   -0.3447792074
     26  H         1.5838988698   -1.4132588677    1.8705841591
     27  H         3.2080992317   -1.1922247701    3.6717643899
     28  H         4.0147067290   -2.3524543880    2.5514171439
     29  H         4.8636043001    0.3147751672    3.3769735609
     30  H         5.6403520556   -0.5553694076    1.9889370821
     31  H         4.2907484845    1.7405318118    1.4758684835
     32  O        -1.1443032458   -0.7976890619    0.4109204701
     33  C         0.0194355875    2.9059962969   -0.1286087891
     34  C        -4.4073635253    1.1641306411    0.9969805825
     35  C        -5.8019457649    1.2307690654    0.3229575852
     36  C        -5.8929871449   -0.1748471805   -0.2948868987
     37  C        -4.5797475547   -0.8019477377    0.2457757547
     38  O        -4.3793058960   -0.1706945918    1.5160885194
     39  H        -3.6123199904    1.9272781810   -0.8751938204
     40  H        -3.5088672334   -0.3367155112   -1.6732331867
     41  H         0.6884051347    2.3667538359    0.5771103041
     42  H        -4.3072810409    1.9730487296    1.7506435004
     43  H        -6.5525066015    1.3103442118    1.1353646158
     44  H        -5.9473067662    2.0699374704   -0.3838540286
     45  H        -6.7753517635   -0.6954720502    0.1266472770
     46  H        -5.9352818797   -0.2023991756   -1.4009117955
     47  H        -4.6453142163   -1.9101876404    0.2664410293
     48  H        -0.3186123546    3.8495555838    0.3553433992
     49  H         0.5713515113    3.1737181959   -1.0505870312
     50  H         3.5693523517    1.3143575198   -4.3110957365
     51  H         3.9286932490    2.7108901290   -3.2259744136
     52  H         2.2467777958    2.0448699342   -3.3254883251
     53  H         0.4750018200   -3.7100903800   -1.9737692815
     54  H        -0.1129580573   -2.0685661954   -2.2055331638
     55  H        -1.4558437604   -4.2283409469   -1.0431659197
     56  H        -0.9313028759   -3.4238202929    0.4541835579
   Point Group: c1    Number of degrees of freedom:   162


   Energy is  -1510.219138478

              Constraints and their Current Values
                                        Value     Constraint
   Dihedral:        1   2   3   4     -101.679     -101.695
   Dihedral:        3   4   5   6     -172.330     -172.361
   Dihedral:        4   5   6   7      179.742      179.742
   Dihedral:        5   6   7   8      -73.403      -73.421
   Dihedral:        6   7   8   9      120.180      120.105
   Dihedral:        7   8   9  10     -135.952     -135.976
   Dihedral:        8   9  10  11     -179.118     -179.139
   Dihedral:        9  10  11  12      179.547      179.510
   Dihedral:       11  12  13  14      117.507      117.484
 Hessian Updated using BFGS Update

   Using Lagrange Multiplier Algorithm


157 Hessian modes will be used to form the next step
  Hessian Eigenvalues:
    -0.977753   -0.977753   -0.977753   -0.977753   -0.977753   -0.977753
    -0.977753   -0.967536    0.044481    0.045000    0.045028    0.045033
     0.045207    0.045575    0.045640    0.046336    0.048884    0.048919
     0.053581    0.059953    0.060016    0.062765    0.062920    0.066875
     0.067047    0.067102    0.067579    0.067626    0.071214    0.071701
     0.073680    0.073968    0.075552    0.075991    0.076732    0.077071
     0.082474    0.082606    0.083536    0.083590    0.084318    0.084636
     0.084677    0.086046    0.086526    0.086826    0.087140    0.087356
     0.088354    0.088820    0.089003    0.089151    0.089808    0.089881
     0.093913    0.093988    0.096640    0.096670    0.111542    0.111614
     0.114653    0.114888    0.115900    0.116341    0.116686    0.116944
     0.117812    0.117863    0.119085    0.122524    0.126682    0.130715
     0.131086    0.132325    0.137326    0.142483    0.159359    0.161142
     0.166508    0.171565    0.171886    0.173052    0.200033    0.219372
     0.228039    0.239374    0.239431    0.245078    0.248789    0.249717
     0.250000    0.256781    0.258122    0.264574    0.267187    0.268018
     0.278797    0.281278    0.283375    0.288228    0.295557    0.297105
     0.303067    0.308818    0.310348    0.312216    0.321172    0.321966
     0.321976    0.321978    0.322258    0.322519    0.322796    0.322944
     0.323172    0.323419    0.323522    0.323553    0.323569    0.323582
     0.323912    0.323949    0.324079    0.324306    0.324543    0.324706
     0.324740    0.324816    0.325015    0.326247    0.326843    0.328553
     0.335238    0.369352    0.369666    0.384789    0.400318    0.405751
     0.462049    0.491061    0.503471    0.520633    0.526348    0.539264
     0.567166    0.931720    0.942336    0.951789    0.959788    1.022753
     1.022753    1.022753    1.022753    1.022753    1.022753    1.022753
     1.096048

 Minimum Search - Taking P-RFO Step
 Searching for Lamda that Maximizes Along the Constraint modes Only
 Value Taken    Lamda =   0.00113525
 Searching for Lamda that Minimizes Along All other modes
 Value Taken    Lamda =  -0.10863855
 Calculated Step too Large.  Step scaled by  0.476482
 Step Taken.  Stepsize is  0.300000

                             Maximum     Tolerance    Cnvgd?
         Gradient            0.065295       0.000300      NO
         Displacement        0.126346       0.001200      NO
         Energy change     -0.070598       0.000001      NO


 New Cartesian Coordinates Obtained by Inverse Iteration

 Displacement from previous Coordinates is:  5.253530
 Adding empirical dispersion correction 
 ----------------------------------------------------------------
 Doing -D3(op) with
 s6 =   1.00000
 s8 =   0.78311
 a1 =   0.30000
 a2 =   4.25000
 n  =  10.00000
 -D3 energy without 3body term =     -0.0738955029 hartrees
 ----------------------------------------------------------------
             Standard Nuclear Orientation (Angstroms)
    I     Atom           X                Y                Z
 ----------------------------------------------------------------
    1      O      -1.3924147230     1.3923185017     1.8095501093
    2      C      -1.6488822129     1.3809763877     0.5863128888
    3      C      -3.0416649290     1.1158625329    -0.0450749976
    4      C      -3.2634125825    -0.3153475732    -0.6273311499
    5      C      -2.0947823475    -1.2845547199    -0.3371551676
    6      O      -2.2717764746    -2.4963552662    -1.0292820815
    7      C      -1.1379113866    -3.3638334904    -0.7209739560
    8      C       0.1417457017    -2.8631557750    -1.4599442232
    9      O       1.1852442898    -2.5370387653    -0.4949180896
   10      C       1.8221368241    -1.3249690831    -0.8117350011
   11      C       2.9324399614    -1.0280595470     0.2194122433
   12      C       3.7349256136     0.2943399439    -0.0240479040
   13      C       3.1188992042     1.2744719421    -1.0592722057
   14      O       2.7200418643     2.4359959807    -0.8212020108
   15      O      -0.7098961638     1.7429862720    -0.3816337304
   16      O       3.3848607352     0.8537717573    -2.3688098053
   17      O       1.4966643850    -0.6292279777    -1.7933436019
   18      C       2.9737460465     1.7457257195    -3.4111010013
   19      C       2.3597801122    -0.7744083818     1.6668533630
   20      C       3.4844576968    -1.0876958305     2.7052035667
   21      C       4.4579924750     0.0968808277     2.4417416085
   22      C       3.6245035188     0.9357165518     1.4094569911
   23      O       2.2371134828     0.6736493118     1.7633836188
   24      H       3.6088238192    -1.9054855876     0.2312879234
   25      H       4.7841129672     0.1103707073    -0.3262782735
   26      H       1.4299344878    -1.3381476805     1.8826987539
   27      H       3.0411984220    -0.9738831223     3.7112746916
   28      H       3.9322928854    -2.0931184122     2.6252259834
   29      H       4.6012683000     0.6638267976     3.3779417680
   30      H       5.4401552109    -0.1915134680     2.0284310317
   31      H       3.9178449221     2.0044934657     1.4234927408
   32      O      -1.0938209826    -1.0429755023     0.3673376536
   33      C       0.5080184516     2.3148992169     0.1121632429
   34      C      -4.1844000292     1.1415689919     1.0469051162
   35      C      -5.5534892213     1.4117044949     0.3363360082
   36      C      -5.7850476895     0.0528845884    -0.3884836305
   37      C      -4.5579425681    -0.7645373959     0.1433918734
   38      O      -4.3213623404    -0.2398559906     1.4798680928
   39      H      -3.2572381649     1.9229557565    -0.7713920178
   40      H      -3.3958466994    -0.2853511948    -1.7267224711
   41      H       1.0614492093     1.6057426563     0.7670369040
   42      H      -4.0038608885     1.8696690062     1.8627047051
   43      H      -6.3161924775     1.5283021031     1.1275946448
   44      H      -5.5757574046     2.3031131729    -0.3137155859
   45      H      -6.7305245546    -0.3932504978    -0.0332851731
   46      H      -5.7934409418     0.1066593706    -1.4909626956
   47      H      -4.7330919543    -1.8584305934     0.0974634574
   48      H       0.3132525734     3.2445873591     0.6917231742
   49      H       1.1304629962     2.5761994807    -0.7651662691
   50      H       3.2443387337     1.2752778696    -4.3766502567
   51      H       3.4863211870     2.7308781234    -3.3364742724
   52      H       1.8748303012     1.9171477988    -3.3938672492
   53      H       0.5413901164    -3.7378269279    -2.0231739634
   54      H      -0.0874035876    -2.1011719719    -2.2360858290
   55      H      -1.4238804915    -4.3428738841    -1.1601819403
   56      H      -0.9710934668    -3.5378668573     0.3653687653
 ----------------------------------------------------------------
 Molecular Point Group                 C1    NOp =  1
 Largest Abelian Subgroup              C1    NOp =  1
 Nuclear Repulsion Energy =  3357.8807422000 hartrees
 There are      113 alpha and      113 beta electrons
 Applying Cartesian multipole field
    Component          Value
    ---------          -----
     (2,0,0)        1.00000E-12
     (0,2,0)        2.00000E-11
     (0,0,2)       -3.00000E-11
 Nucleus-field energy     =    -0.0000000018 hartrees
 Requested basis set is STO-3G
 There are 86 shells and 176 basis functions
 A cutoff of  1.0D-12 yielded   2459 shell pairs
 There are     11945 function pairs
 Smallest overlap matrix eigenvalue = 2.07E-01
 Guess MOs from SCF MO coefficient file
 Reading MOs from coefficient file
 Reading MOs from coefficient file
 A restricted hybrid HF-DFT SCF calculation will be
 performed using Pulay DIIS extrapolation
 Exchange:     0.2000 Hartree-Fock + 0.0800 Slater + 0.7200 B88
 Correlation:  0.1900 VWN1RPA + 0.8100 LYP
 Using SG-1 standard quadrature grid
 Dispersion:   Grimme D3
 SCF converges when DIIS error is below 1.0E-08
 Geometry optimization detected.  Setting ReadMinima to 0
 Setting SaveMinima to 0
 using 48 threads for integral computing
 -------------------------------------------------------
 OpenMP Integral computing Module                
 Release: version 1.0, May 2013, Q-Chem Inc. Pittsburgh 
 -------------------------------------------------------
 -------------------------------------------------------
 OpenMP BLAS3 based DFT computing Module                
 Release: version 1.0, May 2013, Q-Chem Inc. Pittsburgh 
 -------------------------------------------------------
 ---------------------------------------
  Cycle       Energy         DIIS Error
 ---------------------------------------
    1   -1510.0122118382      7.57E-03
    2   -1510.2301564263      1.49E-03
    3   -1510.2206879785      2.15E-03
    4   -1510.2396708633      6.58E-04
    5   -1510.2415546169      1.28E-04
    6   -1510.2416208719      5.02E-05
    7   -1510.2416282315      3.20E-05
    8   -1510.2416325327      7.51E-06
    9   -1510.2416328056      1.79E-06
   10   -1510.2416328145      1.26E-06
   11   -1510.2416328220      2.53E-07
   12   -1510.2416328225      7.69E-08
   13   -1510.2416328225      2.24E-08
   14   -1510.2416328225      7.22E-09 Convergence criterion met
 ---------------------------------------
 SCF time:  CPU 106.34 s  wall 2.22 s
 SCF   energy in the final basis set = -1510.24163282
 Total energy in the final basis set = -1510.24163282
 
 --------------------------------------------------------------
 
                    Orbital Energies (a.u.)
 --------------------------------------------------------------
 
 Alpha MOs
 -- Occupied --
-18.944 -18.942 -18.932 -18.913 -18.887 -18.886 -18.875 -18.873
-18.872 -18.820 -10.106 -10.102 -10.102 -10.081 -10.077 -10.067
-10.066 -10.066 -10.066 -10.058 -10.049 -10.043 -10.042 -10.032
-10.021 -10.019 -10.019 -10.012 -10.008  -9.991  -1.033  -1.025
 -1.019  -0.998  -0.984  -0.978  -0.944  -0.942  -0.938  -0.896
 -0.775  -0.760  -0.734  -0.728  -0.718  -0.707  -0.697  -0.667
 -0.631  -0.622  -0.596  -0.578  -0.552  -0.540  -0.538  -0.526
 -0.522  -0.507  -0.489  -0.474  -0.464  -0.461  -0.451  -0.445
 -0.441  -0.435  -0.426  -0.420  -0.414  -0.407  -0.404  -0.397
 -0.383  -0.376  -0.373  -0.370  -0.363  -0.357  -0.351  -0.348
 -0.347  -0.338  -0.336  -0.330  -0.325  -0.321  -0.315  -0.308
 -0.304  -0.304  -0.299  -0.295  -0.289  -0.279  -0.272  -0.265
 -0.258  -0.255  -0.251  -0.241  -0.237  -0.228  -0.201  -0.192
 -0.173  -0.167  -0.162  -0.153  -0.149  -0.145  -0.141  -0.126
 -0.108
 -- Virtual --
  0.098   0.099   0.105   0.143   0.235   0.245   0.255   0.263
  0.280   0.296   0.302   0.310   0.315   0.328   0.338   0.341
  0.349   0.357   0.359   0.366   0.372   0.375   0.383   0.386
  0.387   0.395   0.399   0.403   0.408   0.413   0.414   0.419
  0.422   0.425   0.427   0.433   0.437   0.442   0.445   0.453
  0.454   0.458   0.463   0.468   0.473   0.479   0.482   0.485
  0.486   0.487   0.497   0.518   0.533   0.539   0.540   0.550
  0.551   0.553   0.563   0.648   0.653   0.655   0.689
 --------------------------------------------------------------
 
          Ground-State Mulliken Net Atomic Charges

     Atom                 Charge (a.u.)
  ----------------------------------------
      1 O                    -0.231447
      2 C                     0.216211
      3 C                    -0.082648
      4 C                    -0.079493
      5 C                     0.218933
      6 O                    -0.176430
      7 C                    -0.043542
      8 C                    -0.047762
      9 O                    -0.175361
     10 C                     0.222032
     11 C                    -0.080480
     12 C                    -0.078551
     13 C                     0.229695
     14 O                    -0.216227
     15 O                    -0.201898
     16 O                    -0.178565
     17 O                    -0.213671
     18 C                    -0.113520
     19 C                     0.033592
     20 C                    -0.142989
     21 C                    -0.145204
     22 C                     0.033232
     23 O                    -0.180460
     24 H                     0.087559
     25 H                     0.088155
     26 H                     0.100101
     27 H                     0.080056
     28 H                     0.074964
     29 H                     0.079390
     30 H                     0.073388
     31 H                     0.091900
     32 O                    -0.209144
     33 C                    -0.152696
     34 C                     0.032123
     35 C                    -0.144785
     36 C                    -0.144565
     37 C                     0.029877
     38 O                    -0.195451
     39 H                     0.081827
     40 H                     0.085176
     41 H                     0.100875
     42 H                     0.088600
     43 H                     0.074366
     44 H                     0.072274
     45 H                     0.074952
     46 H                     0.072194
     47 H                     0.082397
     48 H                     0.060223
     49 H                     0.107665
     50 H                     0.091068
     51 H                     0.084049
     52 H                     0.092278
     53 H                     0.079820
     54 H                     0.108096
     55 H                     0.088054
     56 H                     0.099764
  ----------------------------------------
  Sum of atomic charges =    -0.000000

 -----------------------------------------------------------------
                    Cartesian Multipole Moments
 -----------------------------------------------------------------
    Charge (ESU x 10^10)
                -0.0000
    Dipole Moment (Debye)
         X       1.7802      Y      -2.5328      Z      -2.5877
       Tot       4.0349
    Quadrupole Moments (Debye-Ang)
        XX    -140.0209     XY      -2.4751     YY    -152.8803
        XZ       8.1303     YZ      -1.9536     ZZ    -160.0858
    Octopole Moments (Debye-Ang^2)
       XXX      36.6695    XXY      19.5214    XYY      -4.3605
       YYY     -21.5550    XXZ      -5.5432    XYZ      -9.1070
       YYZ     -11.5354    XZZ      33.8059    YZZ       6.8350
       ZZZ     -30.0264
    Hexadecapole Moments (Debye-Ang^3)
      XXXX   -9248.2732   XXXY    -139.0582   XXYY   -1999.5982
      XYYY     -99.0082   YYYY   -2479.6876   XXXZ      69.2454
      XXYZ     -27.2283   XYYZ     -31.7782   YYYZ      -2.0666
      XXZZ   -1958.6106   XYZZ      -8.7479   YYZZ    -748.9458
      XZZZ     -31.2594   YZZZ     -83.9840   ZZZZ   -2052.1925
 -----------------------------------------------------------------
 Calculating analytic gradient of the SCF energy
 Gradient of SCF Energy
            1           2           3           4           5           6
    1   0.0031977  -0.0118698   0.0081841   0.0004935  -0.0053765   0.0161861
    2  -0.0023300  -0.0017046  -0.0090724  -0.0013231  -0.0191224   0.0052297
    3  -0.0110074  -0.0269280   0.0016009   0.0229224  -0.0067445  -0.0004414
            7           8           9          10          11          12
    1   0.0041326  -0.0086703  -0.0029785   0.0021186  -0.0076263  -0.0051520
    2   0.0210564   0.0334724   0.0041844  -0.0157294   0.0128421   0.0043935
    3   0.0106247   0.0141923  -0.0152706   0.0107696   0.0013669  -0.0010287
           13          14          15          16          17          18
    1  -0.0172692  -0.0241985   0.0282362  -0.0239382   0.0066624   0.0129427
    2  -0.0235296  -0.0058930   0.0061629   0.0433398  -0.0068589  -0.0243264
    3   0.0092296   0.0032002   0.0450057  -0.0006809   0.0046506   0.0122350
           19          20          21          22          23          24
    1   0.0044686   0.0012207  -0.0067198  -0.0276001   0.0183068   0.0007663
    2   0.0297599   0.0046412  -0.0008596  -0.0163033  -0.0124085  -0.0017084
    3  -0.0048075  -0.0123288  -0.0047162   0.0036974  -0.0087960  -0.0006424
           25          26          27          28          29          30
    1   0.0021382   0.0051219  -0.0023997   0.0011652  -0.0038916   0.0018548
    2   0.0030163  -0.0087197   0.0042796  -0.0020610  -0.0018430   0.0013003
    3  -0.0008727   0.0031069   0.0009740   0.0032335   0.0043365  -0.0021554
           31          32          33          34          35          36
    1   0.0112159  -0.0078285   0.0078703  -0.0013731   0.0109410   0.0085866
    2  -0.0019890   0.0005237  -0.0137402  -0.0283736  -0.0064140   0.0007584
    3   0.0005998  -0.0055124  -0.0236229   0.0007510  -0.0035330   0.0044543
           37          38          39          40          41          42
    1   0.0076108  -0.0017344  -0.0040617   0.0039410  -0.0027470  -0.0044684
    2   0.0162761   0.0134485   0.0062486   0.0016075  -0.0001153   0.0086291
    3   0.0183168  -0.0252330   0.0048200  -0.0020263  -0.0009669  -0.0051268
           43          44          45          46          47          48
    1  -0.0002950  -0.0026255  -0.0021214   0.0009752  -0.0035444   0.0004259
    2  -0.0038343   0.0024197   0.0024848  -0.0019297  -0.0000127   0.0018285
    3   0.0034804   0.0000321   0.0045939  -0.0022184  -0.0082121  -0.0007372
           49          50          51          52          53          54
    1   0.0126258  -0.0006252   0.0017034  -0.0009435   0.0005446  -0.0023071
    2   0.0008376   0.0016130  -0.0003042  -0.0010713  -0.0005783  -0.0094910
    3  -0.0049255  -0.0021123   0.0004064   0.0007642   0.0020734  -0.0104852
           55          56
    1   0.0008657  -0.0021369
    2  -0.0005548  -0.0081523
    3  -0.0006587   0.0003526
 Max gradient component =       4.501E-02
 RMS gradient           =       1.109E-02
 Gradient time:  CPU 30.64 s  wall 0.64 s
 Geometry Optimization Parameters
   NAtoms,    NIC,     NZ,  NCons,   NDum,   NFix, NCnnct, MaxDiis
       56     458       0       9       0       0       0       0

 Cartesian Hessian Update
 Hessian Updated using BFGS Update


** CONSTRAINED OPTIMIZATION IN DELOCALIZED INTERNAL COORDINATES **
   Searching for a Minimum

   Optimization Cycle:   3

                       Coordinates (Angstroms)
     ATOM                X               Y               Z
      1  O        -1.3924147230    1.3923185017    1.8095501093
      2  C        -1.6488822129    1.3809763877    0.5863128888
      3  C        -3.0416649290    1.1158625329   -0.0450749976
      4  C        -3.2634125825   -0.3153475732   -0.6273311499
      5  C        -2.0947823475   -1.2845547199   -0.3371551676
      6  O        -2.2717764746   -2.4963552662   -1.0292820815
      7  C        -1.1379113866   -3.3638334904   -0.7209739560
      8  C         0.1417457017   -2.8631557750   -1.4599442232
      9  O         1.1852442898   -2.5370387653   -0.4949180896
     10  C         1.8221368241   -1.3249690831   -0.8117350011
     11  C         2.9324399614   -1.0280595470    0.2194122433
     12  C         3.7349256136    0.2943399439   -0.0240479040
     13  C         3.1188992042    1.2744719421   -1.0592722057
     14  O         2.7200418643    2.4359959807   -0.8212020108
     15  O        -0.7098961638    1.7429862720   -0.3816337304
     16  O         3.3848607352    0.8537717573   -2.3688098053
     17  O         1.4966643850   -0.6292279777   -1.7933436019
     18  C         2.9737460465    1.7457257195   -3.4111010013
     19  C         2.3597801122   -0.7744083818    1.6668533630
     20  C         3.4844576968   -1.0876958305    2.7052035667
     21  C         4.4579924750    0.0968808277    2.4417416085
     22  C         3.6245035188    0.9357165518    1.4094569911
     23  O         2.2371134828    0.6736493118    1.7633836188
     24  H         3.6088238192   -1.9054855876    0.2312879234
     25  H         4.7841129672    0.1103707073   -0.3262782735
     26  H         1.4299344878   -1.3381476805    1.8826987539
     27  H         3.0411984220   -0.9738831223    3.7112746916
     28  H         3.9322928854   -2.0931184122    2.6252259834
     29  H         4.6012683000    0.6638267976    3.3779417680
     30  H         5.4401552109   -0.1915134680    2.0284310317
     31  H         3.9178449221    2.0044934657    1.4234927408
     32  O        -1.0938209826   -1.0429755023    0.3673376536
     33  C         0.5080184516    2.3148992169    0.1121632429
     34  C        -4.1844000292    1.1415689919    1.0469051162
     35  C        -5.5534892213    1.4117044949    0.3363360082
     36  C        -5.7850476895    0.0528845884   -0.3884836305
     37  C        -4.5579425681   -0.7645373959    0.1433918734
     38  O        -4.3213623404   -0.2398559906    1.4798680928
     39  H        -3.2572381649    1.9229557565   -0.7713920178
     40  H        -3.3958466994   -0.2853511948   -1.7267224711
     41  H         1.0614492093    1.6057426563    0.7670369040
     42  H        -4.0038608885    1.8696690062    1.8627047051
     43  H        -6.3161924775    1.5283021031    1.1275946448
     44  H        -5.5757574046    2.3031131729   -0.3137155859
     45  H        -6.7305245546   -0.3932504978   -0.0332851731
     46  H        -5.7934409418    0.1066593706   -1.4909626956
     47  H        -4.7330919543   -1.8584305934    0.0974634574
     48  H         0.3132525734    3.2445873591    0.6917231742
     49  H         1.1304629962    2.5761994807   -0.7651662691
     50  H         3.2443387337    1.2752778696   -4.3766502567
     51  H         3.4863211870    2.7308781234   -3.3364742724
     52  H         1.8748303012    1.9171477988   -3.3938672492
     53  H         0.5413901164   -3.7378269279   -2.0231739634
     54  H        -0.0874035876   -2.1011719719   -2.2360858290
     55  H        -1.4238804915   -4.3428738841   -1.1601819403
     56  H        -0.9710934668   -3.5378668573    0.3653687653
   Point Group: c1    Number of degrees of freedom:   162


   Energy is  -1510.241632822

              Constraints and their Current Values
                                        Value     Constraint
   Dihedral:        1   2   3   4     -101.691     -101.695
   Dihedral:        3   4   5   6     -172.381     -172.361
   Dihedral:        4   5   6   7      179.742      179.742
   Dihedral:        5   6   7   8      -73.458      -73.421
   Dihedral:        6   7   8   9      120.198      120.105
   Dihedral:        7   8   9  10     -136.041     -135.976
   Dihedral:        8   9  10  11     -179.114     -179.139
   Dihedral:        9  10  11  12      179.476      179.510
   Dihedral:       11  12  13  14      117.504      117.484
 Hessian Updated using BFGS Update

   Using Lagrange Multiplier Algorithm


160 Hessian modes will be used to form the next step
  Hessian Eigenvalues:
    -0.977754   -0.977753   -0.977753   -0.977753   -0.977753   -0.977753
    -0.977651   -0.746961    0.042814    0.045000    0.045024    0.045030
     0.045034    0.045279    0.045584    0.045891    0.046827    0.048751
     0.048894    0.052828    0.057611    0.059996    0.062704    0.062942
     0.065422    0.067049    0.067143    0.067408    0.067624    0.069153
     0.071358    0.073680    0.073958    0.075720    0.075993    0.077037
     0.077511    0.082245    0.082582    0.083455    0.083564    0.084374
     0.084658    0.085402    0.085823    0.086527    0.086966    0.087210
     0.087667    0.088810    0.088955    0.089016    0.089150    0.089725
     0.089915    0.093707    0.093933    0.096472    0.096642    0.108676
     0.111566    0.111631    0.114659    0.115269    0.115900    0.116471
     0.116745    0.117058    0.117851    0.119682    0.122353    0.123241
     0.126796    0.130950    0.131538    0.136067    0.141351    0.148681
     0.160005    0.161491    0.162038    0.171556    0.172111    0.173417
     0.181826    0.219375    0.230884    0.239373    0.239441    0.245664
     0.248963    0.249719    0.250000    0.252175    0.258064    0.261634
     0.267184    0.267552    0.278545    0.281220    0.283136    0.286985
     0.295526    0.297047    0.301508    0.308154    0.309800    0.310715
     0.316406    0.321735    0.321967    0.321977    0.321998    0.322274
     0.322556    0.322938    0.323058    0.323207    0.323454    0.323521
     0.323559    0.323582    0.323613    0.323910    0.323981    0.324174
     0.324310    0.324612    0.324725    0.324812    0.324978    0.326069
     0.326711    0.327504    0.328938    0.354263    0.369439    0.369988
     0.385633    0.400271    0.406140    0.459704    0.496693    0.513626
     0.521126    0.532674    0.539159    0.804071    0.929795    0.942378
     0.951118    0.954810    1.022753    1.022753    1.022753    1.022753
     1.022753    1.022753    1.023249    8.223373

 Minimum Search - Taking P-RFO Step
 Searching for Lamda that Maximizes Along the Constraint modes Only
 Value Taken    Lamda =   0.01463413
 Searching for Lamda that Minimizes Along All other modes
 Value Taken    Lamda =  -0.17329524
 Calculated Step too Large.  Step scaled by  0.541081
 Step Taken.  Stepsize is  0.300000

                             Maximum     Tolerance    Cnvgd?
         Gradient            0.603314       0.000300      NO
         Displacement        0.099134       0.001200      NO
         Energy change     -0.022494       0.000001      NO


 New Cartesian Coordinates Obtained by Inverse Iteration

 Displacement from previous Coordinates is:  3.279570
 Adding empirical dispersion correction 
 ----------------------------------------------------------------
 Doing -D3(op) with
 s6 =   1.00000
 s8 =   0.78311
 a1 =   0.30000
 a2 =   4.25000
 n  =  10.00000
 -D3 energy without 3body term =     -0.0701763039 hartrees
 ----------------------------------------------------------------
             Standard Nuclear Orientation (Angstroms)
    I     Atom           X                Y                Z
 ----------------------------------------------------------------
    1      O      -1.6148116976     1.5875499833     1.8320266466
    2      C      -1.8764448778     1.5340520682     0.6014811151
    3      C      -3.2618274146     1.1752169090    -0.0377238756
    4      C      -3.4000281463    -0.2875669924    -0.5961199577
    5      C      -2.1557579619    -1.1846739869    -0.2932592119
    6      O      -2.3004412689    -2.4237626570    -0.9903650216
    7      C      -1.1314859064    -3.2876919738    -0.7241662866
    8      C       0.1890869046    -2.8325054223    -1.4590593167
    9      O       1.2652573029    -2.5306003656    -0.5007895251
   10      C       1.9412809928    -1.3193746672    -0.8560639991
   11      C       3.0743503536    -1.0808915679     0.1882884371
   12      C       3.9426094739     0.2101780013    -0.0431270666
   13      C       3.3840584342     1.2131925186    -1.1125528706
   14      O       3.0171682073     2.4020331905    -0.9118591998
   15      O      -0.9745995862     1.9279343324    -0.4201349748
   16      O       3.6643133820     0.7021954008    -2.4093069566
   17      O       1.6387058870    -0.6025464338    -1.8438265209
   18      C       3.2597633389     1.6582807110    -3.4425811309
   19      C       2.4879256593    -0.8031469819     1.6430047330
   20      C       3.6035757238    -1.1748190198     2.6931351134
   21      C       4.6434023602    -0.0223845816     2.4346042631
   22      C       3.8489491001     0.8705886643     1.3955806381
   23      O       2.4251581511     0.6726378652     1.7439853627
   24      H       3.7091303478    -1.9852037535     0.2075815303
   25      H       4.9823935203    -0.0275411742    -0.3325008636
   26      H       1.5260155927    -1.3141625852     1.8416366450
   27      H       3.1668133225    -1.0516503937     3.6968304895
   28      H       4.0023748265    -2.1964446354     2.6045273671
   29      H       4.8164936560     0.5351388725     3.3670947990
   30      H       5.6078837402    -0.3579235914     2.0240565287
   31      H       4.1802043616     1.9262958923     1.4073238834
   32      O      -1.1503885936    -0.8889072241     0.4004696914
   33      C       0.2058847460     2.5713040518     0.1620275755
[...]
     15  O        -1.0384443385    1.9852841754   -0.3348496865
     16  O         4.0946917942    0.4585510300   -2.3683151052
     17  O         1.5589544317   -0.3055087624   -1.7937928201
     18  C         3.7849634774    1.1974079033   -3.6119688022
     19  C         2.3437519965   -0.8823815449    1.5811123317
     20  C         3.4602720926   -1.0527852557    2.6832653449
     21  C         4.2210825398    0.3229254903    2.5691931613
     22  C         3.4295009484    1.0112909991    1.3902697014
     23  O         2.0367966721    0.5643291363    1.6335301913
     24  H         3.6485054376   -1.9494644313    0.0939562664
     25  H         4.9169869733    0.0642703447    0.0258329047
     26  H         1.4214169256   -1.4784529341    1.7268238407
     27  H         3.0014101768   -1.1803183315    3.6764642299
     28  H         4.1128012652   -1.9173066415    2.4807630132
     29  H         4.1239199082    0.9139780718    3.4937932816
     30  H         5.2906905550    0.1996349715    2.3361149737
     31  H         3.4763477141    2.1166932939    1.3480217699
     32  O        -1.1032943345   -0.8942680786    0.3743060552
     33  C         0.3123052999    2.3612922719    0.1459375968
     34  C        -4.3845717828    1.1004860794    1.2828691230
     35  C        -5.7965108243    1.2735683770    0.5990336772
     36  C        -5.9364666098   -0.1037047722   -0.1507830144
     37  C        -4.6081342865   -0.8329759330    0.2962801219
     38  O        -4.3691386732   -0.3315683513    1.6670739954
     39  H        -3.5267452493    1.9911446218   -0.5819378164
     40  H        -3.6063915007   -0.1538969596   -1.5959187760
     41  H         0.7977560164    1.5499052117    0.7413158014
     42  H        -4.1955370655    1.7355873704    2.1698728463
     43  H        -6.5821097436    1.3967456248    1.3616115591
     44  H        -5.8284223360    2.1370604388   -0.0843125765
     45  H        -6.8182990334   -0.6662918255    0.1945056707
     46  H        -5.9969437394    0.0103722257   -1.2450627760
     47  H        -4.6504139352   -1.9396472329    0.2823958094
     48  H         0.2660727367    3.2819123512    0.7623245298
     49  H         0.9280622113    2.5561686974   -0.7527289979
     50  H         4.3039942992    0.6606408112   -4.4273261334
     51  H         4.1442399564    2.2458328889   -3.5665862360
     52  H         2.6931027749    1.2055755108   -3.8085551149
     53  H         0.5090558106   -3.3398766120   -2.5178802023
     54  H        -0.0702371370   -1.6461522840   -2.2615199995
     55  H        -1.4258900378   -4.1443965692   -1.4271991611
     56  H        -0.8340675795   -3.3173778083    0.0716475945
   Point Group: c1    Number of degrees of freedom:   162


   Energy is  -1510.296403654

              Constraints and their Current Values
                                        Value     Constraint
   Dihedral:        1   2   3   4     -101.695     -101.695
   Dihedral:        3   4   5   6     -172.361     -172.361
   Dihedral:        4   5   6   7      179.742      179.742
   Dihedral:        5   6   7   8      -73.421      -73.421
   Dihedral:        6   7   8   9      120.105      120.105
   Dihedral:        7   8   9  10     -135.976     -135.976
   Dihedral:        8   9  10  11     -179.139     -179.139
   Dihedral:        9  10  11  12      179.510      179.510
   Dihedral:       11  12  13  14      117.484      117.484
 Hessian Updated using BFGS Update

153 Hessian modes will be used to form the next step
  Hessian Eigenvalues:
     0.003645    0.008420    0.013066    0.020352    0.039199    0.045016
     0.045096    0.045222    0.045914    0.046971    0.047765    0.049964
     0.053961    0.054500    0.058896    0.060059    0.063369    0.066062
     0.066913    0.067510    0.067570    0.068040    0.071373    0.073638
     0.073991    0.075505    0.075679    0.078023    0.078364    0.079303
     0.082404    0.082948    0.083028    0.083872    0.084542    0.084991
     0.085843    0.086569    0.086872    0.087710    0.087838    0.088793
     0.088931    0.089375    0.089763    0.090398    0.091276    0.092546
     0.094027    0.094954    0.096631    0.096754    0.111427    0.111605
     0.114766    0.115871    0.116168    0.116753    0.117765    0.118424
     0.120455    0.121095    0.122629    0.123218    0.127296    0.130960
     0.132595    0.137872    0.151258    0.159279    0.159786    0.160465
     0.160552    0.161372    0.162304    0.169624    0.171882    0.173898
     0.206037    0.206865    0.227561    0.231917    0.239073    0.239832
     0.246026    0.247933    0.249104    0.250206    0.251717    0.253259
     0.256154    0.265879    0.266947    0.270278    0.275789    0.279848
     0.281476    0.285252    0.290929    0.293444    0.296258    0.300189
     0.304957    0.310194    0.312278    0.315585    0.319774    0.321822
     0.321967    0.322114    0.322376    0.322524    0.322802    0.323136
     0.323209    0.323348    0.323481    0.323528    0.323583    0.323641
     0.323855    0.324115    0.324250    0.324364    0.324622    0.324698
     0.324849    0.324999    0.325885    0.326969    0.327831    0.329033
     0.335612    0.344083    0.369414    0.371000    0.371705    0.382933
     0.395320    0.417583    0.461257    0.476392    0.502379    0.524918
     0.528517    0.539233    0.600973    0.926901    0.940441    0.941782
     0.952381    1.151908    8.903121

 Minimum Search - Taking Simple RFO Step
 Searching for Lamda that Minimizes Along All modes
 Value Taken    Lamda =   0.00000000
 Step Taken.  Stepsize is  0.006451

                             Maximum     Tolerance    Cnvgd?
         Gradient           0.000212      0.000300     YES
         Displacement       0.002232      0.001200      NO
         Energy change     -0.000001      0.000001     YES

 Final energy is   -1510.29640365392     


 ******************************
 **  OPTIMIZATION CONVERGED  **
 ******************************

                       Coordinates (Angstroms)
     ATOM                X               Y               Z
      1  O        -1.5103437750    1.5304870901    1.9551801969
      2  C        -1.8569066728    1.5615848886    0.7551440475
      3  C        -3.2720174379    1.2099839916    0.1561887527
      4  C        -3.3848177093   -0.2180931954   -0.5154996661
      5  C        -2.1154501381   -1.1118999557   -0.3260464665
      6  O        -2.2885787048   -2.2886566712   -1.1310103452
      7  C        -1.1091163470   -3.1742207577   -0.9961477658
      8  C         0.1522428171   -2.6123122490   -1.7578052234
      9  O         1.2236781059   -2.4118035481   -0.7522075494
     10  C         1.8863457539   -1.1631093241   -0.9420689052
     11  C         3.0074966090   -1.0515620740    0.1444637695
     12  C         3.8354760682    0.2909060077    0.0404358996
     13  C         3.5261135279    1.1467800149   -1.2437742637
     14  O         3.0459263080    2.2996734054   -1.2945342875
     15  O        -1.0384443385    1.9852841754   -0.3348496865
     16  O         4.0946917942    0.4585510300   -2.3683151052
     17  O         1.5589544317   -0.3055087624   -1.7937928201
     18  C         3.7849634774    1.1974079033   -3.6119688022
     19  C         2.3437519965   -0.8823815449    1.5811123317
     20  C         3.4602720926   -1.0527852557    2.6832653449
     21  C         4.2210825398    0.3229254903    2.5691931613
     22  C         3.4295009484    1.0112909991    1.3902697014
     23  O         2.0367966721    0.5643291363    1.6335301913
     24  H         3.6485054376   -1.9494644313    0.0939562664
     25  H         4.9169869733    0.0642703447    0.0258329047
     26  H         1.4214169256   -1.4784529341    1.7268238407
     27  H         3.0014101768   -1.1803183315    3.6764642299
     28  H         4.1128012652   -1.9173066415    2.4807630132
     29  H         4.1239199082    0.9139780718    3.4937932816
     30  H         5.2906905550    0.1996349715    2.3361149737
     31  H         3.4763477141    2.1166932939    1.3480217699
     32  O        -1.1032943345   -0.8942680786    0.3743060552
     33  C         0.3123052999    2.3612922719    0.1459375968
     34  C        -4.3845717828    1.1004860794    1.2828691230
     35  C        -5.7965108243    1.2735683770    0.5990336772
     36  C        -5.9364666098   -0.1037047722   -0.1507830144
     37  C        -4.6081342865   -0.8329759330    0.2962801219
     38  O        -4.3691386732   -0.3315683513    1.6670739954
     39  H        -3.5267452493    1.9911446218   -0.5819378164
     40  H        -3.6063915007   -0.1538969596   -1.5959187760
     41  H         0.7977560164    1.5499052117    0.7413158014
     42  H        -4.1955370655    1.7355873704    2.1698728463
     43  H        -6.5821097436    1.3967456248    1.3616115591
     44  H        -5.8284223360    2.1370604388   -0.0843125765
     45  H        -6.8182990334   -0.6662918255    0.1945056707
     46  H        -5.9969437394    0.0103722257   -1.2450627760
     47  H        -4.6504139352   -1.9396472329    0.2823958094
     48  H         0.2660727367    3.2819123512    0.7623245298
     49  H         0.9280622113    2.5561686974   -0.7527289979
     50  H         4.3039942992    0.6606408112   -4.4273261334
     51  H         4.1442399564    2.2458328889   -3.5665862360
     52  H         2.6931027749    1.2055755108   -3.8085551149
     53  H         0.5090558106   -3.3398766120   -2.5178802023
     54  H        -0.0702371370   -1.6461522840   -2.2615199995
     55  H        -1.4258900378   -4.1443965692   -1.4271991611
     56  H        -0.8340675795   -3.3173778083    0.0716475945

Z-matrix Print:
$molecule
0 1
O 
C  1 1.249927
O  2 1.436209 1 123.663906
C  3 1.481061 2 110.052164 1 0.117488 0
H  4 1.107877 3 105.098292 2 166.190089 0
H  4 1.111905 3 111.187567 2 47.963341 0
C  2 1.563994 1 128.725842 3 -179.541200 0
H  7 1.104772 2 108.327678 1 132.837846 0
C  4 1.576988 3 112.330145 2 -73.421042 0
H  9 1.111026 4 110.729618 3 -121.384133 0
H  9 1.112066 4 111.611916 3 0.066793 0
O  9 1.483039 4 107.370079 3 120.105031 0
C  12 1.426329 9 111.331108 4 -135.976049 0
O  13 1.252237 12 124.655055 9 4.044593 0
C  13 1.565240 12 107.624060 9 -179.138988 0
H  15 1.104388 13 109.029579 12 53.592859 0
C  15 1.580694 13 112.956630 12 179.509944 0
H  17 1.105099 15 109.835627 13 -128.979448 0
C  17 1.573983 15 114.365463 13 -8.621085 0
O  19 1.249928 17 127.603380 15 117.484037 0
O  19 1.435804 17 107.490392 15 -71.747867 0
C  21 1.479363 19 109.640306 17 177.791581 0
H  22 1.105586 21 106.213210 19 176.213256 0
H  22 1.109204 21 111.707303 19 56.641141 0
H  22 1.109447 21 111.019436 19 -64.749125 0
C  7 1.582180 2 113.987545 1 7.238385 0
H  26 1.104504 7 109.767963 2 128.465077 0
C  26 1.576359 7 115.253835 2 6.744804 0
O  28 1.249464 26 127.472136 7 -101.694977 0
O  28 1.427406 26 106.905853 7 80.726633 0
C  30 1.482249 28 110.495319 26 178.969350 0
H  31 1.106677 30 106.757003 28 173.109643 0
H  31 1.108879 30 110.665703 28 -68.198119 0
H  31 1.117357 30 112.615515 28 54.022896 0
C  17 1.582979 15 101.305538 13 113.787579 0
H  35 1.107201 17 114.264776 15 -152.370299 0
O  35 1.482760 17 104.099306 15 -31.998140 0
C  37 1.479845 35 95.396794 17 55.190055 0
H  38 1.107806 37 110.405470 35 -179.150661 0
C  35 1.578071 17 108.052080 15 76.500935 0
H  40 1.101629 35 112.196882 17 47.261885 0
H  40 1.101667 35 110.409319 17 168.884593 0
C  40 1.576206 35 101.108408 17 -73.088349 0
H  43 1.101482 40 111.554852 35 -119.138174 0
H  43 1.101907 40 112.683068 35 118.189883 0
C  26 1.587191 7 100.901152 2 -114.119704 0
H  46 1.107187 26 114.169658 7 152.216853 0
O  46 1.482778 26 104.079330 7 32.084296 0
C  48 1.479055 46 94.909440 26 -55.881182 0
H  49 1.107566 48 110.886520 46 -179.795335 0
C  46 1.578341 26 108.176012 7 -77.135209 0
H  51 1.101635 46 112.372224 26 -47.565373 0
H  51 1.101755 46 110.502413 26 -169.205117 0
C  51 1.574387 46 100.949120 26 72.875637 0
H  54 1.101525 51 111.633375 46 119.854493 0
H  54 1.101871 51 112.785935 46 -117.443345 0
$end

 
 --------------------------------------------------------------
 
                    Orbital Energies (a.u.)
 --------------------------------------------------------------
 
 Alpha MOs
 -- Occupied --
-18.941 -18.936 -18.922 -18.901 -18.900 -18.888 -18.882 -18.880
-18.865 -18.844 -10.109 -10.101 -10.095 -10.078 -10.075 -10.073
-10.064 -10.062 -10.056 -10.056 -10.049 -10.043 -10.037 -10.034
-10.023 -10.022 -10.021 -10.016 -10.013 -10.009  -1.023  -1.014
 -1.001  -0.980  -0.977  -0.963  -0.946  -0.939  -0.927  -0.906
 -0.767  -0.756  -0.729  -0.720  -0.712  -0.703  -0.693  -0.656
 -0.631  -0.619  -0.593  -0.577  -0.548  -0.540  -0.537  -0.529
 -0.515  -0.505  -0.484  -0.465  -0.459  -0.453  -0.450  -0.443
 -0.435  -0.433  -0.424  -0.411  -0.405  -0.402  -0.399  -0.387
 -0.379  -0.375  -0.370  -0.364  -0.355  -0.352  -0.349  -0.345
 -0.339  -0.337  -0.330  -0.327  -0.326  -0.321  -0.315  -0.315
 -0.306  -0.306  -0.303  -0.297  -0.292  -0.280  -0.275  -0.269
 -0.263  -0.257  -0.253  -0.247  -0.241  -0.228  -0.217  -0.191
 -0.175  -0.167  -0.164  -0.157  -0.154  -0.146  -0.139  -0.138
 -0.125
 -- Virtual --
  0.091   0.098   0.110   0.130   0.219   0.238   0.251   0.256
  0.268   0.279   0.287   0.293   0.302   0.312   0.328   0.332
  0.337   0.343   0.346   0.351   0.360   0.362   0.366   0.372
  0.377   0.381   0.394   0.398   0.404   0.407   0.412   0.416
  0.419   0.421   0.426   0.427   0.430   0.432   0.435   0.436
  0.437   0.439   0.449   0.449   0.464   0.467   0.468   0.472
  0.476   0.484   0.487   0.493   0.505   0.514   0.525   0.539
  0.549   0.551   0.557   0.638   0.647   0.653   0.677
 --------------------------------------------------------------
 
          Ground-State Mulliken Net Atomic Charges

     Atom                 Charge (a.u.)
  ----------------------------------------
      1 O                    -0.216713
      2 C                     0.211897
      3 C                    -0.081782
      4 C                    -0.077599
      5 C                     0.212972
      6 O                    -0.174261
      7 C                    -0.050047
      8 C                    -0.054065
      9 O                    -0.171059
     10 C                     0.221288
     11 C                    -0.077238
     12 C                    -0.081668
     13 C                     0.218776
     14 O                    -0.218116
     15 O                    -0.180366
     16 O                    -0.175850
     17 O                    -0.206471
     18 C                    -0.128521
     19 C                     0.028760
     20 C                    -0.143423
     21 C                    -0.142660
     22 C                     0.025940
     23 O                    -0.181047
     24 H                     0.088324
     25 H                     0.085153
     26 H                     0.097425
     27 H                     0.081768
     28 H                     0.074088
     29 H                     0.080708
     30 H                     0.073872
     31 H                     0.092552
     32 O                    -0.205238
     33 C                    -0.153293
     34 C                     0.024599
     35 C                    -0.143813
     36 C                    -0.144090
     37 C                     0.024876
     38 O                    -0.190075
     39 H                     0.082194
     40 H                     0.086279
     41 H                     0.111542
     42 H                     0.088426
     43 H                     0.076681
     44 H                     0.073042
     45 H                     0.076845
     46 H                     0.072840
     47 H                     0.082371
     48 H                     0.069662
     49 H                     0.089948
     50 H                     0.086281
     51 H                     0.087865
     52 H                     0.092195
     53 H                     0.084898
     54 H                     0.104834
     55 H                     0.090193
     56 H                     0.098305
  ----------------------------------------
  Sum of atomic charges =     0.000000

 -----------------------------------------------------------------
                    Cartesian Multipole Moments
 -----------------------------------------------------------------
    Charge (ESU x 10^10)
                 0.0000
    Dipole Moment (Debye)
         X       1.2522      Y      -2.6430      Z      -2.1314
       Tot       3.6189
    Quadrupole Moments (Debye-Ang)
        XX    -140.6587     XY      -3.6048     YY    -154.8663
        XZ       8.3875     YZ       1.6190     ZZ    -159.5405
    Octopole Moments (Debye-Ang^2)
       XXX      13.7910    XXY      16.7671    XYY      -6.2765
       YYY     -26.1469    XXZ      -3.2018    XYZ      -6.0258
       YYZ      -3.2494    XZZ      40.7288    YZZ      -3.0234
       ZZZ     -32.3551
    Hexadecapole Moments (Debye-Ang^3)
      XXXX   -9974.0002   XXXY    -123.1315   XXYY   -2097.8178
      XYYY     -66.6469   YYYY   -2266.6598   XXXZ     347.1421
      XXYZ     -51.1229   XYYZ      84.2143   YYYZ     -65.4865
      XXZZ   -2094.6659   XYZZ     -11.9269   YYZZ    -756.6326
      XZZZ     225.4729   YZZZ    -147.3460   ZZZZ   -2267.6999
 -----------------------------------------------------------------
Archival summary:
1\1\vega02.cac.cornell.edu\OPT\ProcedureUnspecified\STO-3G\102026\jj585\WedJan1700:21:402018WedJan1700:21:402018\0\\#,OPT,ProcedureUnspecified,STO-3G,\\0,1\O\C,1,1.24993\O,2,1.43621,1,123.664\C,3,1.48106,2,110.052,1,0.117488,0\H,4,1.10788,3,105.098,2,166.19,0\H,4,1.1119,3,111.188,2,47.9633,0\C,2,1.56399,1,128.726,3,-179.541,0\H,7,1.10477,2,108.328,1,132.838,0\C,4,1.57699,3,112.33,2,-73.421,0\H,9,1.11103,4,110.73,3,-121.384,0\H,9,1.11207,4,111.612,3,0.0667934,0\O,9,1.48304,4,107.37,3,120.105,0\C,12,1.42633,9,111.331,4,-135.976,0\O,13,1.25224,12,124.655,9,4.04459,0\C,13,1.56524,12,107.624,9,-179.139,0\H,15,1.10439,13,109.03,12,53.5929,0\C,15,1.58069,13,112.957,12,179.51,0\H,17,1.1051,15,109.836,13,-128.979,0\C,17,1.57398,15,114.365,13,-8.62108,0\O,19,1.24993,17,127.603,15,117.484,0\O,19,1.4358,17,107.49,15,-71.7479,0\C,21,1.47936,19,109.64,17,177.792,0\H,22,1.10559,21,106.213,19,176.213,0\H,22,1.1092,21,111.707,19,56.6411,0\H,22,1.10945,21,111.019,19,-64.7491,0\C,7,1.58218,2,113.988,1,7.23838,0\H,26,1.1045,7,109.768,2,128.465,0\C,26,1.57636,7,115.254,2,6.7448,0\O,28,1.24946,26,127.472,7,-101.695,0\O,28,1.42741,26,106.906,7,80.7266,0\C,30,1.48225,28,110.495,26,178.969,0\H,31,1.10668,30,106.757,28,173.11,0\H,31,1.10888,30,110.666,28,-68.1981,0\H,31,1.11736,30,112.616,28,54.0229,0\C,17,1.58298,15,101.306,13,113.788,0\H,35,1.1072,17,114.265,15,-152.37,0\O,35,1.48276,17,104.099,15,-31.9981,0\C,37,1.47984,35,95.3968,17,55.1901,0\H,38,1.10781,37,110.405,35,-179.151,0\C,35,1.57807,17,108.052,15,76.5009,0\H,40,1.10163,35,112.197,17,47.2619,0\H,40,1.10167,35,110.409,17,168.885,0\C,40,1.57621,35,101.108,17,-73.0883,0\H,43,1.10148,40,111.555,35,-119.138,0\H,43,1.10191,40,112.683,35,118.19,0\C,26,1.58719,7,100.901,2,-114.12,0\H,46,1.10719,26,114.17,7,152.217,0\O,46,1.48278,26,104.079,7,32.0843,0\C,48,1.47906,46,94.9094,26,-55.8812,0\H,49,1.10757,48,110.887,46,-179.795,0\C,46,1.57834,26,108.176,7,-77.1352,0\H,51,1.10163,46,112.372,26,-47.5654,0\H,51,1.10175,46,110.502,26,-169.205,0\C,51,1.57439,46,100.949,26,72.8756,0\H,54,1.10152,51,111.633,46,119.854,0\H,54,1.10187,51,112.786,46,-117.443,0\\\@

 Total job time:  59.65s(wall), 2842.20s(cpu) 
 Wed Jan 17 00:21:40 2018

        *************************************************************
        *                                                           *
        *  Thank you very much for using Q-Chem.  Have a nice day.  *
        *                                                           *
        *************************************************************


0 sent ACK to 0 
now end server 0 ... 
