mFile = /opt/software/qchem/qchem-5.0.1//bin/mpi/machines
Process 0 of 1 is on vega02.cac.cornell.edu - thread support 0
initial socket setup ...start
initial socket setup ...done 
now start server 0 ... 
vega02.cac.cornell.edu 10.84.3
Q-Chem Developer Version! Running on 10.84.3.*
                  Welcome to Q-Chem
     A Quantum Leap Into The Future Of Chemistry


 Q-Chem 5.0, Q-Chem, Inc., Pleasanton, CA (2017)

 Yihan Shao,  Zhengting Gan,  E. Epifanovsky,  A. T. B. Gilbert,  M. Wormit,  
 J. Kussmann,  A. W. Lange,  A. Behn,  Jia Deng,  Xintian Feng,  D. Ghosh,  
 M. Goldey,  P. R. Horn,  L. D. Jacobson,  I. Kaliman,  T. Kus,  A. Landau,  
 Jie Liu,  E. I. Proynov,  R. M. Richard,  R. P. Steele,  E. J. Sundstrom,  
 H. L. Woodcock III,  P. M. Zimmerman,  D. Zuev,  B. Albrecht,  E. Alguire,  
 S. A. Baeppler,  Z. Benda,  Y. A. Bernard,  E. J. Berquist,  K. B. Bravaya,  
 D. Casanova,  Chun-Min Chang,  Yunqing Chen,  A. Chien,  K. D. Closser,  
 M. P. Coons,  S. Dasgupta,  M. Diedenhofen,  Hainam Do,  R. G. Edgar,  
 Po-Tung Fang,  S. Fatehi,  Qingguo Feng,  Qinghui Ge,  A. Ghysels,  
 J. Gomes,  J. Gonthier,  A. Gunina,  M. W. D. Hanson-Heine,  
 P. H. P. Harbach,  A. W. Hauser,  J. E. Herr,  E. G. Hohenstein,  
 Z. C. Holden,  Kerwin Hui,  T.-C. Jagau,  Hyunjun Ji,  B. Kaduk,  
 K. Khistyaev,  Jaehoon Kim,  P. Klunzinger,  K. Koh,  D. Kosenkov,  
 T. Kowalczyk,  C. M. Krauter,  A. Kunitsa,  Ka Un Lao,  A. Laurent,  
 K. V. Lawler,  Joonho Lee,  D. Lefrancois,  S. Lehtola,  D. S. Levine,  
 Yi-Pei Li,  You-Sheng Lin,  Fenglai Liu,  E. Livshits,  A. Luenser,  
 P. Manohar,  E. Mansoor,  S. F. Manzer,  Shan-Ping Mao,  Yuezhi Mao,  
 N. Mardirossian,  A. V. Marenich,  L. A. Martinez-Martinez,  S. A. Maurer,  
 N. J. Mayhall,  S. C. McKenzie,  J.-M. Mewes,  A. F. Morrison,  K. Nanda,  
 T. S. Nguyen-Beck,  R. Olivares-Amaya,  J. A. Parkhill,  T. M. Perrine,  
 F. Plasser,  S. Prager,  A. Prociuk,  D. R. Rehn,  F. Rob,  M. Schneider,  
 N. Sergueev,  S. M. Sharada,  S. Sharma,  D. W. Small,  T. Stauch,  
 T. Stein,  Yu-Chuan Su,  A. J. W. Thom,  T. Tsuchimochi,  L. Vogt,  
 O. Vydrov,  M. A. Watson,  J. Wenzel,  M. de Wergifosse,  T. A. Wesolowski,  
 A. White,  J. Witte,  A. Yamada,  Jun Yang,  K. Yao,  S. Yeganeh,  
 S. R. Yost,  Zhi-Qiang You,  A. Zech,  Igor Ying Zhang,  Xing Zhang,  
 Yan Zhao,  Ying Zhu,  B. R. Brooks,  G. K. L. Chan,  C. J. Cramer,  
 M. S. Gordon,  W. J. Hehre,  A. Klamt,  M. W. Schmidt,  C. D. Sherrill,  
 D. G. Truhlar,  A. Aspuru-Guzik,  R. Baer,  A. T. Bell,  N. A. Besley,  
 Jeng-Da Chai,  A. Dreuw,  B. D. Dunietz,  T. R. Furlani,  Chao-Ping Hsu,  
 Yousung Jung,  Jing Kong,  D. S. Lambrecht,  WanZhen Liang,  C. Ochsenfeld,  
 V. A. Rassolov,  L. V. Slipchenko,  J. E. Subotnik,  T. Van Voorhis,  
 J. M. Herbert,  A. I. Krylov,  P. M. W. Gill,  M. Head-Gordon

 Contributors to earlier versions of Q-Chem not listed above: 
 R. D. Adamson,  B. Austin,  J. Baker,  G. J. O. Beran,  K. Brandhorst,  
 S. T. Brown,  E. F. C. Byrd,  A. K. Chakraborty,  C.-L. Cheng,  
 Siu Hung Chien,  D. M. Chipman,  D. L. Crittenden,  H. Dachsel,  
 R. A. DiStasio Jr.,  R. J. Doerksen,  A. D. Dutoi,  L. Fusti-Molnar,  
 W. A. Goddard III,  A. Golubeva-Zadorozhnaya,  S. R. Gwaltney,  G. Hawkins,  
 A. Heyden,  S. Hirata,  G. Kedziora,  F. J. Keil,  C. Kelley,  Jihan Kim,  
 R. A. King,  R. Z. Khaliullin,  P. P. Korambath,  W. Kurlancheek,  
 A. M. Lee,  M. S. Lee,  S. V. Levchenko,  Ching Yeh Lin,  D. Liotard,  
 R. C. Lochan,  I. Lotan,  P. E. Maslen,  N. Nair,  D. P. O'Neill,  
 D. Neuhauser,  E. Neuscamman,  C. M. Oana,  R. Olson,  B. Peters,  
 R. Peverati,  P. A. Pieniazek,  Y. M. Rhee,  J. Ritchie,  M. A. Rohrdanz,  
 E. Rosta,  N. J. Russ,  H. F. Schaefer III,  N. E. Schultz,  N. Shenvi,  
 A. C. Simmonett,  A. Sodt,  D. Stuck,  K. S. Thanthiriwatte,  V. Vanovschi,  
 Tao Wang,  A. Warshel,  C. F. Williams,  Q. Wu,  X. Xu,  W. Zhang

 Please cite Q-Chem as follows:
 Y. Shao et al., Mol. Phys. 113, 184-215 (2015)
 DOI: 10.1080/00268976.2014.952696

 Q-Chem 5.0.1 for Intel X86 EM64T Linux

 Parts of Q-Chem use Armadillo 5.200.1 (Boston Tea Smuggler).
 http://arma.sourceforge.net/

 Q-Chem begins on Wed Jan 17 04:51:33 2018  

Host: vega02.cac.cornell.edu
0

     Scratch files written to /scratch/jj585/SOT1001/1391r.save//
 Parallel job on  1  processors

Checking the input file for inconsistencies... 	...done.

--------------------------------------------------------------
User input:
--------------------------------------------------------------
$molecule
0  1
O 4.1246007929 -2.9362865706 -0.3059883035
C 4.1422005382 -1.7601039079 0.1168617068
C 4.358149832 -0.4596028718 -0.7352263168
C 3.087649126 0.4875301322 -0.8071568449
C 1.8646818847 -0.0759310464 -0.0018557314
O 1.051136549 0.9965868589 0.4547749758
C -0.0333311574 0.4843981466 1.3321851275
C -0.8844972738 1.7265232773 1.7933239185
O -2.3204809422 1.4604570834 1.5410853883
C -2.5679933853 1.4921998816 0.1304051431
C -4.0807217627 1.2038517445 -0.1585110903
C -4.2748002547 -0.0444482481 -1.1240046563
C -2.9763880985 -0.7782361151 -1.6114981259
O -2.7203264002 -1.0625100105 -2.8032995068
O 4.0418510394 -1.3961519435 1.5002710775
O -2.1571269903 -1.1790286181 -0.4993677488
O -1.6952149976 1.7584385918 -0.724751383
C -1.0938338593 -2.1101185352 -0.9685038568
C -4.9048806758 0.7385019057 1.1113090113
C -6.4441423204 0.833975197 0.7711925621
C -6.629552303 -0.419844152 -0.1616026459
C -5.1582174832 -0.9929241957 -0.194913874
O -4.6479138962 -0.7197921571 1.1665503465
H -4.5120747524 2.1120263216 -0.6188631167
H -4.8283040196 0.245454388 -2.0343720447
H -4.5926572248 1.2225114511 2.0557544466
H -7.0469309789 0.7468388997 1.689111891
H -6.7013874092 1.7802609884 0.2691249934
H -7.3176005159 -1.1564715943 0.2830303677
H -6.9963074783 -0.1553093103 -1.1662809844
H -5.0769986283 -2.0718347504 -0.4305537201
O 1.5944919561 -1.2876627086 0.1870808059
C 3.7469685978 -2.5990178328 2.3097214908
C 5.4173745868 0.5307282526 -0.0804005099
C 5.875468602 1.5657477694 -1.1828741875
C 4.6113637592 2.4995147687 -1.2677995559
C 3.6663049372 1.8303361213 -0.194403471
O 4.6035129557 1.3499804705 0.846420549
H 4.6691543203 -0.7784290753 -1.7455566686
H 2.7596204955 0.6327433503 -1.8538388443
H 4.5219534857 -3.382054941 2.1814937301
H 6.2383739197 0.028330332 0.4665208434
H 6.7644197064 2.1201270473 -0.8423600598
H 6.1104100362 1.076566386 -2.1415793696
H 4.8523966401 3.5343610532 -0.9772481132
H 4.1560020107 2.5107543321 -2.2709598808
H 2.8931083352 2.4891933322 0.2449090121
H 2.7612335965 -3.0302921161 2.0388316584
H 3.7284976787 -2.2632570163 3.3628541312
H -0.1317606397 -1.8383849315 -0.4794822699
H -1.0075547978 -2.0413932713 -2.0705370305
H -1.3732333595 -3.1444700294 -0.6855497337
H -0.7993193863 1.8975509471 2.8838856263
H -0.5363916639 2.6270890191 1.2422542684
H 0.4026810514 -0.0544516336 2.2002001867
H -0.7033076249 -0.2145772723 0.7829057103
$end

$rem
JOBTYPE                   OPT
METHOD                    B3LYP
DFT_D                     d3_op
BASIS                     STO-3G
GEOM_OPT_MAX_CYCLES       100
GEOM_OPT_TOL_GRADIENT     300
GEOM_OPT_TOL_DISPLACEMENT 1200
GEOM_OPT_TOL_ENERGY       100
SYMMETRY                  False
THRESH                    12
SCF_CONVERGENCE           8
MAX_SUB_FILE_NUM          128
MEM_STATIC                400
MEM_TOTAL                 4000
$end
--------------------------------------------------------------
 Adding empirical dispersion correction 
 ----------------------------------------------------------------
 Doing -D3(op) with
 s6 =   1.00000
 s8 =   0.78311
 a1 =   0.30000
 a2 =   4.25000
 n  =  10.00000
 -D3 energy without 3body term =     -0.0696821694 hartrees
 ----------------------------------------------------------------
             Standard Nuclear Orientation (Angstroms)
    I     Atom           X                Y                Z
 ----------------------------------------------------------------
    1      O       4.1578085084    -2.9048384362    -0.3693666858
    2      C       4.1637542243    -1.7308697607     0.0599114707
    3      C       4.3626224554    -0.4234055255    -0.7856532770
    4      C       3.0815149470     0.5099929084    -0.8484058682
    5      C       1.8674050984    -0.0713727375    -0.0424291206
    6      O       1.0435128402     0.9895580190     0.4226404979
    7      C      -0.0324444810     0.4605978246     1.3005772913
    8      C      -0.8958143562     1.6906819138     1.7712079053
    9      O      -2.3295634385     1.4101316076     1.5219696931
   10      C      -2.5818810148     1.4468700753     0.1122623140
   11      C      -4.0922398364     1.1433915711    -0.1735372828
   12      C      -4.2755757655    -0.1016654878    -1.1452975495
   13      C      -2.9706883847    -0.8183581987    -1.6408670455
   14      O      -2.7152804332    -1.0932411704    -2.8350093748
   15      O       4.0637752628    -1.3756428256     1.4456136656
   16      O      -2.1435292872    -1.2161550629    -0.5335175741
   17      O      -1.7148115572     1.7274348413    -0.7441206709
   18      C      -1.0715076792    -2.1328368179    -1.0110881301
   19      C      -4.9071793198     0.6619946519     1.0962509363
   20      C      -6.4484719017     0.7422955427     0.7614529334
   21      C      -6.6229752931    -0.5083638703    -0.1776670380
   22      C      -5.1455125417    -1.0649386570    -0.2187139798
   23      O      -4.6339450300    -0.7936480936     1.1426440908
   24      H      -4.5350556935     2.0492491066    -0.6275270342
   25      H      -4.8351306568     0.1870837826    -2.0523261711
   26      H      -4.5973300178     1.1442421308     2.0423781386
   27      H      -7.0473490470     0.6434624951     1.6807466781
   28      H      -6.7177445687     1.6884164992     0.2654176074
   29      H      -7.3014315693    -1.2549862171     0.2650303774
   30      H      -6.9958125927    -0.2423970425    -1.1797252196
   31      H      -5.0531274044    -2.1415760244    -0.4605560562
   32      O       1.6112174967    -1.2870375753     0.1406559653
   33      C       3.7847654158    -2.5861188394     2.2493258647
   34      C       5.4129126407     0.5749781177    -0.1286675220
   35      C       5.8560487700     1.6210333553    -1.2268307829
   36      C       4.5814431691     2.5412088349    -1.3026716016
   37      C       3.6472408859     1.8557382552    -0.2300525767
   38      O       4.5929920294     1.3800803406     0.8051862288
   39      H       4.6739263895    -0.7332255215    -1.7986896980
   40      H       2.7485866296     0.6573060418    -1.8932457819
   41      H       4.5679427486    -3.3598185596     2.1143701083
   42      H       6.2411409584     0.0787025818     0.4129181021
   43      H       6.7398962614     2.1833382564    -0.8860271283
   44      H       6.0933401577     1.1397464786    -2.1889468202
   45      H       4.8119492827     3.5770495397    -1.0071639216
   46      H       4.1228080477     2.5529110278    -2.3043343050
   47      H       2.8682094157     2.5035812551     0.2152907554
   48      H       2.8030011674    -3.0267807905     1.9791253707
   49      H       3.7659243116    -2.2563636653     3.3043478536
   50      H      -0.1109499263    -1.8531614727    -0.5235672092
   51      H      -0.9894861449    -2.0571183380    -2.1129880956
   52      H      -1.3385657512    -3.1717525266    -0.7329797583
   53      H      -0.8090751105     1.8566580022     2.8624268642
   54      H      -0.5594265445     2.5980526582     1.2240374543
   55      H       0.4122424435    -0.0781472645     2.1642457132
   56      H      -0.6963961128    -0.2427245251     0.7495338408
 ----------------------------------------------------------------
 Molecular Point Group                 C1    NOp =  1
 Largest Abelian Subgroup              C1    NOp =  1
 Nuclear Repulsion Energy =  3180.3709126487 hartrees
 There are      113 alpha and      113 beta electrons
 Requested basis set is STO-3G
 There are 86 shells and 176 basis functions

 Total QAlloc Memory Limit   4000 MB
 Mega-Array Size       392 MB
 MEM_STATIC part       400 MB
 A cutoff of  1.0D-12 yielded   2211 shell pairs
 There are     10389 function pairs
 
 -------------------------------------------------------
 OpenMP Integral Computing Module                       
 Release: version 1.0, May 2013, Q-Chem Inc. Pittsburgh 
 -------------------------------------------------------
 Integral Job Info:
 Integral job number is                      11
 Integral operator is                         1
 short-range coefficients                     0
 long-range coefficients              100000000
 Omega coefficients                           0
 if combine SR and LR in K                    0
 Integral screening is                        0
 Integral computing path is                   2
 max size of driver memory is            800000
 size of driver memory is                 45569
 size of scratch memory is              1046100
 max col of scratch BK array                289
 max len of scratch array in speh3           22
 max len of scratch index in speh4            8
 max int batch size is                      520
 min int batch size is                       52
 fixed nKL is                                52
 max L of basis functions is                  1
 order of int derivative is                   0
 number of shells is                         86
 number of basis is                         176
 number of cartesian basis is               176
 number of contracted shell pairs          2211
 number of primitive shell pairs          11314
 maxK2 (contraction) of shell pair            9
 max number of K2 of shell pair               1
 max number of CS2 of shell pair            347
 max number of PS2 of shell pair           1284
 mem total for path MDJ                   50314
 -------------------------------------------------------
 Smallest overlap matrix eigenvalue = 2.13E-01

 Scale SEOQF with 1.000000e-02/1.000000e-01/1.000000e-01

 Standard Electronic Orientation quadrupole field applied
 Nucleus-field energy     =     0.0000000138 hartrees
 Guess from superposition of atomic densities
 Warning:  Energy on first SCF cycle will be non-variational
 A restricted hybrid HF-DFT SCF calculation will be
 performed using Pulay DIIS extrapolation
 Exchange:     0.2000 Hartree-Fock + 0.0800 Slater + 0.7200 B88
 Correlation:  0.1900 VWN1RPA + 0.8100 LYP
 Using SG-1 standard quadrature grid
 Dispersion:   Grimme D3
 SCF converges when DIIS error is below 1.0E-08
 using 48 threads for integral computing
 -------------------------------------------------------
 OpenMP Integral computing Module                
 Release: version 1.0, May 2013, Q-Chem Inc. Pittsburgh 
 -------------------------------------------------------
 -------------------------------------------------------
 OpenMP BLAS3 based DFT computing Module                
 Release: version 1.0, May 2013, Q-Chem Inc. Pittsburgh 
 -------------------------------------------------------
 ---------------------------------------
  Cycle       Energy         DIIS Error
 ---------------------------------------
    1   -1507.6342376692      7.46E-02
    2   -1509.7489201344      1.03E-02
    3   -1507.5201937003      2.64E-02
    4   -1510.1919231902      4.54E-03
    5   -1510.2768683420      1.43E-03
    6   -1510.2855179876      3.74E-04
    7   -1510.2860530464      1.60E-04
    8   -1510.2861595845      3.60E-05
    9   -1510.2861646371      1.32E-05
   10   -1510.2861653022      5.89E-06
   11   -1510.2861654510      1.45E-06
   12   -1510.2861654601      2.88E-07
   13   -1510.2861654604      1.42E-07
   14   -1510.2861654605      6.78E-08
   15   -1510.2861654604      1.50E-08
   16   -1510.2861654605      5.60E-09 Convergence criterion met
 ---------------------------------------
 SCF time:  CPU 132.93 s  wall 2.82 s
 SCF   energy in the final basis set = -1510.28616546
 Total energy in the final basis set = -1510.28616546
 
 --------------------------------------------------------------
 
                    Orbital Energies (a.u.)
 --------------------------------------------------------------
 
 Alpha MOs
 -- Occupied --
-18.946 -18.938 -18.928 -18.922 -18.889 -18.886 -18.884 -18.875
-18.873 -18.863 -10.110 -10.102 -10.097 -10.090 -10.078 -10.071
-10.061 -10.059 -10.059 -10.058 -10.055 -10.041 -10.040 -10.038
-10.038 -10.033 -10.022 -10.020 -10.019 -10.018  -1.023  -1.015
 -1.004  -0.999  -0.971  -0.969  -0.945  -0.939  -0.931  -0.925
 -0.764  -0.762  -0.729  -0.722  -0.715  -0.706  -0.695  -0.653
 -0.649  -0.618  -0.598  -0.582  -0.546  -0.545  -0.538  -0.536
 -0.518  -0.512  -0.489  -0.473  -0.468  -0.462  -0.446  -0.442
 -0.434  -0.432  -0.429  -0.413  -0.409  -0.405  -0.403  -0.400
 -0.391  -0.383  -0.370  -0.367  -0.363  -0.358  -0.348  -0.344
 -0.343  -0.340  -0.336  -0.331  -0.329  -0.323  -0.321  -0.312
 -0.308  -0.305  -0.304  -0.300  -0.299  -0.290  -0.282  -0.276
 -0.272  -0.261  -0.256  -0.244  -0.242  -0.235  -0.233  -0.184
 -0.180  -0.171  -0.166  -0.160  -0.158  -0.150  -0.144  -0.143
 -0.141
 -- Virtual --
  0.088   0.092   0.106   0.113   0.218   0.241   0.245   0.248
  0.258   0.270   0.282   0.286   0.308   0.309   0.324   0.328
  0.333   0.337   0.343   0.347   0.354   0.359   0.362   0.367
  0.371   0.377   0.382   0.393   0.399   0.403   0.411   0.411
  0.413   0.415   0.421   0.428   0.431   0.433   0.440   0.442
  0.444   0.448   0.449   0.450   0.455   0.455   0.459   0.470
  0.470   0.484   0.487   0.490   0.504   0.508   0.509   0.534
  0.536   0.553   0.555   0.629   0.635   0.642   0.653
 --------------------------------------------------------------
 
          Ground-State Mulliken Net Atomic Charges

     Atom                 Charge (a.u.)
  ----------------------------------------
      1 O                    -0.215316
      2 C                     0.211759
      3 C                    -0.080904
      4 C                    -0.077308
      5 C                     0.221425
      6 O                    -0.165065
      7 C                    -0.052916
      8 C                    -0.047717
      9 O                    -0.168645
     10 C                     0.211506
     11 C                    -0.078702
     12 C                    -0.078893
     13 C                     0.209157
     14 O                    -0.211792
     15 O                    -0.171873
     16 O                    -0.175650
     17 O                    -0.215498
     18 C                    -0.150389
     19 C                     0.024037
     20 C                    -0.144502
     21 C                    -0.143638
     22 C                     0.025974
     23 O                    -0.186653
     24 H                     0.085590
     25 H                     0.085949
     26 H                     0.091868
     27 H                     0.078002
     28 H                     0.073100
     29 H                     0.078273
     30 H                     0.074328
     31 H                     0.083151
     32 O                    -0.216572
     33 C                    -0.128621
     34 C                     0.026381
     35 C                    -0.144114
     36 C                    -0.144047
     37 C                     0.023863
     38 O                    -0.187985
     39 H                     0.084209
     40 H                     0.088620
     41 H                     0.087390
     42 H                     0.084155
     43 H                     0.077516
     44 H                     0.073977
     45 H                     0.077775
     46 H                     0.074049
     47 H                     0.090554
     48 H                     0.090924
     49 H                     0.087324
     50 H                     0.102324
     51 H                     0.097025
     52 H                     0.079873
     53 H                     0.092210
     54 H                     0.098201
     55 H                     0.088119
     56 H                     0.108193
  ----------------------------------------
  Sum of atomic charges =     0.000000

 -----------------------------------------------------------------
                    Cartesian Multipole Moments
 -----------------------------------------------------------------
    Charge (ESU x 10^10)
                -0.0000
    Dipole Moment (Debye)
         X      -1.1638      Y       2.1307      Z       0.7428
       Tot       2.5389
    Quadrupole Moments (Debye-Ang)
        XX    -142.3822     XY       0.6184     YY    -161.2107
        XZ      -3.0568     YZ      -3.3100     ZZ    -161.9442
    Octopole Moments (Debye-Ang^2)
       XXX     -55.5602    XXY      27.4366    XYY     -20.8914
       YYY       0.6749    XXZ     -32.1619    XYZ     -29.5004
       YYZ      16.5897    XZZ      31.1164    YZZ      -2.5674
       ZZZ      36.6036
    Hexadecapole Moments (Debye-Ang^3)
      XXXX  -14226.2941   XXXY     -59.7946   XXYY   -2910.6783
      XYYY      48.7590   YYYY   -2237.2037   XXXZ      32.8989
      XXYZ     -94.0774   XYYZ      69.0832   YYYZ     -10.2354
      XXZZ   -2789.6848   XYZZ     -82.6053   YYZZ    -608.7317
      XZZZ      -4.7733   YZZZ     -15.3313   ZZZZ   -1473.2520
 -----------------------------------------------------------------
 Calculating analytic gradient of the SCF energy
 Gradient of SCF Energy
            1           2           3           4           5           6
    1  -0.0000718   0.0000846  -0.0000953   0.0003024   0.0012155  -0.0016011
    2   0.0000060  -0.0000135   0.0001167  -0.0000579   0.0003000  -0.0003479
    3  -0.0000310  -0.0000218   0.0000271   0.0002654   0.0016181  -0.0021292
            7           8           9          10          11          12
    1  -0.0012252   0.0005469   0.0007490   0.0008843  -0.0008784  -0.0000258
    2  -0.0003551   0.0046122  -0.0038362  -0.0041985   0.0032226   0.0004851
    3  -0.0012491   0.0013985   0.0001393  -0.0004796   0.0011945  -0.0009437
           13          14          15          16          17          18
    1   0.0004499  -0.0003065   0.0000446  -0.0000162   0.0000057  -0.0000008
    2   0.0007613  -0.0006074  -0.0000480   0.0000316  -0.0000221  -0.0000067
    3   0.0001128   0.0000445  -0.0000015  -0.0000019   0.0000324  -0.0000491
           19          20          21          22          23          24
    1  -0.0001146   0.0000698   0.0000065  -0.0000144   0.0000075  -0.0000129
    2   0.0000331   0.0000394   0.0000023  -0.0000086  -0.0000177  -0.0000156
    3  -0.0000178   0.0000194  -0.0000013  -0.0000147   0.0000481   0.0000433
           25          26          27          28          29          30
    1  -0.0000160   0.0000416   0.0000221  -0.0000327  -0.0000130  -0.0000028
    2   0.0000128  -0.0000182  -0.0000593   0.0000153   0.0000064   0.0000198
    3   0.0000141   0.0000036   0.0000004   0.0000384   0.0000079   0.0000064
           31          32          33          34          35          36
    1   0.0000167  -0.0000255  -0.0000075  -0.0000060   0.0000649  -0.0000723
    2   0.0000035  -0.0000018   0.0000321   0.0000812  -0.0000795   0.0000037
    3   0.0000210  -0.0000121  -0.0000356  -0.0000116  -0.0000168   0.0000268
           37          38          39          40          41          42
    1  -0.0000062   0.0000639   0.0000289  -0.0000647   0.0000078  -0.0000148
    2  -0.0000076  -0.0000460   0.0000043  -0.0000073  -0.0000211  -0.0000024
    3  -0.0000744   0.0000354  -0.0000108   0.0000075   0.0000078   0.0000085
           43          44          45          46          47          48
    1  -0.0000167   0.0000149   0.0000074  -0.0000087  -0.0000047   0.0000038
    2   0.0000016   0.0000285   0.0000072   0.0000053   0.0000009  -0.0000178
    3   0.0000234  -0.0000085  -0.0000042   0.0000003  -0.0000044  -0.0000262
           49          50          51          52          53          54
    1  -0.0000037   0.0000062  -0.0000142  -0.0000073  -0.0000008   0.0000198
    2  -0.0000134   0.0000068   0.0000086   0.0000027  -0.0000181  -0.0000015
    3  -0.0000104   0.0000185  -0.0000003  -0.0000120   0.0000084   0.0000186
           55          56
    1   0.0000072   0.0000090
    2  -0.0000066  -0.0000154
    3  -0.0000134  -0.0000091
 Max gradient component =       4.612E-03
 RMS gradient           =       7.210E-04
 Gradient time:  CPU 33.31 s  wall 0.71 s
 Geometry Optimization Parameters
   NAtoms,    NIC,     NZ,  NCons,   NDum,   NFix, NCnnct, MaxDiis
       56     458       0       0       0       0       0       0


** GEOMETRY OPTIMIZATION IN DELOCALIZED INTERNAL COORDINATES **
   Searching for a Minimum

   Optimization Cycle:   1

                       Coordinates (Angstroms)
     ATOM                X               Y               Z
      1  O         4.1578085084   -2.9048384362   -0.3693666858
      2  C         4.1637542243   -1.7308697607    0.0599114707
      3  C         4.3626224554   -0.4234055255   -0.7856532770
      4  C         3.0815149470    0.5099929084   -0.8484058682
      5  C         1.8674050984   -0.0713727375   -0.0424291206
      6  O         1.0435128402    0.9895580190    0.4226404979
      7  C        -0.0324444810    0.4605978246    1.3005772913
      8  C        -0.8958143562    1.6906819138    1.7712079053
      9  O        -2.3295634385    1.4101316076    1.5219696931
     10  C        -2.5818810148    1.4468700753    0.1122623140
     11  C        -4.0922398364    1.1433915711   -0.1735372828
     12  C        -4.2755757655   -0.1016654878   -1.1452975495
     13  C        -2.9706883847   -0.8183581987   -1.6408670455
     14  O        -2.7152804332   -1.0932411704   -2.8350093748
     15  O         4.0637752628   -1.3756428256    1.4456136656
     16  O        -2.1435292872   -1.2161550629   -0.5335175741
     17  O        -1.7148115572    1.7274348413   -0.7441206709
     18  C        -1.0715076792   -2.1328368179   -1.0110881301
     19  C        -4.9071793198    0.6619946519    1.0962509363
     20  C        -6.4484719017    0.7422955427    0.7614529334
     21  C        -6.6229752931   -0.5083638703   -0.1776670380
     22  C        -5.1455125417   -1.0649386570   -0.2187139798
     23  O        -4.6339450300   -0.7936480936    1.1426440908
     24  H        -4.5350556935    2.0492491066   -0.6275270342
     25  H        -4.8351306568    0.1870837826   -2.0523261711
     26  H        -4.5973300178    1.1442421308    2.0423781386
     27  H        -7.0473490470    0.6434624951    1.6807466781
     28  H        -6.7177445687    1.6884164992    0.2654176074
     29  H        -7.3014315693   -1.2549862171    0.2650303774
     30  H        -6.9958125927   -0.2423970425   -1.1797252196
     31  H        -5.0531274044   -2.1415760244   -0.4605560562
     32  O         1.6112174967   -1.2870375753    0.1406559653
     33  C         3.7847654158   -2.5861188394    2.2493258647
     34  C         5.4129126407    0.5749781177   -0.1286675220
     35  C         5.8560487700    1.6210333553   -1.2268307829
     36  C         4.5814431691    2.5412088349   -1.3026716016
     37  C         3.6472408859    1.8557382552   -0.2300525767
     38  O         4.5929920294    1.3800803406    0.8051862288
     39  H         4.6739263895   -0.7332255215   -1.7986896980
     40  H         2.7485866296    0.6573060418   -1.8932457819
     41  H         4.5679427486   -3.3598185596    2.1143701083
     42  H         6.2411409584    0.0787025818    0.4129181021
     43  H         6.7398962614    2.1833382564   -0.8860271283
     44  H         6.0933401577    1.1397464786   -2.1889468202
     45  H         4.8119492827    3.5770495397   -1.0071639216
     46  H         4.1228080477    2.5529110278   -2.3043343050
     47  H         2.8682094157    2.5035812551    0.2152907554
     48  H         2.8030011674   -3.0267807905    1.9791253707
     49  H         3.7659243116   -2.2563636653    3.3043478536
     50  H        -0.1109499263   -1.8531614727   -0.5235672092
     51  H        -0.9894861449   -2.0571183380   -2.1129880956
     52  H        -1.3385657512   -3.1717525266   -0.7329797583
     53  H        -0.8090751105    1.8566580022    2.8624268642
     54  H        -0.5594265445    2.5980526582    1.2240374543
     55  H         0.4122424435   -0.0781472645    2.1642457132
     56  H        -0.6963961128   -0.2427245251    0.7495338408
   Point Group: c1    Number of degrees of freedom:   162


   Energy is  -1510.286165460


 Attempting to Generate Delocalized Internal Coordinates

162 Hessian modes will be used to form the next step
  Hessian Eigenvalues:
     0.002000    0.002000    0.002000    0.002000    0.002000    0.002679
     0.002681    0.003851    0.004267    0.004301    0.004308    0.004320
     0.004637    0.004792    0.005123    0.006811    0.006822    0.010581
     0.011148    0.011336    0.012801    0.021697    0.021735    0.025917
     0.026028    0.030823    0.030922    0.035503    0.035573    0.040555
     0.041267    0.041441    0.041547    0.045010    0.046519    0.047668
     0.047704    0.049978    0.050705    0.051148    0.051711    0.053444
     0.053518    0.054373    0.054427    0.054870    0.055515    0.056085
     0.057922    0.058243    0.058339    0.060591    0.060817    0.063913
     0.063956    0.064045    0.064118    0.069617    0.069771    0.072810
     0.072888    0.092521    0.092769    0.092803    0.093049    0.095796
     0.095817    0.097025    0.100216    0.101224    0.102703    0.106910
     0.110192    0.110465    0.110987    0.122243    0.122334    0.134268
     0.135955    0.157679    0.157823    0.160000    0.160000    0.160000
     0.160000    0.160000    0.160000    0.164111    0.164446    0.219727
     0.219878    0.220030    0.220514    0.225888    0.227521    0.238513
     0.238592    0.239575    0.239634    0.246069    0.246620    0.249493
     0.249695    0.249862    0.249868    0.250000    0.250000    0.250000
     0.250000    0.250000    0.250000    0.250000    0.250000    0.253236
     0.253369    0.256454    0.260411    0.260917    0.260998    0.262682
     0.292870    0.292911    0.307264    0.307301    0.322669    0.322940
     0.324208    0.325136    0.326500    0.326913    0.327960    0.328619
     0.328848    0.329012    0.329140    0.329453    0.329787    0.330034
     0.330499    0.330794    0.332258    0.332276    0.334887    0.334914
     0.334955    0.334968    0.335014    0.335058    0.335059    0.335107
     0.335413    0.338894    0.343362    0.346218    0.398219    0.404201
     0.406207    0.422353    0.811359    0.826094    0.830277    0.832342

 Minimum Search - Taking Simple RFO Step
 Searching for Lamda that Minimizes Along All modes
 Value Taken    Lamda =  -0.00634690
 Calculated Step too Large.  Step scaled by  0.437759
 Step Taken.  Stepsize is  0.300000

                             Maximum     Tolerance    Cnvgd?
         Gradient           0.004114      0.000300      NO
         Displacement       0.113546      0.001200      NO
         Energy change     *********      0.000001      NO


 New Cartesian Coordinates Obtained by Inverse Iteration

 Displacement from previous Coordinates is:  5.099328
 Adding empirical dispersion correction 
 ----------------------------------------------------------------
 Doing -D3(op) with
 s6 =   1.00000
 s8 =   0.78311
 a1 =   0.30000
 a2 =   4.25000
 n  =  10.00000
 -D3 energy without 3body term =     -0.0719786362 hartrees
 ----------------------------------------------------------------
             Standard Nuclear Orientation (Angstroms)
    I     Atom           X                Y                Z
 ----------------------------------------------------------------
    1      O       3.7080799457    -2.9722765959    -0.5767293443
    2      C       3.8258268873    -1.8244143150    -0.0960362527
    3      C       4.1065875185    -0.4991638720    -0.8890327569
    4      C       2.9079164322     0.5395855635    -0.8620883919
    5      C       1.6763035045     0.0230080361    -0.0387967521
    6      O       0.9561031952     1.1255934618     0.4962677689
    7      C      -0.1465093121     0.6468151555     1.3699275707
    8      C      -0.9740160642     1.9122756354     1.8101669288
    9      O      -2.4118131345     1.6806812434     1.5352302991
   10      C      -2.6324178125     1.6956919111     0.1198279357
   11      C      -4.0728244848     1.1720867157    -0.2059419938
   12      C      -4.0404029558    -0.1419848921    -1.1005880568
   13      C      -2.6288778280    -0.7005645989    -1.4975472080
   14      O      -2.2757688331    -0.9895072154    -2.6631258927
   15      O       3.8020565221    -1.5285278160     1.3069007960
   16      O      -1.8111072857    -0.9215906882    -0.3351768394
   17      O      -1.7544070305     1.9960296598    -0.7185182103
   18      C      -0.5996710585    -1.7004563577    -0.7138479706
   19      C      -4.8756074161     0.6587009838     1.0591770631
   20      C      -6.3958835735     0.5072230453     0.6590345836
   21      C      -6.3556656515    -0.8090049492    -0.2026171982
   22      C      -4.8165991692    -1.1592754478    -0.1489993545
   23      O      -4.4119518521    -0.7405136318     1.2109028744
   24      H      -4.6112295613     1.9806861331    -0.7342335651
   25      H      -4.5892730634     0.0140978493    -2.0458682213
   26      H      -4.6793619770     1.2338000208     1.9835562473
   27      H      -7.0197085612     0.3822392676     1.5583502905
   28      H      -6.7652994917     1.3764686677     0.0919085651
   29      H      -6.9481300579    -1.6140246230     0.2606867911
   30      H      -6.7123285385    -0.6564863547    -1.2338232415
   31      H      -4.5689256488    -2.2254425031    -0.3166926096
   32      O       1.3219602383    -1.1743001301     0.0949324906
   33      C       3.4500707892    -2.7490951012     2.0654513625
   34      C       5.2590457901     0.3758755890    -0.2275432851
   35      C       5.7521225238     1.4330368599    -1.2933603011
   36      C       4.5584871594     2.4587010696    -1.2797357378
   37      C       3.6058810938     1.8023886682    -0.2050505505
   38      O       4.5419610879     1.2005595281     0.7716127188
   39      H       4.3565122330    -0.7850008395    -1.9258363892
   40      H       2.5544170696     0.7640410760    -1.8862364621
   41      H       4.1605573596    -3.5771430516     1.8661456129
   42      H       6.0599775115    -0.2128868957     0.2597330712
   43      H       6.6915379965     1.9027815402    -0.9611476582
   44      H       5.9150917527     0.9803887620    -2.2844041489
   45      H       4.8858253129     3.4563077727    -0.9464963628
   46      H       4.0692334468     2.5568005568    -2.2619842632
   47      H       2.8998469499     2.4905155528     0.2978561268
   48      H       2.4261665093    -3.0941177223     1.8132131257
   49      H       3.4949736084    -2.4698613827     3.1341753732
   50      H       0.2871773835    -1.2636197174    -0.2027608564
   51      H      -0.4739335560    -1.6695526971    -1.8137977053
   52      H      -0.7334552501    -2.7513344414    -0.3886317738
   53      H      -0.9018787177     2.0894581060     2.9006873614
   54      H      -0.5949732271     2.7997173462     1.2582224328
   55      H       0.2666732208     0.0989814100     2.2434764747
   56      H      -0.8306918326    -0.0351486387     0.8167999315
 ----------------------------------------------------------------
 Molecular Point Group                 C1    NOp =  1
 Largest Abelian Subgroup              C1    NOp =  1
 Nuclear Repulsion Energy =  3243.6506235727 hartrees
 There are      113 alpha and      113 beta electrons
 Applying Cartesian multipole field
    Component          Value
    ---------          -----
     (2,0,0)        1.00000E-12
     (0,2,0)        2.00000E-11
     (0,0,2)       -3.00000E-11
 Nucleus-field energy     =     0.0000000158 hartrees
 Requested basis set is STO-3G
 There are 86 shells and 176 basis functions
 A cutoff of  1.0D-12 yielded   2275 shell pairs
 There are     10735 function pairs
 Smallest overlap matrix eigenvalue = 1.99E-01
 Guess MOs from SCF MO coefficient file
 Reading MOs from coefficient file
 Reading MOs from coefficient file
 A restricted hybrid HF-DFT SCF calculation will be
 performed using Pulay DIIS extrapolation
 Exchange:     0.2000 Hartree-Fock + 0.0800 Slater + 0.7200 B88
 Correlation:  0.1900 VWN1RPA + 0.8100 LYP
 Using SG-1 standard quadrature grid
 Dispersion:   Grimme D3
 SCF converges when DIIS error is below 1.0E-08
 Geometry optimization detected.  Setting ReadMinima to 0
 Setting SaveMinima to 0
 using 48 threads for integral computing
 -------------------------------------------------------
 OpenMP Integral computing Module                
 Release: version 1.0, May 2013, Q-Chem Inc. Pittsburgh 
 -------------------------------------------------------
 -------------------------------------------------------
 OpenMP BLAS3 based DFT computing Module                
 Release: version 1.0, May 2013, Q-Chem Inc. Pittsburgh 
 -------------------------------------------------------
 ---------------------------------------
  Cycle       Energy         DIIS Error
 ---------------------------------------
    1   -1510.2449321071      1.06E-02
    2   -1510.1778057184      1.58E-03
    3   -1510.1698801401      2.17E-03
    4   -1510.1879490778      8.27E-04
    5   -1510.1909359890      1.09E-04
    6   -1510.1909599293      8.44E-05
    7   -1510.1909899457      2.54E-05
    8   -1510.1909927615      9.17E-06
    9   -1510.1909931364      2.61E-06
   10   -1510.1909931608      1.59E-06
   11   -1510.1909931723      3.14E-07
   12   -1510.1909931729      1.05E-07
   13   -1510.1909931730      5.42E-08
   14   -1510.1909931729      2.58E-08
   15   -1510.1909931730      6.10E-09 Convergence criterion met
 ---------------------------------------
 SCF time:  CPU 119.28 s  wall 2.49 s
 SCF   energy in the final basis set = -1510.19099317
 Total energy in the final basis set = -1510.19099317
 
 --------------------------------------------------------------
 
                    Orbital Energies (a.u.)
 --------------------------------------------------------------
 
 Alpha MOs
 -- Occupied --
-18.968 -18.941 -18.936 -18.928 -18.914 -18.893 -18.885 -18.873
-18.870 -18.864 -10.129 -10.100 -10.096 -10.086 -10.077 -10.065
-10.064 -10.064 -10.059 -10.057 -10.056 -10.051 -10.040 -10.037
-10.032 -10.024 -10.023 -10.018 -10.017  -9.954  -1.065  -1.015
 -1.006  -0.993  -0.984  -0.974  -0.967  -0.938  -0.931  -0.919
 -0.771  -0.760  -0.733  -0.723  -0.715  -0.707  -0.696  -0.657
 -0.646  -0.614  -0.603  -0.583  -0.555  -0.543  -0.542  -0.535
 -0.528  -0.510  -0.498  -0.490  -0.475  -0.466  -0.460  -0.443
 -0.439  -0.435  -0.431  -0.426  -0.413  -0.409  -0.406  -0.397
 -0.393  -0.385  -0.372  -0.368  -0.362  -0.350  -0.348  -0.345
 -0.344  -0.336  -0.335  -0.332  -0.328  -0.325  -0.321  -0.312
 -0.312  -0.307  -0.305  -0.302  -0.296  -0.290  -0.288  -0.277
 -0.271  -0.254  -0.251  -0.250  -0.239  -0.232  -0.230  -0.203
 -0.179  -0.175  -0.171  -0.155  -0.150  -0.147  -0.143  -0.140
 -0.128
 -- Virtual --
  0.058   0.094   0.104   0.113   0.214   0.238   0.245   0.253
  0.262   0.272   0.280   0.286   0.301   0.319   0.320   0.327
  0.329   0.338   0.340   0.347   0.353   0.362   0.365   0.366
  0.369   0.372   0.380   0.392   0.397   0.403   0.405   0.409
  0.415   0.416   0.420   0.428   0.431   0.433   0.435   0.437
  0.443   0.449   0.453   0.455   0.465   0.471   0.481   0.483
  0.485   0.490   0.494   0.503   0.507   0.520   0.530   0.537
  0.550   0.557   0.597   0.637   0.647   0.647   0.825
 --------------------------------------------------------------
 
          Ground-State Mulliken Net Atomic Charges

     Atom                 Charge (a.u.)
  ----------------------------------------
      1 O                    -0.211804
      2 C                     0.210793
      3 C                    -0.080943
      4 C                    -0.074182
      5 C                     0.238514
      6 O                    -0.152810
      7 C                    -0.072877
      8 C                    -0.048161
      9 O                    -0.169024
     10 C                     0.210949
     11 C                    -0.079060
     12 C                    -0.079630
     13 C                     0.208218
     14 O                    -0.212065
     15 O                    -0.171445
     16 O                    -0.186053
     17 O                    -0.216734
     18 C                    -0.214922
     19 C                     0.024190
     20 C                    -0.144500
     21 C                    -0.143812
     22 C                     0.025993
     23 O                    -0.187223
     24 H                     0.084034
     25 H                     0.084463
     26 H                     0.090384
     27 H                     0.077294
     28 H                     0.072650
     29 H                     0.077545
     30 H                     0.074009
     31 H                     0.083958
     32 O                    -0.208247
     33 C                    -0.128798
     34 C                     0.026656
     35 C                    -0.144035
     36 C                    -0.143777
     37 C                     0.024883
     38 O                    -0.186671
     39 H                     0.086354
     40 H                     0.092530
     41 H                     0.088728
     42 H                     0.085642
     43 H                     0.078739
     44 H                     0.075014
     45 H                     0.079473
     46 H                     0.075304
     47 H                     0.091955
     48 H                     0.091171
     49 H                     0.088676
     50 H                     0.187932
     51 H                     0.065766
     52 H                     0.051253
     53 H                     0.091521
     54 H                     0.097331
     55 H                     0.084974
     56 H                     0.129879
  ----------------------------------------
  Sum of atomic charges =    -0.000000

 -----------------------------------------------------------------
                    Cartesian Multipole Moments
 -----------------------------------------------------------------
    Charge (ESU x 10^10)
                -0.0000
    Dipole Moment (Debye)
         X       0.0855      Y       2.3577      Z       1.0202
       Tot       2.5704
    Quadrupole Moments (Debye-Ang)
        XX    -140.7865     XY       0.0789     YY    -162.1406
        XZ      -3.1826     YZ      -4.5180     ZZ    -162.6323
    Octopole Moments (Debye-Ang^2)
       XXX     -35.3257    XXY      13.4880    XYY      -8.4267
       YYY      -5.5697    XXZ     -38.5359    XYZ     -27.3646
       YYZ      23.4573    XZZ      28.1070    YZZ      -2.4628
       ZZZ      32.1871
    Hexadecapole Moments (Debye-Ang^3)
      XXXX  -13125.3540   XXXY      -5.6696   XXYY   -2685.7807
      XYYY      98.7398   YYYY   -2279.8158   XXXZ     143.0050
      XXYZ     -83.5812   XYYZ     112.7157   YYYZ     -25.3120
      XXZZ   -2575.0425   XYZZ     -42.4387   YYZZ    -601.9726
      XZZZ     142.5130   YZZZ     -12.0538   ZZZZ   -1375.8354
 -----------------------------------------------------------------
 Calculating analytic gradient of the SCF energy
 Gradient of SCF Energy
            1           2           3           4           5           6
    1   0.0003324  -0.0020985  -0.0003662   0.0043273  -0.0297942  -0.0081844
    2  -0.0005587   0.0005444   0.0007318   0.0045149  -0.0490206   0.0118251
    3  -0.0000428  -0.0005560   0.0001169   0.0013953  -0.0037881   0.0036407
            7           8           9          10          11          12
    1   0.0034636  -0.0009582   0.0002386  -0.0017997   0.0007803   0.0006081
    2  -0.0034327   0.0024332  -0.0035152   0.0065948  -0.0020431   0.0001737
    3  -0.0105026   0.0003057  -0.0003564   0.0001236   0.0016273  -0.0001735
           13          14          15          16          17          18
    1   0.0009341   0.0016044   0.0007173   0.0062947   0.0005407   0.0869120
    2  -0.0025928  -0.0007625  -0.0002677   0.0085272  -0.0037130   0.0299159
    3  -0.0033558   0.0001404   0.0008077   0.0094291   0.0000101   0.0463168
           19          20          21          22          23          24
    1  -0.0004890   0.0003245   0.0000982  -0.0003436  -0.0000552   0.0006671
    2  -0.0001235   0.0004347   0.0000522  -0.0006249  -0.0003338   0.0004753
    3  -0.0001118  -0.0000101   0.0000721   0.0001547  -0.0002166   0.0001426
           25          26          27          28          29          30
    1   0.0004564   0.0002062  -0.0000119  -0.0000379   0.0000930  -0.0000081
    2  -0.0002853   0.0000425  -0.0001030  -0.0000533  -0.0000470   0.0000127
    3  -0.0001264  -0.0001984  -0.0000690   0.0000963  -0.0000102  -0.0000040
           31          32          33          34          35          36
    1  -0.0000322  -0.1741798  -0.0000255  -0.0005730  -0.0000983   0.0004698
    2  -0.0000716  -0.0218200   0.0002878  -0.0000515   0.0000207   0.0005329
    3   0.0000617  -0.0637648  -0.0003288   0.0001691  -0.0000615   0.0004696
           37          38          39          40          41          42
    1   0.0002397   0.0003665   0.0001491  -0.0001814   0.0000505   0.0000963
    2  -0.0003753   0.0000689  -0.0000887  -0.0002520  -0.0000842   0.0000506
    3  -0.0010537   0.0000921  -0.0000085   0.0008014   0.0000879   0.0000127
           43          44          45          46          47          48
    1   0.0000132   0.0001195   0.0001456   0.0000102  -0.0000264   0.0000789
    2   0.0000695   0.0000384   0.0000184  -0.0000458  -0.0001047   0.0000035
    3  -0.0000405  -0.0000061  -0.0001955   0.0000048  -0.0000444  -0.0000291
           49          50          51          52          53          54
    1  -0.0000025   0.0982527   0.0037634   0.0026115   0.0001831  -0.0001162
    2  -0.0000185   0.0280164   0.0023068  -0.0016235  -0.0002469  -0.0003119
    3   0.0000276   0.0176152  -0.0017490   0.0019251   0.0000458  -0.0002757
           55          56
    1  -0.0017892   0.0060226
    2  -0.0022508  -0.0028697
    3  -0.0002076   0.0015943
 Max gradient component =       1.742E-01
 RMS gradient           =       1.895E-02
 Gradient time:  CPU 31.72 s  wall 0.67 s
 Geometry Optimization Parameters
   NAtoms,    NIC,     NZ,  NCons,   NDum,   NFix, NCnnct, MaxDiis
       56     458       0       0       0       0       0       0

 Cartesian Hessian Update
 Hessian Updated using BFGS Update


** GEOMETRY OPTIMIZATION IN DELOCALIZED INTERNAL COORDINATES **
   Searching for a Minimum

   Optimization Cycle:   2

                       Coordinates (Angstroms)
     ATOM                X               Y               Z
      1  O         3.7080799457   -2.9722765959   -0.5767293443
      2  C         3.8258268873   -1.8244143150   -0.0960362527
      3  C         4.1065875185   -0.4991638720   -0.8890327569
      4  C         2.9079164322    0.5395855635   -0.8620883919
      5  C         1.6763035045    0.0230080361   -0.0387967521
      6  O         0.9561031952    1.1255934618    0.4962677689
      7  C        -0.1465093121    0.6468151555    1.3699275707
      8  C        -0.9740160642    1.9122756354    1.8101669288
      9  O        -2.4118131345    1.6806812434    1.5352302991
     10  C        -2.6324178125    1.6956919111    0.1198279357
     11  C        -4.0728244848    1.1720867157   -0.2059419938
     12  C        -4.0404029558   -0.1419848921   -1.1005880568
     13  C        -2.6288778280   -0.7005645989   -1.4975472080
     14  O        -2.2757688331   -0.9895072154   -2.6631258927
     15  O         3.8020565221   -1.5285278160    1.3069007960
     16  O        -1.8111072857   -0.9215906882   -0.3351768394
     17  O        -1.7544070305    1.9960296598   -0.7185182103
     18  C        -0.5996710585   -1.7004563577   -0.7138479706
     19  C        -4.8756074161    0.6587009838    1.0591770631
     20  C        -6.3958835735    0.5072230453    0.6590345836
     21  C        -6.3556656515   -0.8090049492   -0.2026171982
     22  C        -4.8165991692   -1.1592754478   -0.1489993545
     23  O        -4.4119518521   -0.7405136318    1.2109028744
     24  H        -4.6112295613    1.9806861331   -0.7342335651
     25  H        -4.5892730634    0.0140978493   -2.0458682213
     26  H        -4.6793619770    1.2338000208    1.9835562473
     27  H        -7.0197085612    0.3822392676    1.5583502905
     28  H        -6.7652994917    1.3764686677    0.0919085651
     29  H        -6.9481300579   -1.6140246230    0.2606867911
     30  H        -6.7123285385   -0.6564863547   -1.2338232415
     31  H        -4.5689256488   -2.2254425031   -0.3166926096
     32  O         1.3219602383   -1.1743001301    0.0949324906
     33  C         3.4500707892   -2.7490951012    2.0654513625
     34  C         5.2590457901    0.3758755890   -0.2275432851
     35  C         5.7521225238    1.4330368599   -1.2933603011
     36  C         4.5584871594    2.4587010696   -1.2797357378
     37  C         3.6058810938    1.8023886682   -0.2050505505
     38  O         4.5419610879    1.2005595281    0.7716127188
     39  H         4.3565122330   -0.7850008395   -1.9258363892
     40  H         2.5544170696    0.7640410760   -1.8862364621
     41  H         4.1605573596   -3.5771430516    1.8661456129
     42  H         6.0599775115   -0.2128868957    0.2597330712
     43  H         6.6915379965    1.9027815402   -0.9611476582
     44  H         5.9150917527    0.9803887620   -2.2844041489
     45  H         4.8858253129    3.4563077727   -0.9464963628
     46  H         4.0692334468    2.5568005568   -2.2619842632
     47  H         2.8998469499    2.4905155528    0.2978561268
     48  H         2.4261665093   -3.0941177223    1.8132131257
     49  H         3.4949736084   -2.4698613827    3.1341753732
     50  H         0.2871773835   -1.2636197174   -0.2027608564
     51  H        -0.4739335560   -1.6695526971   -1.8137977053
     52  H        -0.7334552501   -2.7513344414   -0.3886317738
     53  H        -0.9018787177    2.0894581060    2.9006873614
     54  H        -0.5949732271    2.7997173462    1.2582224328
     55  H         0.2666732208    0.0989814100    2.2434764747
     56  H        -0.8306918326   -0.0351486387    0.8167999315
   Point Group: c1    Number of degrees of freedom:   162


   Energy is  -1510.190993173

 Hessian Updated using BFGS Update

149 Hessian modes will be used to form the next step
  Hessian Eigenvalues:
     0.001897    0.002018    0.002677    0.002679    0.003850    0.004189
     0.004284    0.004308    0.004628    0.004789    0.005123    0.006366
     0.006811    0.006820    0.010179    0.011148    0.012184    0.021410
     0.021735    0.024526    0.026028    0.030739    0.030922    0.035284
     0.035573    0.037713    0.040588    0.041267    0.041441    0.043494
     0.046022    0.046519    0.047668    0.048582    0.050278    0.050705
     0.051150    0.052977    0.053518    0.053807    0.054427    0.054870
     0.054902    0.055624    0.057583    0.057912    0.058339    0.060591
     0.060721    0.063913    0.063956    0.064045    0.064115    0.069612
     0.069617    0.072810    0.072840    0.079094    0.092521    0.092771
     0.092803    0.093231    0.095817    0.097025    0.098492    0.100223
     0.101258    0.102703    0.106986    0.110192    0.110485    0.111357
     0.122334    0.130018    0.135652    0.136123    0.157679    0.159949
     0.160000    0.161907    0.164110    0.167735    0.219793    0.219869
     0.220030    0.225805    0.227521    0.237492    0.238513    0.239575
     0.239632    0.240231    0.246069    0.246620    0.249493    0.249695
     0.249864    0.249865    0.249999    0.253235    0.253369    0.256450
     0.260411    0.260798    0.260997    0.262415    0.292869    0.292909
     0.307111    0.307301    0.322668    0.322734    0.324208    0.325136
     0.326500    0.326913    0.327960    0.328619    0.328848    0.329012
     0.329140    0.329453    0.329787    0.330034    0.330499    0.330794
     0.332258    0.332276    0.334887    0.334914    0.334955    0.334968
     0.335014    0.335058    0.335059    0.335072    0.335107    0.338413
     0.342393    0.346218    0.397343    0.404201    0.405896    0.422330
     0.810947    0.826094    0.830277    0.832342   18.172854

 Minimum Search - Taking Simple RFO Step
 Searching for Lamda that Minimizes Along All modes
 Value Taken    Lamda =  -0.34900837
 Step Taken.  Stepsize is  0.138970

                             Maximum     Tolerance    Cnvgd?
         Gradient           2.221452      0.000300      NO
         Displacement       0.118589      0.001200      NO
         Energy change      0.095172      0.000001      NO


 New Cartesian Coordinates Obtained by Inverse Iteration

 Displacement from previous Coordinates is:  4.868825
 Adding empirical dispersion correction 
 ----------------------------------------------------------------
 Doing -D3(op) with
 s6 =   1.00000
 s8 =   0.78311
 a1 =   0.30000
 a2 =   4.25000
 n  =  10.00000
 -D3 energy without 3body term =     -0.0694471246 hartrees
 ----------------------------------------------------------------
             Standard Nuclear Orientation (Angstroms)
    I     Atom           X                Y                Z
 ----------------------------------------------------------------
    1      O       4.1402698029    -2.8992022459    -0.4817965869
    2      C       4.1582020100    -1.7428051539    -0.0075316411
    3      C       4.3709365149    -0.4058577631    -0.8020299789
    4      C       3.1006105547     0.5440995691    -0.8259654804
    5      C       1.8810244246    -0.0545069327    -0.0414714754
    6      O       1.0696007126     1.0004022086     0.4593843694
    7      C      -0.0506739813     0.4873930480     1.2953255784
    8      C      -0.9139367998     1.7452966423     1.6891822379
    9      O      -2.3617575443     1.5622678236     1.4050125273
   10      C      -2.6341862705     1.5698763364    -0.0034105568
   11      C      -4.1325150913     1.1647721825    -0.2543453257
   12      C      -4.2948416421    -0.1528316684    -1.1354307425
   13      C      -2.9935911162    -0.8774265269    -1.6181624417
   14      O      -2.7594100923    -1.2119810246    -2.8013502836
   15      O       4.0637074691    -1.4404774381     1.3910305224
   16      O      -2.1396544744    -1.2047810068    -0.5122055048
   17      O      -1.7736681322     1.8005912808    -0.8810448995
   18      C      -1.0850349993    -2.1434322035    -0.9783183396
   19      C      -4.9043814019     0.7389954585     1.0626876635
   20      C      -6.4548384186     0.7385994381     0.7626887130
   21      C      -6.6040943913    -0.5761497767    -0.0838647543
   22      C      -5.1089336094    -1.0801129470    -0.1262575487
   23      O      -4.5740226182    -0.6998481266     1.2010449105
   24      H      -4.6182583658     2.0188323667    -0.7617653597
   25      H      -4.8827714189     0.0604970529    -2.0453801801
   26      H      -4.5963556346     1.2982105594     1.9660890844
   27      H      -7.0280001191     0.6814330645     1.7017259132
   28      H      -6.7712374548     1.6379550197     0.2106674409
   29      H      -7.2431542797    -1.3153194514     0.4250023980
   30      H      -7.0102853825    -0.3919733566    -1.0913038187
   31      H      -4.9854112114    -2.1667311217    -0.2999830866
   32      O       1.6141972763    -1.2737049767     0.0900960721
   33      C       3.7737739367    -2.6784675798     2.1476282373
   34      C       5.4335413224     0.5541035898    -0.1086936407
   35      C       5.8867622380     1.6372641073    -1.1660909327
   36      C       4.6229265685     2.5743720738    -1.2030280407
   37      C       3.6825307635     1.8580345300    -0.1562691728
   38      O       4.6242991884     1.3313774147     0.8575977530
   39      H       4.6771538903    -0.6795271004    -1.8269426831
   40      H       2.7683547316     0.7360106963    -1.8637623004
   41      H       4.5485136452    -3.4543278551     1.9803565127
   42      H       6.2569680032     0.0276545340     0.4112995768
   43      H       6.7777586755     2.1755502639    -0.8056677505
   44      H       6.1166234158     1.1912062489    -2.1468144686
   45      H       4.8658898604     3.5950559945    -0.8674906929
   46      H       4.1628486099     2.6307352232    -2.2025033186
   47      H       2.9116534452     2.4967290184     0.3156795391
   48      H       2.7868380900    -3.0980016816     1.8630416490
   49      H       3.7607924266    -2.3900220386     3.2147655365
   50      H      -0.1118379329    -1.8376999236    -0.5388553400
   51      H      -1.0411362758    -2.1251792019    -2.0847971816
   52      H      -1.3399887115    -3.1664719513    -0.6372787100
   53      H      -0.8658806633     1.9318620573     2.7794652813
   54      H      -0.5183390198     2.6245958038     1.1358225650
   55      H       0.3442489315    -0.0347554855     2.1927247505
   56      H      -0.6941493574    -0.2229363597     0.7290878476
 ----------------------------------------------------------------
 Molecular Point Group                 C1    NOp =  1
 Largest Abelian Subgroup              C1    NOp =  1
 Nuclear Repulsion Energy =  3173.0042864440 hartrees
 There are      113 alpha and      113 beta electrons
 Applying Cartesian multipole field
    Component          Value
    ---------          -----
     (2,0,0)        1.00000E-12
     (0,2,0)        2.00000E-11
     (0,0,2)       -3.00000E-11
 Nucleus-field energy     =     0.0000000168 hartrees
 Requested basis set is STO-3G
 There are 86 shells and 176 basis functions
 A cutoff of  1.0D-12 yielded   2208 shell pairs
 There are     10389 function pairs
 Smallest overlap matrix eigenvalue = 2.13E-01
 Guess MOs from SCF MO coefficient file
 Reading MOs from coefficient file
 Reading MOs from coefficient file
 A restricted hybrid HF-DFT SCF calculation will be
 performed using Pulay DIIS extrapolation
 Exchange:     0.2000 Hartree-Fock + 0.0800 Slater + 0.7200 B88
 Correlation:  0.1900 VWN1RPA + 0.8100 LYP
 Using SG-1 standard quadrature grid
 Dispersion:   Grimme D3
 SCF converges when DIIS error is below 1.0E-08
 Geometry optimization detected.  Setting ReadMinima to 0
 Setting SaveMinima to 0
 using 48 threads for integral computing
 -------------------------------------------------------
 OpenMP Integral computing Module                
 Release: version 1.0, May 2013, Q-Chem Inc. Pittsburgh 
 -------------------------------------------------------
 -------------------------------------------------------
 OpenMP BLAS3 based DFT computing Module                
 Release: version 1.0, May 2013, Q-Chem Inc. Pittsburgh 
 -------------------------------------------------------
 ---------------------------------------
  Cycle       Energy         DIIS Error
 ---------------------------------------
    1   -1510.2075136521      9.94E-03
    2   -1510.2760410445      1.33E-03
    3   -1510.2736239889      1.61E-03
    4   -1510.2840390556      6.61E-04
    5   -1510.2859839424      8.88E-05
    6   -1510.2860051288      5.92E-05
    7   -1510.2860197566      1.69E-05
    8   -1510.2860208642      6.72E-06
    9   -1510.2860210720      1.46E-06
   10   -1510.2860210824      6.53E-07
   11   -1510.2860210838      4.08E-07
   12   -1510.2860210846      9.81E-08
   13   -1510.2860210846      2.41E-08
   14   -1510.2860210846      1.33E-08
   15   -1510.2860210846      5.89E-09 Convergence criterion met
 ---------------------------------------
 SCF time:  CPU 111.94 s  wall 2.34 s
 SCF   energy in the final basis set = -1510.28602108
 Total energy in the final basis set = -1510.28602108
 
 --------------------------------------------------------------
 
                    Orbital Energies (a.u.)
 --------------------------------------------------------------
 
 Alpha MOs
 -- Occupied --
-18.945 -18.936 -18.929 -18.922 -18.889 -18.887 -18.885 -18.876
-18.873 -18.863 -10.111 -10.102 -10.097 -10.090 -10.078 -10.072
-10.061 -10.059 -10.059 -10.058 -10.055 -10.041 -10.040 -10.039
-10.037 -10.033 -10.021 -10.020 -10.020 -10.018  -1.022  -1.013
 -1.006  -0.999  -0.970  -0.969  -0.945  -0.938  -0.932  -0.925
 -0.764  -0.762  -0.729  -0.722  -0.715  -0.707  -0.696  -0.653
 -0.649  -0.618  -0.598  -0.582  -0.545  -0.545  -0.538  -0.537
 -0.518  -0.512  -0.489  -0.473  -0.469  -0.462  -0.446  -0.441
 -0.434  -0.432  -0.428  -0.414  -0.409  -0.405  -0.403  -0.400
 -0.392  -0.382  -0.370  -0.367  -0.363  -0.357  -0.348  -0.344
 -0.343  -0.340  -0.336  -0.332  -0.329  -0.323  -0.320  -0.312
 -0.308  -0.305  -0.304  -0.300  -0.299  -0.291  -0.283  -0.275
 -0.272  -0.261  -0.254  -0.244  -0.242  -0.235  -0.233  -0.185
 -0.179  -0.172  -0.166  -0.161  -0.158  -0.151  -0.144  -0.143
 -0.141
 -- Virtual --
  0.087   0.091   0.106   0.113   0.213   0.240   0.245   0.249
  0.258   0.269   0.282   0.286   0.307   0.309   0.324   0.328
  0.332   0.337   0.343   0.347   0.353   0.360   0.362   0.366
  0.370   0.375   0.382   0.394   0.399   0.403   0.410   0.411
  0.412   0.415   0.422   0.428   0.431   0.433   0.440   0.442
  0.444   0.447   0.448   0.450   0.455   0.457   0.460   0.470
  0.470   0.483   0.487   0.490   0.505   0.508   0.509   0.534
  0.536   0.553   0.555   0.630   0.635   0.642   0.653
 --------------------------------------------------------------
 
          Ground-State Mulliken Net Atomic Charges

     Atom                 Charge (a.u.)
  ----------------------------------------
      1 O                    -0.215338
      2 C                     0.211798
      3 C                    -0.080874
      4 C                    -0.077199
      5 C                     0.222111
      6 O                    -0.166312
      7 C                    -0.054441
      8 C                    -0.047795
      9 O                    -0.169851
     10 C                     0.210064
     11 C                    -0.077952
     12 C                    -0.079092
     13 C                     0.209811
     14 O                    -0.212079
     15 O                    -0.171816
     16 O                    -0.175406
     17 O                    -0.213620
     18 C                    -0.152017
     19 C                     0.024160
     20 C                    -0.144647
     21 C                    -0.143790
     22 C                     0.025863
     23 O                    -0.186093
     24 H                     0.084869
     25 H                     0.086374
     26 H                     0.092028
     27 H                     0.077923
     28 H                     0.073114
     29 H                     0.078198
     30 H                     0.074364
     31 H                     0.083084
     32 O                    -0.215826
     33 C                    -0.128587
     34 C                     0.026402
     35 C                    -0.144120
     36 C                    -0.144066
     37 C                     0.023884
     38 O                    -0.187875
     39 H                     0.084266
     40 H                     0.088763
     41 H                     0.087385
     42 H                     0.084206
     43 H                     0.077547
     44 H                     0.074001
     45 H                     0.077784
     46 H                     0.074020
     47 H                     0.090400
     48 H                     0.090861
     49 H                     0.087395
     50 H                     0.102698
     51 H                     0.098021
     52 H                     0.079160
     53 H                     0.092287
     54 H                     0.097624
     55 H                     0.088854
     56 H                     0.109474
  ----------------------------------------
  Sum of atomic charges =     0.000000

 -----------------------------------------------------------------
                    Cartesian Multipole Moments
 -----------------------------------------------------------------
    Charge (ESU x 10^10)
                -0.0000
    Dipole Moment (Debye)
         X      -1.1681      Y       2.0510      Z       0.8127
       Tot       2.4963
    Quadrupole Moments (Debye-Ang)
        XX    -142.0342     XY       1.2276     YY    -160.8288
        XZ      -3.1341     YZ      -4.0374     ZZ    -162.7415
    Octopole Moments (Debye-Ang^2)
       XXX     -56.7415    XXY      24.9270    XYY     -18.7229
       YYY      -3.9293    XXZ     -30.7287    XYZ     -28.4244
       YYZ      20.5474    XZZ      29.6190    YZZ      -2.2467
       ZZZ      37.6482
    Hexadecapole Moments (Debye-Ang^3)
      XXXX  -14277.9078   XXXY     -45.5891   XXYY   -2924.2423
      XYYY      53.2270   YYYY   -2320.3258   XXXZ      30.7001
      XXYZ    -107.9701   XYYZ      70.8855   YYYZ     -29.4304
      XXZZ   -2801.3658   XYZZ     -78.0297   YYZZ    -618.0708
      XZZZ      -3.9440   YZZZ     -29.1490   ZZZZ   -1413.3240
 -----------------------------------------------------------------
 Calculating analytic gradient of the SCF energy
 Gradient of SCF Energy
            1           2           3           4           5           6
    1  -0.0000323  -0.0000335  -0.0000034   0.0000044   0.0030280  -0.0006735
    2  -0.0000088   0.0000179   0.0001138  -0.0003270   0.0001982  -0.0008259
    3  -0.0000445  -0.0000075  -0.0000714  -0.0000453   0.0007191  -0.0020422
            7           8           9          10          11          12
    1   0.0020377   0.0045544  -0.0008008  -0.0065078  -0.0005558  -0.0007829
    2   0.0005580  -0.0018354   0.0017942   0.0083877  -0.0012746  -0.0009543
    3   0.0032486   0.0032514  -0.0015928  -0.0009069   0.0000781  -0.0013227
           13          14          15          16          17          18
    1   0.0008184   0.0001631   0.0000617  -0.0005101   0.0005355  -0.0017061
    2  -0.0021268  -0.0005873  -0.0000355   0.0005147  -0.0022784   0.0018157
    3   0.0004199   0.0009653  -0.0000257   0.0004748  -0.0006844  -0.0008382
           19          20          21          22          23          24
    1   0.0004106   0.0001635   0.0002819   0.0002988   0.0005816   0.0013177
    2  -0.0003345  -0.0012637   0.0008825  -0.0005193  -0.0004776   0.0004745
    3  -0.0003176  -0.0002360   0.0005206  -0.0009972   0.0008505   0.0000166
           25          26          27          28          29          30
    1   0.0003680  -0.0002384  -0.0000466   0.0000209  -0.0000046  -0.0000062
    2  -0.0001554   0.0003981  -0.0000872  -0.0000943  -0.0000244   0.0001392
    3   0.0000257  -0.0000278   0.0000535  -0.0001068   0.0000355   0.0000077
           31          32          33          34          35          36
    1  -0.0003632   0.0009705  -0.0000209  -0.0001518   0.0000787  -0.0000546
    2  -0.0000489   0.0006777   0.0000338  -0.0000601  -0.0000560  -0.0000446
    3  -0.0000578  -0.0007462  -0.0000884   0.0000106  -0.0000312   0.0000558
           37          38          39          40          41          42
    1  -0.0000137  -0.0000221   0.0000423  -0.0000095   0.0000129  -0.0000038
    2  -0.0000850   0.0000551  -0.0000592  -0.0000240  -0.0000266  -0.0000053
    3   0.0001147  -0.0000288  -0.0000226  -0.0000536   0.0000482  -0.0000033
           43          44          45          46          47          48
    1  -0.0000093   0.0000349  -0.0000170  -0.0000211  -0.0000259   0.0000152
    2   0.0000468   0.0000308  -0.0000228   0.0000361  -0.0000241  -0.0000439
    3  -0.0000099   0.0000116  -0.0000024  -0.0000180  -0.0000158  -0.0000131
           49          50          51          52          53          54
    1  -0.0000020  -0.0017140   0.0001348  -0.0000691  -0.0006638  -0.0011191
    2  -0.0000053   0.0000728  -0.0001383   0.0000273  -0.0011509  -0.0005638
    3   0.0000044  -0.0006910  -0.0002060  -0.0000082   0.0000653  -0.0007176
           55          56
    1  -0.0004008   0.0006481
    2  -0.0005427  -0.0001628
    3   0.0000651   0.0009380
 Max gradient component =       8.388E-03
 RMS gradient           =       1.170E-03
 Gradient time:  CPU 30.62 s  wall 0.65 s
 Geometry Optimization Parameters
   NAtoms,    NIC,     NZ,  NCons,   NDum,   NFix, NCnnct, MaxDiis
       56     458       0       0       0       0       0       0

 Cartesian Hessian Update
 Hessian Updated using BFGS Update


** GEOMETRY OPTIMIZATION IN DELOCALIZED INTERNAL COORDINATES **
   Searching for a Minimum

   Optimization Cycle:   3

                       Coordinates (Angstroms)
     ATOM                X               Y               Z
      1  O         4.1402698029   -2.8992022459   -0.4817965869
      2  C         4.1582020100   -1.7428051539   -0.0075316411
      3  C         4.3709365149   -0.4058577631   -0.8020299789
      4  C         3.1006105547    0.5440995691   -0.8259654804
      5  C         1.8810244246   -0.0545069327   -0.0414714754
      6  O         1.0696007126    1.0004022086    0.4593843694
      7  C        -0.0506739813    0.4873930480    1.2953255784
      8  C        -0.9139367998    1.7452966423    1.6891822379
      9  O        -2.3617575443    1.5622678236    1.4050125273
     10  C        -2.6341862705    1.5698763364   -0.0034105568
     11  C        -4.1325150913    1.1647721825   -0.2543453257
     12  C        -4.2948416421   -0.1528316684   -1.1354307425
     13  C        -2.9935911162   -0.8774265269   -1.6181624417
     14  O        -2.7594100923   -1.2119810246   -2.8013502836
     15  O         4.0637074691   -1.4404774381    1.3910305224
     16  O        -2.1396544744   -1.2047810068   -0.5122055048
     17  O        -1.7736681322    1.8005912808   -0.8810448995
     18  C        -1.0850349993   -2.1434322035   -0.9783183396
     19  C        -4.9043814019    0.7389954585    1.0626876635
     20  C        -6.4548384186    0.7385994381    0.7626887130
     21  C        -6.6040943913   -0.5761497767   -0.0838647543
     22  C        -5.1089336094   -1.0801129470   -0.1262575487
     23  O        -4.5740226182   -0.6998481266    1.2010449105
     24  H        -4.6182583658    2.0188323667   -0.7617653597
     25  H        -4.8827714189    0.0604970529   -2.0453801801
     26  H        -4.5963556346    1.2982105594    1.9660890844
     27  H        -7.0280001191    0.6814330645    1.7017259132
     28  H        -6.7712374548    1.6379550197    0.2106674409
     29  H        -7.2431542797   -1.3153194514    0.4250023980
     30  H        -7.0102853825   -0.3919733566   -1.0913038187
     31  H        -4.9854112114   -2.1667311217   -0.2999830866
     32  O         1.6141972763   -1.2737049767    0.0900960721
     33  C         3.7737739367   -2.6784675798    2.1476282373
     34  C         5.4335413224    0.5541035898   -0.1086936407
     35  C         5.8867622380    1.6372641073   -1.1660909327
     36  C         4.6229265685    2.5743720738   -1.2030280407
     37  C         3.6825307635    1.8580345300   -0.1562691728
     38  O         4.6242991884    1.3313774147    0.8575977530
     39  H         4.6771538903   -0.6795271004   -1.8269426831
     40  H         2.7683547316    0.7360106963   -1.8637623004
     41  H         4.5485136452   -3.4543278551    1.9803565127
     42  H         6.2569680032    0.0276545340    0.4112995768
     43  H         6.7777586755    2.1755502639   -0.8056677505
     44  H         6.1166234158    1.1912062489   -2.1468144686
     45  H         4.8658898604    3.5950559945   -0.8674906929
     46  H         4.1628486099    2.6307352232   -2.2025033186
     47  H         2.9116534452    2.4967290184    0.3156795391
     48  H         2.7868380900   -3.0980016816    1.8630416490
     49  H         3.7607924266   -2.3900220386    3.2147655365
     50  H        -0.1118379329   -1.8376999236   -0.5388553400
     51  H        -1.0411362758   -2.1251792019   -2.0847971816
     52  H        -1.3399887115   -3.1664719513   -0.6372787100
     53  H        -0.8658806633    1.9318620573    2.7794652813
     54  H        -0.5183390198    2.6245958038    1.1358225650
     55  H         0.3442489315   -0.0347554855    2.1927247505
     56  H        -0.6941493574   -0.2229363597    0.7290878476
   Point Group: c1    Number of degrees of freedom:   162


   Energy is  -1510.286021085

 Hessian Updated using BFGS Update

152 Hessian modes will be used to form the next step
  Hessian Eigenvalues:
     0.001897    0.002000    0.002018    0.002677    0.002679    0.003850
     0.004189    0.004284    0.004308    0.004628    0.004789    0.005123
     0.006366    0.006811    0.006820    0.010179    0.011148    0.012184
     0.021410    0.021735    0.024526    0.026028    0.030739    0.030922
     0.035284    0.035573    0.037711    0.040588    0.041267    0.041441
     0.043493    0.046021    0.046519    0.047668    0.048581    0.050278
     0.050705    0.051150    0.052977    0.053518    0.053807    0.054427
     0.054870    0.054902    0.055624    0.057583    0.057911    0.058339
     0.060591    0.060721    0.063913    0.063956    0.064045    0.064115
     0.069612    0.069617    0.072810    0.072839    0.079067    0.092521
     0.092771    0.092803    0.093231    0.095817    0.097025    0.098487
     0.100223    0.101258    0.102703    0.106985    0.110192    0.110485
     0.111356    0.122334    0.130009    0.135645    0.136122    0.157679
     0.159949    0.160000    0.160000    0.161899    0.164110    0.167721
     0.219792    0.219868    0.220030    0.225805    0.227521    0.237482
     0.238513    0.239575    0.239632    0.240213    0.246069    0.246620
     0.249493    0.249695    0.249864    0.249865    0.249998    0.250000
     0.253235    0.253369    0.256449    0.260411    0.260798    0.260997
     0.262416    0.292869    0.292909    0.307111    0.307301    0.322668
     0.322734    0.324208    0.325136    0.326500    0.326913    0.327960
     0.328619    0.328848    0.329012    0.329140    0.329453    0.329787
     0.330034    0.330499    0.330794    0.332258    0.332276    0.334887
     0.334914    0.334955    0.334968    0.335014    0.335058    0.335059
     0.335068    0.335107    0.338408    0.342375    0.346218    0.397338
     0.404201    0.405887    0.422328    0.810952    0.826094    0.830277
     0.832342   18.736417

 Minimum Search - Taking Simple RFO Step
 Searching for Lamda that Minimizes Along All modes
 Value Taken    Lamda =  -0.00513026
 Calculated Step too Large.  Step scaled by  0.610799
 Step Taken.  Stepsize is  0.300000

                             Maximum     Tolerance    Cnvgd?
         Gradient           0.023715      0.000300      NO
         Displacement       0.114202      0.001200      NO
         Energy change     -0.095028      0.000001      NO


 New Cartesian Coordinates Obtained by Inverse Iteration

 Displacement from previous Coordinates is:  2.367234
 Adding empirical dispersion correction 
 ----------------------------------------------------------------
 Doing -D3(op) with
 s6 =   1.00000
 s8 =   0.78311
 a1 =   0.30000
 a2 =   4.25000
 n  =  10.00000
 -D3 energy without 3body term =     -0.0692751662 hartrees
 ----------------------------------------------------------------
             Standard Nuclear Orientation (Angstroms)
    I     Atom           X                Y                Z
 ----------------------------------------------------------------
    1      O       4.0232375655    -2.8487951055    -0.6101421559
    2      C       4.0801028064    -1.7070192517    -0.1045763982
    3      C       4.2893685003    -0.3518111887    -0.8684184263
    4      C       3.0376982097     0.6216803100    -0.8185563223
    5      C       1.8345651358     0.0219376174    -0.0092403977
    6      O       1.0688921272     1.0743544361     0.5602871522
    7      C      -0.0366614134     0.5350884699     1.3944243183
    8      C      -0.9153947224     1.7701137798     1.8121957531
    9      O      -2.3421206667     1.5306754981     1.5010888236
   10      C      -2.5170206428     1.4494502963     0.0827970924
   11      C      -4.0167856366     1.1237109327    -0.2486405072
   12      C      -4.1846518031    -0.1875639824    -1.1316984278
   13      C      -2.8872950923    -0.9716932318    -1.5315029378
   14      O      -2.5847120654    -1.2959267368    -2.7022777827
   15      O       4.0423278727    -1.4434987527     1.3044851525
   16      O      -2.1477740765    -1.3854186144    -0.3701380171
   17      O      -1.6166778653     1.7086875985    -0.7452877770
   18      C      -1.1273510079    -2.3986065035    -0.7573426599
   19      C      -4.8877045942     0.7470817919     1.0204132526
   20      C      -6.4143945302     0.8230492964     0.6230024196
   21      C      -6.5751562464    -0.4900509936    -0.2272582983
   22      C      -5.1065606224    -1.0672472902    -0.1731609697
   23      O      -4.6397916151    -0.7050423130     1.1837141143
   24      H      -4.4329529749     1.9947039483    -0.7885163427
   25      H      -4.7034678429     0.0505281170    -2.0771249956
   26      H      -4.6070603721     1.2946434093     1.9396154371
   27      H      -7.0474702412     0.8009745371     1.5242053421
   28      H      -6.6496699142     1.7337387308     0.0494056374
   29      H      -7.2806978541    -1.1933589663     0.2430828841
   30      H      -6.9075244393    -0.2937662639    -1.2591463622
   31      H      -5.0243555737    -2.1596837521    -0.3342848007
   32      O       1.5509002323    -1.1956930313     0.1028944790
   33      C       3.7557805544    -2.6974009916     2.0357068724
   34      C       5.3952441950     0.5680689572    -0.1884873951
   35      C       5.8295609764     1.6732071078    -1.2309139606
   36      C       4.5839471330     2.6342768372    -1.1930950894
   37      C       3.6690111855     1.9044920978    -0.1330547541
   38      O       4.6372243452     1.3310631690     0.8293336289
   39      H       4.5523451484    -0.6010229828    -1.9113792077
   40      H       2.6726045621     0.8506385468    -1.8375977689
   41      H       4.5068594882    -3.4831906253     1.8153539176
   42      H       6.2271307548     0.0118028924     0.2849045228
   43      H       6.7439122869     2.1838836844    -0.8893427145
   44      H       6.0136069797     1.2518452828    -2.2320352714
   45      H       4.8591283548     3.6399310294    -0.8375598798
   46      H       4.0884273594     2.7286091896    -2.1725391178
   47      H       2.9285674551     2.5429773427     0.3856000683
   48      H       2.7498907518    -3.0882864885     1.7779652174
   49      H       3.7902174052    -2.4407982045     3.1104530380
   50      H      -0.1787704346    -2.1823958645    -0.2186061208
   51      H      -0.9757049787    -2.3634366216    -1.8536411798
   52      H      -1.4940044431    -3.4038136296    -0.4691626803
   53      H      -0.8802700855     1.9474210861     2.9046745683
   54      H      -0.5356438203     2.6647564300     1.2715329550
   55      H       0.3711716082     0.0014588472     2.2790079555
   56      H      -0.6763973218    -0.1700871751     0.8161785592
 ----------------------------------------------------------------
 Molecular Point Group                 C1    NOp =  1
 Largest Abelian Subgroup              C1    NOp =  1
 Nuclear Repulsion Energy =  3181.3439457222 hartrees
 There are      113 alpha and      113 beta electrons
 Applying Cartesian multipole field
    Component          Value
    ---------          -----
     (2,0,0)        1.00000E-12
     (0,2,0)        2.00000E-11
     (0,0,2)       -3.00000E-11
 Nucleus-field energy     =     0.0000000186 hartrees
 Requested basis set is STO-3G
 There are 86 shells and 176 basis functions
 A cutoff of  1.0D-12 yielded   2220 shell pairs
 There are     10431 function pairs
 Smallest overlap matrix eigenvalue = 2.13E-01
 Guess MOs from SCF MO coefficient file
 Reading MOs from coefficient file
 Reading MOs from coefficient file
 A restricted hybrid HF-DFT SCF calculation will be
[...]
      7  C         0.2214941973    1.2576732251    2.7651665293
      8  C        -0.9582592320    2.2794363926    2.5266603563
      9  O        -2.1991046541    1.7252775268    1.9293205629
     10  C        -2.0038878304    1.2842705919    0.5835830459
     11  C        -3.4034781252    1.0233742441   -0.0723224578
     12  C        -3.3314256499    0.1475499403   -1.3917522750
     13  C        -1.8984328018   -0.4137312658   -1.7273118100
     14  O        -1.1427200684   -0.0373446099   -2.6518610852
     15  O         3.6916617908   -1.4584110497    1.4067338755
     16  O        -1.6436503582   -1.5124431504   -0.8548610936
     17  O        -0.8909681204    1.1782712347    0.0229536259
     18  C        -0.2998400277   -2.0908072521   -1.0976536439
     19  C        -4.3911669661    0.1607005717    0.8258110782
     20  C        -5.8588836142    0.3894555083    0.2888427241
     21  C        -5.8176746019   -0.4327853244   -1.0524899542
     22  C        -4.3473101539   -1.0145736427   -1.0135680896
     23  O        -4.0966799470   -1.2332567111    0.4301042101
     24  H        -3.8458653794    2.0150720384   -0.2847280317
     25  H        -3.6757292519    0.7266404248   -2.2664021397
     26  H        -4.2515773968    0.3010364239    1.9151304026
     27  H        -6.5935285397   -0.0275105929    0.9960471242
     28  H        -6.0856711773    1.4559757457    0.1310544531
     29  H        -6.5565158575   -1.2498947355   -1.0494838568
     30  H        -5.9891823239    0.1956882320   -1.9409848635
     31  H        -4.1971041772   -1.9551753004   -1.5774907855
     32  O         0.9199176762   -0.8677829990    1.2982894221
     33  C         3.6170311222   -2.5631425151    2.3883063383
     34  C         4.5236324726    0.0704923053   -0.8980307596
     35  C         4.5349173375    0.9981899590   -2.1774245337
     36  C         3.6193318102    2.1864018326   -1.6998488496
     37  C         3.2405208520    1.7106128923   -0.2422200141
     38  O         4.4665928008    1.0277519589    0.2294733818
     39  H         2.8077437635   -1.0504598716   -1.8184652659
     40  H         1.4245402004    0.7579747509   -1.1402023721
     41  H         4.1290999825   -3.4755627002    2.0206624031
     42  H         5.3984013880   -0.5999437592   -0.7926294273
     43  H         5.5590273073    1.3391046522   -2.3976490865
     44  H         4.1343177536    0.4841164962   -3.0657471924
     45  H         4.1769572662    3.1357023759   -1.6618001085
     46  H         2.7296965419    2.3224474335   -2.3354186716
     47  H         2.9389332017    2.5085132564    0.4629880743
     48  H         2.5629151689   -2.8194149279    2.6214214728
     49  H         4.1202252108   -2.1960911836    3.3015333893
     50  H         0.3350063248   -1.8627446288   -0.2119043151
     51  H         0.1391583980   -1.6482553398   -2.0134666602
     52  H        -0.4106121744   -3.1850813340   -1.2171957098
     53  H        -1.2917879245    2.6891856921    3.5013082026
     54  H        -0.5687084526    3.1139681055    1.9019766431
     55  H         0.7013932688    1.4747628039    3.7423457380
     56  H        -0.1327545754    0.2028758401    2.7539136133
   Point Group: c1    Number of degrees of freedom:   162


   Energy is  -1510.292470137

 Hessian Updated using BFGS Update

162 Hessian modes will be used to form the next step
  Hessian Eigenvalues:
     0.001570    0.002345    0.002438    0.003460    0.003996    0.004979
     0.005353    0.005730    0.006608    0.009177    0.011351    0.012497
     0.014280    0.019912    0.021913    0.022020    0.024637    0.025383
     0.028287    0.030135    0.031767    0.032817    0.034027    0.035486
     0.036334    0.039049    0.040931    0.041969    0.042513    0.044623
     0.045127    0.046658    0.049563    0.050917    0.051238    0.051905
     0.052427    0.053367    0.053808    0.054447    0.054756    0.055579
     0.056166    0.056442    0.056667    0.057992    0.061180    0.062126
     0.063033    0.064048    0.064157    0.064218    0.064448    0.066537
     0.069577    0.070108    0.072921    0.073065    0.076953    0.083583
     0.089586    0.093043    0.093367    0.097127    0.097329    0.098746
     0.100060    0.102355    0.102807    0.106045    0.107223    0.109706
     0.112787    0.116559    0.130612    0.136492    0.141735    0.142725
     0.158038    0.159981    0.160034    0.160537    0.161880    0.163710
     0.166937    0.173170    0.179322    0.184870    0.198148    0.218971
     0.223599    0.228505    0.235718    0.237537    0.239519    0.239725
     0.240255    0.242229    0.246686    0.248929    0.249914    0.250138
     0.251071    0.252603    0.253271    0.253980    0.255002    0.257679
     0.260881    0.262638    0.265401    0.268843    0.275514    0.291704
     0.293081    0.295569    0.301967    0.306592    0.314965    0.321819
     0.323457    0.324310    0.325376    0.326538    0.326920    0.328298
     0.328807    0.328962    0.329035    0.329245    0.329842    0.329933
     0.330116    0.330594    0.330809    0.332175    0.332489    0.334833
     0.334910    0.334915    0.335008    0.335027    0.335073    0.335109
     0.335135    0.342490    0.346064    0.350070    0.361913    0.367500
     0.395797    0.413236    0.420372    0.446157    0.485608    0.571732
     0.814194    0.829597    0.832847    0.833957    1.225228    3.075273

 Minimum Search - Taking Simple RFO Step
 Searching for Lamda that Minimizes Along All modes
 Value Taken    Lamda =   0.00000000
 Step Taken.  Stepsize is  0.002362

                             Maximum     Tolerance    Cnvgd?
         Gradient           0.000028      0.000300     YES
         Displacement       0.000771      0.001200     YES
         Energy change     -0.000001      0.000001      NO

 Final energy is   -1510.29247013713     


 ******************************
 **  OPTIMIZATION CONVERGED  **
 ******************************

                       Coordinates (Angstroms)
     ATOM                X               Y               Z
      1  O         2.7358523281   -3.0451988973   -0.0776204936
      2  C         3.1226489990   -1.8804961578    0.1613597557
      3  C         3.1165625461   -0.6669218931   -0.8304707803
      4  C         2.1872259560    0.5329038809   -0.3697907907
      5  C         1.3946780363    0.2406155425    0.9480734874
      6  O         1.2407157773    1.4402306723    1.7053296497
      7  C         0.2214941973    1.2576732251    2.7651665293
      8  C        -0.9582592320    2.2794363926    2.5266603563
      9  O        -2.1991046541    1.7252775268    1.9293205629
     10  C        -2.0038878304    1.2842705919    0.5835830459
     11  C        -3.4034781252    1.0233742441   -0.0723224578
     12  C        -3.3314256499    0.1475499403   -1.3917522750
     13  C        -1.8984328018   -0.4137312658   -1.7273118100
     14  O        -1.1427200684   -0.0373446099   -2.6518610852
     15  O         3.6916617908   -1.4584110497    1.4067338755
     16  O        -1.6436503582   -1.5124431504   -0.8548610936
     17  O        -0.8909681204    1.1782712347    0.0229536259
     18  C        -0.2998400277   -2.0908072521   -1.0976536439
     19  C        -4.3911669661    0.1607005717    0.8258110782
     20  C        -5.8588836142    0.3894555083    0.2888427241
     21  C        -5.8176746019   -0.4327853244   -1.0524899542
     22  C        -4.3473101539   -1.0145736427   -1.0135680896
     23  O        -4.0966799470   -1.2332567111    0.4301042101
     24  H        -3.8458653794    2.0150720384   -0.2847280317
     25  H        -3.6757292519    0.7266404248   -2.2664021397
     26  H        -4.2515773968    0.3010364239    1.9151304026
     27  H        -6.5935285397   -0.0275105929    0.9960471242
     28  H        -6.0856711773    1.4559757457    0.1310544531
     29  H        -6.5565158575   -1.2498947355   -1.0494838568
     30  H        -5.9891823239    0.1956882320   -1.9409848635
     31  H        -4.1971041772   -1.9551753004   -1.5774907855
     32  O         0.9199176762   -0.8677829990    1.2982894221
     33  C         3.6170311222   -2.5631425151    2.3883063383
     34  C         4.5236324726    0.0704923053   -0.8980307596
     35  C         4.5349173375    0.9981899590   -2.1774245337
     36  C         3.6193318102    2.1864018326   -1.6998488496
     37  C         3.2405208520    1.7106128923   -0.2422200141
     38  O         4.4665928008    1.0277519589    0.2294733818
     39  H         2.8077437635   -1.0504598716   -1.8184652659
     40  H         1.4245402004    0.7579747509   -1.1402023721
     41  H         4.1290999825   -3.4755627002    2.0206624031
     42  H         5.3984013880   -0.5999437592   -0.7926294273
     43  H         5.5590273073    1.3391046522   -2.3976490865
     44  H         4.1343177536    0.4841164962   -3.0657471924
     45  H         4.1769572662    3.1357023759   -1.6618001085
     46  H         2.7296965419    2.3224474335   -2.3354186716
     47  H         2.9389332017    2.5085132564    0.4629880743
     48  H         2.5629151689   -2.8194149279    2.6214214728
     49  H         4.1202252108   -2.1960911836    3.3015333893
     50  H         0.3350063248   -1.8627446288   -0.2119043151
     51  H         0.1391583980   -1.6482553398   -2.0134666602
     52  H        -0.4106121744   -3.1850813340   -1.2171957098
     53  H        -1.2917879245    2.6891856921    3.5013082026
     54  H        -0.5687084526    3.1139681055    1.9019766431
     55  H         0.7013932688    1.4747628039    3.7423457380
     56  H        -0.1327545754    0.2028758401    2.7539136133

Z-matrix Print:
$molecule
0 1
O 
C  1 1.250652
O  2 1.429548 1 124.726160
C  3 1.484454 2 112.322573 1 10.239981 0
H  4 1.108636 3 103.902029 2 173.092223 0
H  4 1.112844 3 110.283763 2 56.685927 0
C  2 1.567524 1 126.360139 3 177.140112 0
H  7 1.106475 2 106.746320 1 -103.106880 0
C  4 1.578830 3 116.346794 2 -66.688746 0
H  9 1.110095 4 109.235431 3 -139.395141 0
H  9 1.112752 4 111.965433 3 -18.078062 0
O  9 1.481686 4 109.039135 3 102.849177 0
C  12 1.426961 9 110.501289 4 -119.074122 0
O  13 1.255626 12 123.593307 9 -12.361094 0
C  13 1.565353 12 110.146927 9 165.899030 0
H  15 1.107195 13 105.962080 12 -91.861674 0
C  15 1.585151 13 114.041767 12 30.867422 0
H  17 1.106760 15 113.943749 13 -32.347857 0
O  17 1.480556 15 103.487551 13 88.058816 0
C  19 1.480157 17 95.020360 15 56.361732 0
H  20 1.107165 19 110.459887 17 179.897634 0
C  17 1.579416 15 107.993526 13 -162.594168 0
H  22 1.101619 17 110.433541 15 167.921901 0
H  22 1.101775 17 112.080793 15 46.439581 0
C  22 1.574237 17 101.075155 15 -73.949145 0
H  25 1.101600 22 111.577297 17 -118.114533 0
H  25 1.101757 22 112.662780 17 119.237586 0
C  7 1.585293 2 113.555099 1 19.166280 0
H  28 1.104039 7 110.818634 2 -116.372666 0
C  28 1.575152 7 114.551955 2 5.547088 0
O  30 1.252022 28 126.820445 7 -108.158997 0
O  30 1.425922 28 107.864944 7 76.445773 0
C  32 1.482997 30 111.237946 28 -179.351966 0
H  33 1.106344 32 108.222307 30 -129.642680 0
H  33 1.107829 32 109.793038 30 -9.309503 0
H  33 1.113371 32 107.851589 30 111.125753 0
C  15 1.586025 13 113.575328 12 146.266516 0
H  37 1.103904 15 111.031346 13 118.138453 0
C  37 1.567331 15 113.842180 13 -3.159416 0
O  39 1.250302 37 126.807371 15 117.378616 0
O  39 1.432790 37 108.873689 15 -64.442873 0
C  41 1.479691 39 109.671215 37 175.946734 0
H  42 1.105402 41 106.091278 39 176.854194 0
H  42 1.109003 41 111.780684 39 57.327009 0
H  42 1.109585 41 111.082898 39 -64.098334 0
C  28 1.589206 7 100.188257 2 125.365982 0
H  46 1.106934 28 114.418811 7 -157.256072 0
O  46 1.481495 28 103.396797 7 -37.184973 0
C  48 1.478656 46 95.044730 28 57.633216 0
H  49 1.107157 48 110.958036 46 -178.573869 0
C  49 1.579511 48 103.333340 46 56.842632 0
H  51 1.101681 49 110.279361 48 81.675970 0
H  51 1.101724 49 112.343957 48 -156.862009 0
C  51 1.573833 49 100.937754 48 -36.339393 0
H  54 1.101618 51 111.569456 49 119.175390 0
H  54 1.101734 51 112.657133 49 -118.212587 0
$end

 
 --------------------------------------------------------------
 
                    Orbital Energies (a.u.)
 --------------------------------------------------------------
 
 Alpha MOs
 -- Occupied --
-18.946 -18.940 -18.924 -18.912 -18.889 -18.886 -18.883 -18.882
-18.864 -18.852 -10.112 -10.109 -10.090 -10.084 -10.084 -10.076
-10.059 -10.056 -10.056 -10.055 -10.054 -10.040 -10.034 -10.031
-10.031 -10.025 -10.019 -10.018 -10.016 -10.015  -1.026  -1.015
 -1.000  -0.992  -0.967  -0.966  -0.950  -0.942  -0.926  -0.916
 -0.762  -0.759  -0.728  -0.719  -0.714  -0.704  -0.695  -0.652
 -0.640  -0.621  -0.594  -0.580  -0.544  -0.542  -0.535  -0.533
 -0.513  -0.510  -0.486  -0.472  -0.466  -0.459  -0.448  -0.436
 -0.431  -0.429  -0.426  -0.409  -0.406  -0.404  -0.402  -0.400
 -0.390  -0.387  -0.378  -0.363  -0.359  -0.355  -0.346  -0.342
 -0.337  -0.335  -0.331  -0.327  -0.326  -0.320  -0.317  -0.314
 -0.306  -0.304  -0.300  -0.296  -0.293  -0.286  -0.282  -0.272
 -0.271  -0.262  -0.253  -0.243  -0.232  -0.230  -0.228  -0.194
 -0.178  -0.168  -0.166  -0.161  -0.148  -0.142  -0.141  -0.139
 -0.138
 -- Virtual --
  0.083   0.098   0.113   0.118   0.222   0.239   0.247   0.249
  0.267   0.271   0.287   0.290   0.300   0.316   0.329   0.331
  0.335   0.345   0.349   0.353   0.356   0.358   0.360   0.370
  0.373   0.382   0.383   0.399   0.405   0.407   0.410   0.412
  0.415   0.416   0.419   0.430   0.432   0.433   0.440   0.443
  0.445   0.450   0.453   0.455   0.460   0.464   0.468   0.470
  0.472   0.478   0.490   0.492   0.498   0.508   0.514   0.537
  0.540   0.555   0.559   0.632   0.634   0.654   0.659
 --------------------------------------------------------------
 
          Ground-State Mulliken Net Atomic Charges

     Atom                 Charge (a.u.)
  ----------------------------------------
      1 O                    -0.215106
      2 C                     0.209641
      3 C                    -0.081029
      4 C                    -0.078123
      5 C                     0.233918
      6 O                    -0.168677
      7 C                    -0.055014
      8 C                    -0.049464
      9 O                    -0.171182
     10 C                     0.217304
     11 C                    -0.077971
     12 C                    -0.080448
     13 C                     0.210945
     14 O                    -0.227224
     15 O                    -0.169855
     16 O                    -0.172746
     17 O                    -0.212343
     18 C                    -0.148314
     19 C                     0.024735
     20 C                    -0.143515
     21 C                    -0.144868
     22 C                     0.027511
     23 O                    -0.184630
     24 H                     0.084737
     25 H                     0.081723
     26 H                     0.088270
     27 H                     0.077747
     28 H                     0.072168
     29 H                     0.077559
     30 H                     0.072874
     31 H                     0.085938
     32 O                    -0.217205
     33 C                    -0.128594
     34 C                     0.026239
     35 C                    -0.144072
     36 C                    -0.143844
     37 C                     0.024097
     38 O                    -0.187934
     39 H                     0.085587
     40 H                     0.101186
     41 H                     0.087911
     42 H                     0.082653
     43 H                     0.076796
     44 H                     0.074791
     45 H                     0.076452
     46 H                     0.076199
     47 H                     0.090375
     48 H                     0.090721
     49 H                     0.088307
     50 H                     0.105308
     51 H                     0.087369
     52 H                     0.080890
     53 H                     0.092444
     54 H                     0.092882
     55 H                     0.088652
     56 H                     0.108231
  ----------------------------------------
  Sum of atomic charges =    -0.000000

 -----------------------------------------------------------------
                    Cartesian Multipole Moments
 -----------------------------------------------------------------
    Charge (ESU x 10^10)
                -0.0000
    Dipole Moment (Debye)
         X      -1.4401      Y       2.7613      Z       0.9114
       Tot       3.2449
    Quadrupole Moments (Debye-Ang)
        XX    -150.3461     XY      -6.4245     YY    -159.9584
        XZ      -0.5944     YZ       2.1556     ZZ    -153.2352
    Octopole Moments (Debye-Ang^2)
       XXX     -59.7450    XXY      -6.3931    XYY      -1.7954
       YYY      14.6032    XXZ     -44.9583    XYZ     -21.7075
       YYZ       4.1646    XZZ      12.6630    YZZ      -3.9821
       ZZZ      29.6767
    Hexadecapole Moments (Debye-Ang^3)
      XXXX  -10294.0342   XXXY     -44.4619   XXYY   -2105.8809
      XYYY     123.3596   YYYY   -2181.0313   XXXZ     -73.6302
      XXYZ     -84.6499   XYYZ      30.5410   YYYZ     -81.2416
      XXZZ   -2061.4901   XYZZ       5.9269   YYZZ    -678.5133
      XZZZ     -31.9891   YZZZ     -46.6731   ZZZZ   -2140.4138
 -----------------------------------------------------------------
Archival summary:
1\1\vega02.cac.cornell.edu\OPT\ProcedureUnspecified\STO-3G\102026\jj585\WedJan1704:53:482018WedJan1704:53:482018\0\\#,OPT,ProcedureUnspecified,STO-3G,\\0,1\O\C,1,1.25065\O,2,1.42955,1,124.726\C,3,1.48445,2,112.323,1,10.24,0\H,4,1.10864,3,103.902,2,173.092,0\H,4,1.11284,3,110.284,2,56.6859,0\C,2,1.56752,1,126.36,3,177.14,0\H,7,1.10648,2,106.746,1,-103.107,0\C,4,1.57883,3,116.347,2,-66.6887,0\H,9,1.11009,4,109.235,3,-139.395,0\H,9,1.11275,4,111.965,3,-18.0781,0\O,9,1.48169,4,109.039,3,102.849,0\C,12,1.42696,9,110.501,4,-119.074,0\O,13,1.25563,12,123.593,9,-12.3611,0\C,13,1.56535,12,110.147,9,165.899,0\H,15,1.10719,13,105.962,12,-91.8617,0\C,15,1.58515,13,114.042,12,30.8674,0\H,17,1.10676,15,113.944,13,-32.3479,0\O,17,1.48056,15,103.488,13,88.0588,0\C,19,1.48016,17,95.0204,15,56.3617,0\H,20,1.10717,19,110.46,17,179.898,0\C,17,1.57942,15,107.994,13,-162.594,0\H,22,1.10162,17,110.434,15,167.922,0\H,22,1.10178,17,112.081,15,46.4396,0\C,22,1.57424,17,101.075,15,-73.9491,0\H,25,1.1016,22,111.577,17,-118.115,0\H,25,1.10176,22,112.663,17,119.238,0\C,7,1.58529,2,113.555,1,19.1663,0\H,28,1.10404,7,110.819,2,-116.373,0\C,28,1.57515,7,114.552,2,5.54709,0\O,30,1.25202,28,126.82,7,-108.159,0\O,30,1.42592,28,107.865,7,76.4458,0\C,32,1.483,30,111.238,28,-179.352,0\H,33,1.10634,32,108.222,30,-129.643,0\H,33,1.10783,32,109.793,30,-9.3095,0\H,33,1.11337,32,107.852,30,111.126,0\C,15,1.58602,13,113.575,12,146.267,0\H,37,1.1039,15,111.031,13,118.138,0\C,37,1.56733,15,113.842,13,-3.15942,0\O,39,1.2503,37,126.807,15,117.379,0\O,39,1.43279,37,108.874,15,-64.4429,0\C,41,1.47969,39,109.671,37,175.947,0\H,42,1.1054,41,106.091,39,176.854,0\H,42,1.109,41,111.781,39,57.327,0\H,42,1.10958,41,111.083,39,-64.0983,0\C,28,1.58921,7,100.188,2,125.366,0\H,46,1.10693,28,114.419,7,-157.256,0\O,46,1.4815,28,103.397,7,-37.185,0\C,48,1.47866,46,95.0447,28,57.6332,0\H,49,1.10716,48,110.958,46,-178.574,0\C,49,1.57951,48,103.333,46,56.8426,0\H,51,1.10168,49,110.279,48,81.676,0\H,51,1.10172,49,112.344,48,-156.862,0\C,51,1.57383,49,100.938,48,-36.3394,0\H,54,1.10162,51,111.569,49,119.175,0\H,54,1.10173,51,112.657,49,-118.213,0\\\@

 Total job time:  135.05s(wall), 6436.97s(cpu) 
 Wed Jan 17 04:53:48 2018

        *************************************************************
        *                                                           *
        *  Thank you very much for using Q-Chem.  Have a nice day.  *
        *                                                           *
        *************************************************************


0 sent ACK to 0 
now end server 0 ... 
