mFile = /opt/software/qchem/qchem-5.0.1//bin/mpi/machines
Process 0 of 1 is on vega02.cac.cornell.edu - thread support 0
initial socket setup ...start
initial socket setup ...done 
now start server 0 ... 
vega02.cac.cornell.edu 10.84.3
Q-Chem Developer Version! Running on 10.84.3.*
                  Welcome to Q-Chem
     A Quantum Leap Into The Future Of Chemistry


 Q-Chem 5.0, Q-Chem, Inc., Pleasanton, CA (2017)

 Yihan Shao,  Zhengting Gan,  E. Epifanovsky,  A. T. B. Gilbert,  M. Wormit,  
 J. Kussmann,  A. W. Lange,  A. Behn,  Jia Deng,  Xintian Feng,  D. Ghosh,  
 M. Goldey,  P. R. Horn,  L. D. Jacobson,  I. Kaliman,  T. Kus,  A. Landau,  
 Jie Liu,  E. I. Proynov,  R. M. Richard,  R. P. Steele,  E. J. Sundstrom,  
 H. L. Woodcock III,  P. M. Zimmerman,  D. Zuev,  B. Albrecht,  E. Alguire,  
 S. A. Baeppler,  Z. Benda,  Y. A. Bernard,  E. J. Berquist,  K. B. Bravaya,  
 D. Casanova,  Chun-Min Chang,  Yunqing Chen,  A. Chien,  K. D. Closser,  
 M. P. Coons,  S. Dasgupta,  M. Diedenhofen,  Hainam Do,  R. G. Edgar,  
 Po-Tung Fang,  S. Fatehi,  Qingguo Feng,  Qinghui Ge,  A. Ghysels,  
 J. Gomes,  J. Gonthier,  A. Gunina,  M. W. D. Hanson-Heine,  
 P. H. P. Harbach,  A. W. Hauser,  J. E. Herr,  E. G. Hohenstein,  
 Z. C. Holden,  Kerwin Hui,  T.-C. Jagau,  Hyunjun Ji,  B. Kaduk,  
 K. Khistyaev,  Jaehoon Kim,  P. Klunzinger,  K. Koh,  D. Kosenkov,  
 T. Kowalczyk,  C. M. Krauter,  A. Kunitsa,  Ka Un Lao,  A. Laurent,  
 K. V. Lawler,  Joonho Lee,  D. Lefrancois,  S. Lehtola,  D. S. Levine,  
 Yi-Pei Li,  You-Sheng Lin,  Fenglai Liu,  E. Livshits,  A. Luenser,  
 P. Manohar,  E. Mansoor,  S. F. Manzer,  Shan-Ping Mao,  Yuezhi Mao,  
 N. Mardirossian,  A. V. Marenich,  L. A. Martinez-Martinez,  S. A. Maurer,  
 N. J. Mayhall,  S. C. McKenzie,  J.-M. Mewes,  A. F. Morrison,  K. Nanda,  
 T. S. Nguyen-Beck,  R. Olivares-Amaya,  J. A. Parkhill,  T. M. Perrine,  
 F. Plasser,  S. Prager,  A. Prociuk,  D. R. Rehn,  F. Rob,  M. Schneider,  
 N. Sergueev,  S. M. Sharada,  S. Sharma,  D. W. Small,  T. Stauch,  
 T. Stein,  Yu-Chuan Su,  A. J. W. Thom,  T. Tsuchimochi,  L. Vogt,  
 O. Vydrov,  M. A. Watson,  J. Wenzel,  M. de Wergifosse,  T. A. Wesolowski,  
 A. White,  J. Witte,  A. Yamada,  Jun Yang,  K. Yao,  S. Yeganeh,  
 S. R. Yost,  Zhi-Qiang You,  A. Zech,  Igor Ying Zhang,  Xing Zhang,  
 Yan Zhao,  Ying Zhu,  B. R. Brooks,  G. K. L. Chan,  C. J. Cramer,  
 M. S. Gordon,  W. J. Hehre,  A. Klamt,  M. W. Schmidt,  C. D. Sherrill,  
 D. G. Truhlar,  A. Aspuru-Guzik,  R. Baer,  A. T. Bell,  N. A. Besley,  
 Jeng-Da Chai,  A. Dreuw,  B. D. Dunietz,  T. R. Furlani,  Chao-Ping Hsu,  
 Yousung Jung,  Jing Kong,  D. S. Lambrecht,  WanZhen Liang,  C. Ochsenfeld,  
 V. A. Rassolov,  L. V. Slipchenko,  J. E. Subotnik,  T. Van Voorhis,  
 J. M. Herbert,  A. I. Krylov,  P. M. W. Gill,  M. Head-Gordon

 Contributors to earlier versions of Q-Chem not listed above: 
 R. D. Adamson,  B. Austin,  J. Baker,  G. J. O. Beran,  K. Brandhorst,  
 S. T. Brown,  E. F. C. Byrd,  A. K. Chakraborty,  C.-L. Cheng,  
 Siu Hung Chien,  D. M. Chipman,  D. L. Crittenden,  H. Dachsel,  
 R. A. DiStasio Jr.,  R. J. Doerksen,  A. D. Dutoi,  L. Fusti-Molnar,  
 W. A. Goddard III,  A. Golubeva-Zadorozhnaya,  S. R. Gwaltney,  G. Hawkins,  
 A. Heyden,  S. Hirata,  G. Kedziora,  F. J. Keil,  C. Kelley,  Jihan Kim,  
 R. A. King,  R. Z. Khaliullin,  P. P. Korambath,  W. Kurlancheek,  
 A. M. Lee,  M. S. Lee,  S. V. Levchenko,  Ching Yeh Lin,  D. Liotard,  
 R. C. Lochan,  I. Lotan,  P. E. Maslen,  N. Nair,  D. P. O'Neill,  
 D. Neuhauser,  E. Neuscamman,  C. M. Oana,  R. Olson,  B. Peters,  
 R. Peverati,  P. A. Pieniazek,  Y. M. Rhee,  J. Ritchie,  M. A. Rohrdanz,  
 E. Rosta,  N. J. Russ,  H. F. Schaefer III,  N. E. Schultz,  N. Shenvi,  
 A. C. Simmonett,  A. Sodt,  D. Stuck,  K. S. Thanthiriwatte,  V. Vanovschi,  
 Tao Wang,  A. Warshel,  C. F. Williams,  Q. Wu,  X. Xu,  W. Zhang

 Please cite Q-Chem as follows:
 Y. Shao et al., Mol. Phys. 113, 184-215 (2015)
 DOI: 10.1080/00268976.2014.952696

 Q-Chem 5.0.1 for Intel X86 EM64T Linux

 Parts of Q-Chem use Armadillo 5.200.1 (Boston Tea Smuggler).
 http://arma.sourceforge.net/

 Q-Chem begins on Wed Jan 17 07:17:05 2018  

Host: vega02.cac.cornell.edu
0

     Scratch files written to /scratch/jj585/SOT1001/1423c.save//
 Parallel job on  1  processors

Checking the input file for inconsistencies... 	...done.

--------------------------------------------------------------
User input:
--------------------------------------------------------------
$molecule
0  1
O -3.94934 -3.66094 2.70899
C -3.26408 -4.56952 2.26188
C -3.36658 -6.02376 2.66595
C -2.76261 -7.06348 1.7078
C -1.9673 -6.5228 0.54022
O -2.12349 -5.16834 0.45992
C -2.62786 -4.7338 -0.80738
C -3.21226 -3.33017 -0.68726
O -4.09117 -3.06969 -1.79295
C -3.79995 -3.73454 -2.93851
C -3.98635 -5.22813 -2.81558
C -3.36164 -5.85742 -1.56178
C -2.96854 -4.89051 -0.46302
O -2.08614 -4.04812 -0.54239
O -1.94805 -4.1437 2.40514
O -4.30008 -5.29593 0.56326
O -3.98341 -3.18465 -4.0132
C -5.6362 -4.84039 0.91824
C -5.36544 -5.91865 -2.99975
C -5.17193 -7.29602 -3.63288
C -4.54758 -8.04507 -2.46808
C -4.55595 -6.94728 -1.38657
O -5.75581 -6.28293 -1.70798
H -3.37496 -5.55443 -3.69022
H -2.58504 -6.64969 -1.9183
H -6.08458 -5.30098 -3.5789
H -6.18189 -7.72385 -3.83064
H -4.58192 -7.29944 -4.57298
H -5.25525 -8.85058 -2.1638
H -3.55163 -8.49723 -2.65617
H -4.56168 -7.45889 -0.41424
O -1.20709 -7.18407 -0.15801
C -1.46863 -2.84679 2.26746
C -2.58183 -6.32401 3.95947
C -3.10243 -7.60323 4.61673
C -2.54223 -8.64614 3.6753
C -1.78416 -7.75379 2.68683
O -1.31233 -6.7018 3.49187
H -4.42866 -6.25215 2.87918
H -3.48241 -7.82032 1.34671
H -1.02076 -2.51245 3.22429
H -2.60924 -5.4816 4.68559
H -2.60318 -7.71311 5.60566
H -4.20507 -7.62933 4.75472
H -1.8142 -9.2708 4.23971
H -3.29533 -9.2999 3.18466
H -1.00453 -8.35262 2.16656
H -2.26262 -2.12853 1.96907
H -0.68695 -2.83075 1.4801
H -6.04075 -5.41188 1.77251
H -6.39332 -4.983 0.12483
H -5.6726 -3.76027 1.15996
H -3.86584 -2.97292 0.22012
H -2.74127 -2.20343 -0.62059
H -4.74676 -4.53935 -1.02361
H -1.59236 -4.92296 -2.08481
$end

$opt
CONSTRAINT
tors           1           2           3           4    +161.053
tors           3           4           5           6      -9.474
tors           4           5           6           7    -123.158
tors           5           6           7           8    +161.053
tors           6           7           8           9    -161.053
tors           7           8           9          10     -28.421
tors           8           9          10          11     +66.316
tors           9          10          11          12     -47.368
tors          11          12          13          14     -66.316
ENDCONSTRAINT
$end

$rem
JOBTYPE                   OPT
METHOD                    B3LYP
DFT_D                     d3_op
BASIS                     STO-3G
GEOM_OPT_MAX_CYCLES       100
GEOM_OPT_TOL_GRADIENT     300
GEOM_OPT_TOL_DISPLACEMENT 1200
GEOM_OPT_TOL_ENERGY       100
SYMMETRY                  False
THRESH                    12
SCF_CONVERGENCE           8
MAX_SUB_FILE_NUM          128
MEM_STATIC                400
MEM_TOTAL                 4000
$end
--------------------------------------------------------------
 Adding empirical dispersion correction 
 ----------------------------------------------------------------
 Doing -D3(op) with
 s6 =   1.00000
 s8 =   0.78311
 a1 =   0.30000
 a2 =   4.25000
 n  =  10.00000
 -D3 energy without 3body term =     -0.0963372372 hartrees
 ----------------------------------------------------------------
             Standard Nuclear Orientation (Angstroms)
    I     Atom           X                Y                Z
 ----------------------------------------------------------------
    1      O      -1.7291920050    -1.9942342699     1.7451631818
    2      C      -1.7001752062    -1.2100429759     0.8075021151
    3      C      -2.3210950656     0.1694502135     0.8004408761
    4      C      -1.8160440308     1.1618771879    -0.2596822367
    5      C      -0.8749525811     0.6090403910    -1.3069712485
    6      O      -0.4935292574    -0.6572984327    -0.9659323512
    7      C       0.9262183429    -0.8095542811    -0.8639602640
    8      C       1.2642661157    -2.0543079798    -0.0500553038
    9      O       2.6174855127    -1.9759415703     0.4248541234
   10      C       3.4660409736    -1.2542721040    -0.3486373992
   11      C       3.1254883605     0.2166515940    -0.3814280263
   12      C       1.6436259395     0.5325974311    -0.6315178530
   13      C       0.6823360187    -0.6258602724    -0.4565506186
   14      O       0.6409071883    -1.6249550821    -1.1598595707
   15      O      -2.1635928095    -1.9289576680    -0.2889407021
   16      O       0.0660357545    -0.0685642229     1.0600936653
   17      O       4.6282343681    -1.6125628580    -0.4578593258
   18      C       0.2398495662    -0.2599650498     2.4925386481
   19      C       3.5962817311     1.2106330942     0.7153764535
   20      C       3.8627994480     2.5795683717     0.0905305953
   21      C       2.4410759289     3.0225332541    -0.2096896794
   22      C       1.6461913164     1.8277615014     0.3520537966
   23      O       2.4466825864     1.4884022491     1.4603761120
   24      H       3.6863384095     0.5067445378    -1.3015138148
   25      H       1.5819422622     1.1729257824    -1.6031559286
   26      H       4.4775625426     0.8428654914     1.2829893608
   27      H       4.2809298712     3.2399667416     0.8850163852
   28      H       4.5527276290     2.5700594329    -0.7788486037
   29      H       2.2256203460     3.9196210001     0.4156438117
   30      H       2.2188667897     3.2646535487    -1.2697574968
   31      H       0.6456579522     2.2032844227     0.6072376057
   32      O      -0.5885558644     1.1686576409    -2.3593627366
   33      C      -1.9383096715    -3.2720995522    -0.5646076271
   34      C      -3.8272747837     0.1269167516     0.4706073168
   35      C      -4.5198778138     1.3974420960     0.9660720158
   36      C      -4.0173197671     2.4004933322    -0.0483733402
   37      C      -3.1643256562     1.4932986096    -0.9413629093
   38      O      -3.8606593867     0.2717079408    -0.9261483075
   39      H      -2.2312001739     0.5972570415     1.8175658329
   40      H      -1.3992075482     2.0971900511     0.1559401983
   41      H      -2.9050652758    -3.8128599940    -0.5938679666
   42      H      -4.3340872973    -0.7724098079     0.8853469773
   43      H      -5.6171409777     1.2712506840     0.8268024984
   44      H      -4.3087711205     1.6477621507     2.0282919807
   45      H      -4.8889910234     2.7749029937    -0.6304326764
   46      H      -3.4498852384     3.2594703981     0.3705130561
   47      H      -3.0377284387     1.9661238852    -1.9401174246
   48      H      -1.2757838573    -3.7556373045     0.1854623212
   49      H      -1.4467093230    -3.3615151031    -1.5553399977
   50      H      -0.5376074469     0.2757708664     3.0657631909
   51      H       1.1876411985     0.1428999678     2.8956000999
   52      H       0.2319196453    -1.3271588956     2.7882532820
   53      H       0.6920205539    -2.3691488640     0.9254153918
   54      H       1.2696012222    -3.2563210122    -0.2757890039
   55      H       1.8264884992    -0.5054109500     1.0521070378
   56      H       1.7555371118    -0.6952865604    -2.2919106932
 ----------------------------------------------------------------
 Molecular Point Group                 C1    NOp =  1
 Largest Abelian Subgroup              C1    NOp =  1
 Nuclear Repulsion Energy =  3801.4006814750 hartrees
 There are      113 alpha and      113 beta electrons
 Requested basis set is STO-3G
 There are 86 shells and 176 basis functions

 Total QAlloc Memory Limit   4000 MB
 Mega-Array Size       392 MB
 MEM_STATIC part       400 MB
 A cutoff of  1.0D-12 yielded   2881 shell pairs
 There are     13555 function pairs
 
 -------------------------------------------------------
 OpenMP Integral Computing Module                       
 Release: version 1.0, May 2013, Q-Chem Inc. Pittsburgh 
 -------------------------------------------------------
 Integral Job Info:
 Integral job number is                      11
 Integral operator is                         1
 short-range coefficients                     0
 long-range coefficients              100000000
 Omega coefficients                           0
 if combine SR and LR in K                    0
 Integral screening is                        0
 Integral computing path is                   2
 max size of driver memory is            800000
 size of driver memory is                 45569
 size of scratch memory is              1046100
 max col of scratch BK array                289
 max len of scratch array in speh3           22
 max len of scratch index in speh4            8
 max int batch size is                      520
 min int batch size is                       52
 fixed nKL is                                52
 max L of basis functions is                  1
 order of int derivative is                   0
 number of shells is                         86
 number of basis is                         176
 number of cartesian basis is               176
 number of contracted shell pairs          2881
 number of primitive shell pairs          14867
 maxK2 (contraction) of shell pair            9
 max number of K2 of shell pair               1
 max number of CS2 of shell pair            439
 max number of PS2 of shell pair           1788
 mem total for path MDJ                   72202
 -------------------------------------------------------
 Smallest overlap matrix eigenvalue = 3.20E-03

 Scale SEOQF with 1.000000e-02/1.000000e-01/1.000000e-01

 Standard Electronic Orientation quadrupole field applied
 Nucleus-field energy     =     0.0000000212 hartrees
 Guess from superposition of atomic densities
 Warning:  Energy on first SCF cycle will be non-variational
 A restricted hybrid HF-DFT SCF calculation will be
 performed using Pulay DIIS extrapolation
 Exchange:     0.2000 Hartree-Fock + 0.0800 Slater + 0.7200 B88
 Correlation:  0.1900 VWN1RPA + 0.8100 LYP
 Using SG-1 standard quadrature grid
 Dispersion:   Grimme D3
 SCF converges when DIIS error is below 1.0E-08
 using 48 threads for integral computing
 -------------------------------------------------------
 OpenMP Integral computing Module                
 Release: version 1.0, May 2013, Q-Chem Inc. Pittsburgh 
 -------------------------------------------------------
 -------------------------------------------------------
 OpenMP BLAS3 based DFT computing Module                
 Release: version 1.0, May 2013, Q-Chem Inc. Pittsburgh 
 -------------------------------------------------------
 ---------------------------------------
  Cycle       Energy         DIIS Error
 ---------------------------------------
    1   -1510.6410928191      1.25E-01
    2   -1500.8859556921      1.38E-02
    3   -1486.5316683480      4.93E-02
    4   -1500.7153784072      1.14E-02
    5   -1500.2932321596      1.59E-02
    6   -1501.8432041553      4.08E-03
    7   -1501.4123266315      8.52E-03
    8   -1501.9166064347      2.56E-03
    9   -1501.9483784885      1.17E-03
   10   -1501.9509646249      9.52E-04
   11   -1501.9552030171      4.78E-04
   12   -1501.9548251619      5.19E-04
   13   -1501.9560548965      2.81E-04
   14   -1501.9564067599      1.30E-04
   15   -1501.9564992731      3.63E-05
   16   -1501.9565053547      1.64E-05
   17   -1501.9565063853      1.28E-05
   18   -1501.9565071408      8.77E-06
   19   -1501.9565073670      6.89E-06
   20   -1501.9565075395      4.06E-06
   21   -1501.9565076351      1.14E-06
   22   -1501.9565076412      5.18E-07
   23   -1501.9565076426      7.28E-08
   24   -1501.9565076427      1.92E-08
   25   -1501.9565076428      8.44E-09 Convergence criterion met
 ---------------------------------------
 SCF time:  CPU 236.71 s  wall 4.99 s
 SCF   energy in the final basis set = -1501.95650764
 Total energy in the final basis set = -1501.95650764
 
 --------------------------------------------------------------
 
                    Orbital Energies (a.u.)
 --------------------------------------------------------------
 
 Alpha MOs
 -- Occupied --
-19.203 -19.005 -18.995 -18.936 -18.918 -18.916 -18.891 -18.867
-18.842 -18.807 -11.872 -10.905 -10.162 -10.144 -10.126 -10.122
-10.096 -10.085 -10.064 -10.063 -10.060 -10.056 -10.055 -10.047
-10.032 -10.031 -10.030 -10.025 -10.012 -10.010  -1.756  -1.294
 -1.121  -1.068  -1.049  -1.025  -1.016  -1.011  -0.994  -0.965
 -0.909  -0.886  -0.833  -0.790  -0.770  -0.755  -0.736  -0.728
 -0.721  -0.716  -0.655  -0.641  -0.640  -0.607  -0.602  -0.593
 -0.562  -0.549  -0.543  -0.531  -0.518  -0.514  -0.502  -0.492
 -0.478  -0.470  -0.457  -0.451  -0.443  -0.435  -0.430  -0.419
 -0.412  -0.408  -0.397  -0.394  -0.385  -0.381  -0.377  -0.370
 -0.364  -0.358  -0.349  -0.344  -0.342  -0.340  -0.332  -0.324
 -0.324  -0.316  -0.314  -0.308  -0.302  -0.296  -0.295  -0.277
 -0.272  -0.260  -0.249  -0.231  -0.225  -0.208  -0.199  -0.194
 -0.183  -0.182  -0.176  -0.144  -0.136  -0.125  -0.101  -0.094
 -0.034
 -- Virtual --
  0.007   0.025   0.051   0.085   0.100   0.127   0.163   0.189
  0.242   0.262   0.273   0.301   0.310   0.317   0.321   0.334
  0.336   0.340   0.342   0.350   0.355   0.361   0.375   0.377
  0.381   0.387   0.389   0.396   0.401   0.405   0.414   0.414
  0.422   0.425   0.431   0.440   0.442   0.446   0.451   0.454
  0.458   0.466   0.466   0.473   0.477   0.479   0.487   0.494
  0.505   0.512   0.521   0.537   0.550   0.564   0.568   0.579
  0.593   0.606   0.640   0.656   0.715   1.313   5.427
 --------------------------------------------------------------
 
          Ground-State Mulliken Net Atomic Charges

     Atom                 Charge (a.u.)
  ----------------------------------------
      1 O                    -0.273382
      2 C                     0.224138
      3 C                    -0.070382
      4 C                    -0.083957
      5 C                     0.222096
      6 O                    -0.102165
      7 C                    -0.100647
      8 C                     0.087256
      9 O                    -0.141758
     10 C                     0.240320
     11 C                    -0.076012
     12 C                     0.156861
     13 C                     0.097315
     14 O                    -0.055099
     15 O                    -0.231155
     16 O                    -0.199873
     17 O                    -0.183598
     18 C                    -0.137879
     19 C                     0.045749
     20 C                    -0.141274
     21 C                    -0.149329
     22 C                     0.031511
     23 O                    -0.193538
     24 H                     0.088550
     25 H                     0.133350
     26 H                     0.094349
     27 H                     0.079623
     28 H                     0.077296
     29 H                     0.080421
     30 H                     0.073746
     31 H                     0.084907
     32 O                    -0.187227
     33 C                    -0.106574
     34 C                     0.040440
     35 C                    -0.143967
     36 C                    -0.143813
     37 C                     0.038406
     38 O                    -0.210064
     39 H                     0.081306
     40 H                     0.081349
     41 H                     0.082576
     42 H                     0.085298
     43 H                     0.074002
     44 H                     0.070112
     45 H                     0.074212
     46 H                     0.068267
     47 H                     0.081831
     48 H                     0.075182
     49 H                     0.074302
     50 H                     0.088029
     51 H                     0.084984
     52 H                     0.079487
     53 H                     0.143653
     54 H                     0.027651
     55 H                    -0.045005
     56 H                    -0.191879
  ----------------------------------------
  Sum of atomic charges =     0.000000

 -----------------------------------------------------------------
                    Cartesian Multipole Moments
 -----------------------------------------------------------------
    Charge (ESU x 10^10)
                 0.0000
    Dipole Moment (Debye)
         X       1.1720      Y       3.1981      Z       1.2081
       Tot       3.6140
    Quadrupole Moments (Debye-Ang)
        XX    -167.5810     XY       3.7357     YY    -157.4999
        XZ      -1.1475     YZ       2.2762     ZZ    -170.0141
    Octopole Moments (Debye-Ang^2)
       XXX     -28.6347    XXY      44.6394    XYY      -6.1921
       YYY     -27.0677    XXZ      18.2422    XYZ     -10.7945
       YYZ      -8.0461    XZZ       3.9716    YZZ      -3.4349
       ZZZ      13.8921
    Hexadecapole Moments (Debye-Ang^3)
      XXXX   -6939.5782   XXXY     156.4250   XXYY   -1607.4575
      XYYY      43.9885   YYYY   -2728.5703   XXXZ      30.0030
      XXYZ     -19.8369   XYYZ      35.5928   YYYZ      24.8869
      XXZZ   -1342.9798   XYZZ     -19.5168   YYZZ    -683.6842
      XZZZ      38.9370   YZZZ       8.7385   ZZZZ   -1238.5380
 -----------------------------------------------------------------
 Calculating analytic gradient of the SCF energy
 Gradient of SCF Energy
            1           2           3           4           5           6
    1  -0.0413295   0.0387769  -0.0053646   0.0072347   0.0635351   0.7031887
    2   0.0334833   0.0270786  -0.0338942  -0.0360980  -0.0415575  -0.2158160
    3  -0.1210998  -0.0126235  -0.0302798  -0.0131781  -0.0306905   0.1179051
            7           8           9          10          11          12
    1  -7.7318539  -0.0792358   0.0064460  -0.0271215  -0.0018724  -0.1281625
    2   3.7837328   0.5317317   0.0345506  -0.0369497  -0.0087280  -0.2670970
    3  11.3327472  -0.2594578  -0.0444584  -0.0160923   0.0682885  -0.0443702
           13          14          15          16          17          18
    1   6.7373305   0.3728083   0.0486985   0.0640977  -0.0595392  -0.0422759
    2  -6.1092394   2.4307781  -0.0579327  -0.0392881   0.0304181   0.0201932
    3 -12.1972611   1.0837797   0.1132647  -0.0089737   0.0227059  -0.0117873
           19          20          21          22          23          24
    1  -0.0622292  -0.0443195   0.0107301   0.0534773   0.0372819   0.0062033
    2   0.0282049  -0.0275600  -0.0342442  -0.0399397   0.0253351  -0.0050495
    3   0.0034738   0.0107946   0.0228223   0.0025296  -0.0842934   0.0014944
           25          26          27          28          29          30
    1   0.0287301   0.0082597  -0.0027982   0.0041526   0.0056928  -0.0028644
    2   0.0521113   0.0031867   0.0064739   0.0007017   0.0064186   0.0021958
    3  -0.0158994  -0.0066154   0.0097189  -0.0053296   0.0104128  -0.0044173
           31          32          33          34          35          36
    1   0.0061761  -0.0243903  -0.0230538   0.0202335   0.0331143   0.0101297
    2   0.0101972  -0.0167521   0.0320434   0.0422535  -0.0060895  -0.0490138
    3  -0.0098638   0.0491227  -0.0108614  -0.0530647  -0.0391721   0.0035963
           37          38          39          40          41          42
    1  -0.0163975   0.0328467  -0.0069793  -0.0019340   0.0014835  -0.0030944
    2  -0.0563020   0.0467985   0.0043114   0.0038345   0.0038881   0.0025240
    3   0.0430846   0.0654155   0.0034330  -0.0034075  -0.0000987   0.0128775
           43          44          45          46          47          48
    1  -0.0079559   0.0017747  -0.0116896   0.0054830   0.0005876   0.0021980
    2   0.0001362   0.0020644  -0.0038702   0.0056828   0.0131589   0.0044462
    3  -0.0086140   0.0080003  -0.0023595   0.0026571   0.0028277  -0.0026523
           49          50          51          52          53          54
    1   0.0003128   0.0118132  -0.0056513   0.0072067   0.0064509  -0.0133368
    2   0.0038969  -0.0000998  -0.0043902   0.0050925  -0.0366810  -0.0342356
    3   0.0042355   0.0099379   0.0039500  -0.0014936   0.0254772   0.0150550
           55          56
    1  -0.0174542   0.0244485
    2  -0.0218331  -0.0142619
    3   0.0139263  -0.0251184
 Max gradient component =       1.220E+01
 RMS gradient           =       1.623E+00
 Gradient time:  CPU 38.96 s  wall 0.83 s
 Geometry Optimization Parameters
   NAtoms,    NIC,     NZ,  NCons,   NDum,   NFix, NCnnct, MaxDiis
       56     911       0       9       0       0       0       0


** CONSTRAINED OPTIMIZATION IN DELOCALIZED INTERNAL COORDINATES **
   Searching for a Minimum

   Optimization Cycle:   1

                       Coordinates (Angstroms)
     ATOM                X               Y               Z
      1  O        -1.7291920050   -1.9942342699    1.7451631818
      2  C        -1.7001752062   -1.2100429759    0.8075021151
      3  C        -2.3210950656    0.1694502135    0.8004408761
      4  C        -1.8160440308    1.1618771879   -0.2596822367
      5  C        -0.8749525811    0.6090403910   -1.3069712485
      6  O        -0.4935292574   -0.6572984327   -0.9659323512
      7  C         0.9262183429   -0.8095542811   -0.8639602640
      8  C         1.2642661157   -2.0543079798   -0.0500553038
      9  O         2.6174855127   -1.9759415703    0.4248541234
     10  C         3.4660409736   -1.2542721040   -0.3486373992
     11  C         3.1254883605    0.2166515940   -0.3814280263
     12  C         1.6436259395    0.5325974311   -0.6315178530
     13  C         0.6823360187   -0.6258602724   -0.4565506186
     14  O         0.6409071883   -1.6249550821   -1.1598595707
     15  O        -2.1635928095   -1.9289576680   -0.2889407021
     16  O         0.0660357545   -0.0685642229    1.0600936653
     17  O         4.6282343681   -1.6125628580   -0.4578593258
     18  C         0.2398495662   -0.2599650498    2.4925386481
     19  C         3.5962817311    1.2106330942    0.7153764535
     20  C         3.8627994480    2.5795683717    0.0905305953
     21  C         2.4410759289    3.0225332541   -0.2096896794
     22  C         1.6461913164    1.8277615014    0.3520537966
     23  O         2.4466825864    1.4884022491    1.4603761120
     24  H         3.6863384095    0.5067445378   -1.3015138148
     25  H         1.5819422622    1.1729257824   -1.6031559286
     26  H         4.4775625426    0.8428654914    1.2829893608
     27  H         4.2809298712    3.2399667416    0.8850163852
     28  H         4.5527276290    2.5700594329   -0.7788486037
     29  H         2.2256203460    3.9196210001    0.4156438117
     30  H         2.2188667897    3.2646535487   -1.2697574968
     31  H         0.6456579522    2.2032844227    0.6072376057
     32  O        -0.5885558644    1.1686576409   -2.3593627366
     33  C        -1.9383096715   -3.2720995522   -0.5646076271
     34  C        -3.8272747837    0.1269167516    0.4706073168
     35  C        -4.5198778138    1.3974420960    0.9660720158
     36  C        -4.0173197671    2.4004933322   -0.0483733402
     37  C        -3.1643256562    1.4932986096   -0.9413629093
     38  O        -3.8606593867    0.2717079408   -0.9261483075
     39  H        -2.2312001739    0.5972570415    1.8175658329
     40  H        -1.3992075482    2.0971900511    0.1559401983
     41  H        -2.9050652758   -3.8128599940   -0.5938679666
     42  H        -4.3340872973   -0.7724098079    0.8853469773
     43  H        -5.6171409777    1.2712506840    0.8268024984
     44  H        -4.3087711205    1.6477621507    2.0282919807
     45  H        -4.8889910234    2.7749029937   -0.6304326764
     46  H        -3.4498852384    3.2594703981    0.3705130561
     47  H        -3.0377284387    1.9661238852   -1.9401174246
     48  H        -1.2757838573   -3.7556373045    0.1854623212
     49  H        -1.4467093230   -3.3615151031   -1.5553399977
     50  H        -0.5376074469    0.2757708664    3.0657631909
     51  H         1.1876411985    0.1428999678    2.8956000999
     52  H         0.2319196453   -1.3271588956    2.7882532820
     53  H         0.6920205539   -2.3691488640    0.9254153918
     54  H         1.2696012222   -3.2563210122   -0.2757890039
     55  H         1.8264884992   -0.5054109500    1.0521070378
     56  H         1.7555371118   -0.6952865604   -2.2919106932
   Point Group: c1    Number of degrees of freedom:   162


   Energy is  -1501.956507643

              Constraints and their Current Values
                                        Value     Constraint
   Dihedral:        1   2   3   4      161.052      161.053
   Dihedral:        3   4   5   6       -9.474       -9.474
   Dihedral:        4   5   6   7     -123.158     -123.158
   Dihedral:        5   6   7   8      161.052      161.053
   Dihedral:        6   7   8   9     -161.053     -161.053
   Dihedral:        7   8   9  10      -28.421      -28.421
   Dihedral:        8   9  10  11       66.316       66.316
   Dihedral:        9  10  11  12      -47.368      -47.368
   Dihedral:       11  12  13  14      -66.316      -66.316

 Attempting to Generate Delocalized Internal Coordinates

   Using Lagrange Multiplier Algorithm


171 Hessian modes will be used to form the next step
  Hessian Eigenvalues:
   -64.090256   -0.977753   -0.977753   -0.977753   -0.977753   -0.977753
    -0.977753   -0.977753   -0.977753   -0.977753    0.045000    0.045000
     0.045000    0.045101    0.045548    0.045776    0.046808    0.047157
     0.048650    0.048893    0.049508    0.051341    0.053081    0.054355
     0.055802    0.057211    0.057905    0.058991    0.059953    0.060157
     0.063529    0.063667    0.064017    0.066776    0.066978    0.067103
     0.067886    0.068486    0.070816    0.071132    0.072282    0.074162
     0.076041    0.076231    0.076672    0.076992    0.080080    0.081719
     0.082491    0.082822    0.083606    0.084368    0.085166    0.085598
     0.085846    0.086691    0.087052    0.087472    0.088046    0.088695
     0.089120    0.089394    0.089434    0.089576    0.090125    0.090844
     0.091711    0.091969    0.093311    0.094066    0.096641    0.096665
     0.098661    0.101844    0.106169    0.111571    0.111616    0.112984
     0.113698    0.115761    0.117359    0.117920    0.118883    0.119801
     0.125499    0.127587    0.128200    0.129030    0.130160    0.139567
     0.154754    0.158493    0.160000    0.160000    0.160000    0.160000
     0.160000    0.160000    0.168499    0.171722    0.172485    0.182244
     0.196035    0.207550    0.213048    0.223867    0.225835    0.230574
     0.237874    0.239204    0.247561    0.250000    0.250000    0.250000
     0.254224    0.258442    0.263364    0.264628    0.266697    0.266875
     0.269842    0.280108    0.281629    0.292027    0.295443    0.310698
     0.310861    0.319818    0.321226    0.321256    0.322592    0.322836
     0.323368    0.323629    0.324367    0.324454    0.324485    0.325052
     0.326090    0.326171    0.326422    0.328016    0.328731    0.329103
     0.330354    0.331215    0.331835    0.338232    0.359844    0.370275
     0.372223    0.375218    0.379579    0.385824    0.424334    0.472137
     0.474018    0.517926    0.928351    0.941950    0.949138    1.022753
     1.022753    1.022753    1.022753    1.022753    1.022753    1.022753
     1.022753    1.022753    1.105443
**WARNING** Magnitude of eigenvalue   1 too large.  Replaced by   -25.000000
**WARNING** Hessian does not have the Desired Local Structure

 Minimum Search - Taking P-RFO Step
 Searching for Lamda that Maximizes Along the Constraint modes Only
 Value Taken    Lamda =   5.35568534
 Searching for Lamda that Minimizes Along All other modes
 Value Taken    Lamda =  -5.30582260
 Step Taken.  Stepsize is  0.261805

                             Maximum     Tolerance    Cnvgd?
         Gradient            5.300912       0.000300      NO
         Displacement        0.837082       0.001200      NO
         Energy change     *********       0.000001      NO


 New Cartesian Coordinates Obtained by Inverse Iteration

 Displacement from previous Coordinates is:  0.920915
 Adding empirical dispersion correction 
 ----------------------------------------------------------------
 Doing -D3(op) with
 s6 =   1.00000
 s8 =   0.78311
 a1 =   0.30000
 a2 =   4.25000
 n  =  10.00000
 -D3 energy without 3body term =     -0.0951714395 hartrees
 ----------------------------------------------------------------
             Standard Nuclear Orientation (Angstroms)
    I     Atom           X                Y                Z
 ----------------------------------------------------------------
    1      O      -1.8239786553    -2.0003720774     1.7958605290
    2      C      -1.7684343847    -1.2218914398     0.8422023105
    3      C      -2.3650583092     0.1713025473     0.8149944444
    4      C      -1.8330201807     1.1543895892    -0.2505781643
    5      C      -0.8827382590     0.5917222294    -1.2960592404
    6      O      -0.4932935168    -0.6876720030    -0.9771049113
    7      C       0.9533983258    -0.8264960460    -0.8829472010
    8      C       1.3114949989    -2.0937947148    -0.0770447236
    9      O       2.6442298959    -1.9657928163     0.3937419030
   10      C       3.4930965480    -1.1974185182    -0.3306335072
   11      C       3.1883619228     0.2685080099    -0.3596958114
   12      C       1.6621359343     0.5239221573    -0.6548991872
   13      C       0.7203957760    -0.6561601538    -0.4763532975
   14      O       0.6575936135    -1.6652800894    -1.2105413688
   15      O      -2.2372994133    -1.9354503995    -0.2652341195
   16      O       0.1186876383    -0.1209725844     1.0552259556
   17      O       4.6635777610    -1.5538211801    -0.4198002047
   18      C       0.3121156733    -0.3293408347     2.4833072890
   19      C       3.6330931828     1.2579600767     0.7324793486
   20      C       3.8806626163     2.6268090000     0.0985418367
   21      C       2.4412807549     3.0379484208    -0.2090312563
   22      C       1.6588850536     1.8246574737     0.3524470156
   23      O       2.4682349983     1.5102664726     1.4655961488
   24      H       3.7630905287     0.5746547370    -1.2658475528
   25      H       1.5796583979     1.1650215439    -1.6148378705
   26      H       4.5114747940     0.9046788716     1.3132418803
   27      H       4.2800752783     3.2989730061     0.8915067659
   28      H       4.5763684777     2.6282483425    -0.7654596389
   29      H       2.2117999013     3.9312028104     0.4151398695
   30      H       2.2125467815     3.2732980080    -1.2687195447
   31      H       0.6503181536     2.1765002494     0.6115157766
   32      O      -0.5947151114     1.1589936850    -2.3494071738
   33      C      -2.0323968785    -3.2892238251    -0.5246808215
   34      C      -3.8707854152     0.1437887068     0.4663873392
   35      C      -4.5553354836     1.4283933171     0.9460027705
   36      C      -4.0283391911     2.4208899843    -0.0709124184
   37      C      -3.1735233497     1.4973018621    -0.9510003583
   38      O      -3.8865168930     0.2790234362    -0.9376995895
   39      H      -2.2805372646     0.6050734015     1.8296178766
   40      H      -1.4099240661     2.0867384656     0.1650701896
   41      H      -3.0087350081    -3.8125089537    -0.5633289189
   42      H      -4.3926511945    -0.7463967469     0.8811349121
   43      H      -5.6515662718     1.3140227359     0.7955369300
   44      H      -4.3535430941     1.6831592885     2.0081491383
   45      H      -4.8877843356     2.8018767069    -0.6651217240
   46      H      -3.4563096751     3.2751361452     0.3493531716
   47      H      -3.0299536872     1.9629418787    -1.9505043611
   48      H      -1.3910225461    -3.7779814408     0.2405749364
   49      H      -1.5276604039    -3.3990798204    -1.5071341068
   50      H      -0.4646781192     0.1933672378     3.0698793684
   51      H       1.2618301499     0.0772046772     2.8793799811
   52      H       0.3158270097    -1.4005539743     2.7661799332
   53      H       0.7513349818    -2.4183229946     0.8990827238
   54      H       1.3253991382    -3.2922721698    -0.3052605300
   55      H       1.8682662361    -0.5371403704     1.0299986679
   56      H       1.7638577498    -0.6946160766    -2.3304265857
 ----------------------------------------------------------------
 Molecular Point Group                 C1    NOp =  1
 Largest Abelian Subgroup              C1    NOp =  1
 Nuclear Repulsion Energy =  3771.7298706701 hartrees
 There are      113 alpha and      113 beta electrons
 Applying Cartesian multipole field
    Component          Value
    ---------          -----
     (2,0,0)        1.00000E-12
     (0,2,0)        2.00000E-11
     (0,0,2)       -3.00000E-11
 Nucleus-field energy     =     0.0000000217 hartrees
 Requested basis set is STO-3G
 There are 86 shells and 176 basis functions
 A cutoff of  1.0D-12 yielded   2854 shell pairs
 There are     13411 function pairs
 Smallest overlap matrix eigenvalue = 3.19E-03
 Guess MOs from SCF MO coefficient file
 Reading MOs from coefficient file
 Reading MOs from coefficient file
 A restricted hybrid HF-DFT SCF calculation will be
 performed using Pulay DIIS extrapolation
 Exchange:     0.2000 Hartree-Fock + 0.0800 Slater + 0.7200 B88
 Correlation:  0.1900 VWN1RPA + 0.8100 LYP
 Using SG-1 standard quadrature grid
 Dispersion:   Grimme D3
 SCF converges when DIIS error is below 1.0E-08
 Geometry optimization detected.  Setting ReadMinima to 0
 Setting SaveMinima to 0
 using 48 threads for integral computing
 -------------------------------------------------------
 OpenMP Integral computing Module                
 Release: version 1.0, May 2013, Q-Chem Inc. Pittsburgh 
 -------------------------------------------------------
 -------------------------------------------------------
 OpenMP BLAS3 based DFT computing Module                
 Release: version 1.0, May 2013, Q-Chem Inc. Pittsburgh 
 -------------------------------------------------------
 ---------------------------------------
  Cycle       Energy         DIIS Error
 ---------------------------------------
    1   -1501.8955501822      4.72E-03
    2   -1501.8551222331      1.96E-03
    3   -1501.5719845057      7.61E-03
    4   -1501.8548545328      1.77E-03
    5   -1501.8740019756      5.74E-04
    6   -1501.8755646942      3.01E-04
    7   -1501.8760278761      1.56E-04
    8   -1501.8761390868      6.06E-05
    9   -1501.8761567039      3.27E-05
   10   -1501.8761609361      1.64E-05
   11   -1501.8761626002      5.35E-06
   12   -1501.8761628012      2.14E-06
   13   -1501.8761628270      8.43E-07
   14   -1501.8761628308      5.63E-07
   15   -1501.8761628325      2.44E-07
   16   -1501.8761628328      9.76E-08
   17   -1501.8761628328      4.50E-08
   18   -1501.8761628328      1.25E-08
   19   -1501.8761628327      7.46E-09 Convergence criterion met
 ---------------------------------------
 SCF time:  CPU 172.67 s  wall 3.61 s
 SCF   energy in the final basis set = -1501.87616283
 Total energy in the final basis set = -1501.87616283
 
 --------------------------------------------------------------
 
                    Orbital Energies (a.u.)
 --------------------------------------------------------------
 
 Alpha MOs
 -- Occupied --
-19.159 -19.009 -18.981 -18.934 -18.915 -18.907 -18.891 -18.870
-18.833 -18.813 -11.967 -10.915 -10.157 -10.147 -10.116 -10.112
-10.099 -10.084 -10.068 -10.060 -10.059 -10.057 -10.054 -10.046
-10.034 -10.029 -10.029 -10.027 -10.012 -10.010  -1.697  -1.259
 -1.123  -1.072  -1.047  -1.019  -1.008  -1.006  -0.995  -0.950
 -0.905  -0.881  -0.809  -0.789  -0.767  -0.752  -0.732  -0.721
 -0.716  -0.714  -0.652  -0.642  -0.633  -0.604  -0.600  -0.579
 -0.564  -0.547  -0.541  -0.530  -0.512  -0.509  -0.491  -0.491
 -0.476  -0.468  -0.457  -0.448  -0.442  -0.432  -0.428  -0.418
 -0.410  -0.406  -0.396  -0.392  -0.385  -0.379  -0.376  -0.369
 -0.362  -0.358  -0.346  -0.342  -0.341  -0.337  -0.331  -0.324
 -0.323  -0.317  -0.312  -0.306  -0.299  -0.296  -0.294  -0.274
 -0.272  -0.258  -0.246  -0.229  -0.218  -0.215  -0.199  -0.194
 -0.183  -0.180  -0.168  -0.143  -0.132  -0.126  -0.099  -0.093
 -0.037
 -- Virtual --
  0.008   0.023   0.048   0.085   0.105   0.118   0.164   0.187
  0.245   0.260   0.267   0.290   0.307   0.316   0.323   0.329
  0.335   0.342   0.343   0.347   0.353   0.358   0.372   0.376
  0.381   0.385   0.388   0.396   0.398   0.404   0.412   0.413
  0.421   0.423   0.431   0.438   0.441   0.444   0.448   0.452
  0.457   0.464   0.465   0.471   0.475   0.479   0.486   0.493
  0.503   0.510   0.523   0.535   0.545   0.559   0.566   0.573
  0.589   0.595   0.628   0.650   0.698   1.233   5.503
 --------------------------------------------------------------
 
          Ground-State Mulliken Net Atomic Charges

     Atom                 Charge (a.u.)
  ----------------------------------------
      1 O                    -0.262346
      2 C                     0.219980
      3 C                    -0.071771
      4 C                    -0.082796
      5 C                     0.214450
      6 O                    -0.103376
      7 C                    -0.119390
      8 C                     0.085745
      9 O                    -0.142949
     10 C                     0.237997
     11 C                    -0.074768
     12 C                     0.142757
     13 C                     0.106689
     14 O                    -0.042225
     15 O                    -0.225997
     16 O                    -0.210951
     17 O                    -0.181327
     18 C                    -0.138776
     19 C                     0.044171
     20 C                    -0.140999
     21 C                    -0.149498
     22 C                     0.027960
     23 O                    -0.196117
     24 H                     0.093573
     25 H                     0.137244
     26 H                     0.096032
     27 H                     0.079984
     28 H                     0.077813
     29 H                     0.079875
     30 H                     0.073343
     31 H                     0.083427
     32 O                    -0.192561
     33 C                    -0.107050
     34 C                     0.040680
     35 C                    -0.144033
     36 C                    -0.144051
     37 C                     0.037292
     38 O                    -0.207350
     39 H                     0.082249
     40 H                     0.080796
     41 H                     0.082297
     42 H                     0.085639
     43 H                     0.074435
     44 H                     0.070593
     45 H                     0.074246
     46 H                     0.068610
     47 H                     0.082526
     48 H                     0.075765
     49 H                     0.075324
     50 H                     0.085828
     51 H                     0.081361
     52 H                     0.074361
     53 H                     0.138403
     54 H                     0.031836
     55 H                    -0.007022
     56 H                    -0.197931
  ----------------------------------------
  Sum of atomic charges =     0.000000

 -----------------------------------------------------------------
                    Cartesian Multipole Moments
 -----------------------------------------------------------------
    Charge (ESU x 10^10)
                 0.0000
    Dipole Moment (Debye)
         X       1.4848      Y       3.0096      Z       1.4624
       Tot       3.6607
    Quadrupole Moments (Debye-Ang)
        XX    -165.8509     XY       3.5592     YY    -156.9153
        XZ      -0.7800     YZ       1.8881     ZZ    -170.7573
    Octopole Moments (Debye-Ang^2)
       XXX     -26.4283    XXY      45.2091    XYY      -5.5769
       YYY     -29.9141    XXZ      18.5777    XYZ     -11.6449
       YYZ      -7.8337    XZZ       4.8826    YZZ      -3.1965
       ZZZ      13.1254
    Hexadecapole Moments (Debye-Ang^3)
      XXXX   -7066.8116   XXXY     143.3375   XXYY   -1630.6133
      XYYY      25.2749   YYYY   -2758.4938   XXXZ      22.5442
      XXYZ     -15.9658   XYYZ      35.2528   YYYZ      28.9337
      XXZZ   -1367.5842   XYZZ     -26.8969   YYZZ    -691.9357
      XZZZ      38.7079   YZZZ      13.2359   ZZZZ   -1252.8887
 -----------------------------------------------------------------
 Calculating analytic gradient of the SCF energy
 Gradient of SCF Energy
            1           2           3           4           5           6
    1  -0.0397350   0.0392549  -0.0121693   0.0065557   0.0571177   0.6417162
    2   0.0198940   0.0397687  -0.0340168  -0.0303297  -0.0286843  -0.1994389
    3  -0.1020589  -0.0121678  -0.0280990  -0.0118244  -0.0269721   0.0979836
            7           8           9          10          11          12
    1  -7.7486552  -0.0523288   0.0060223  -0.0510720   0.0208630  -0.1440909
    2   4.1070380   0.5052078   0.0244769  -0.0301308  -0.0011403  -0.2871683
    3  12.2371607  -0.2126820  -0.0520705  -0.0085203   0.0831424  -0.0575890
           13          14          15          16          17          18
    1   6.9129770   0.2782888   0.0379239   0.0492473  -0.0534469  -0.0338066
    2  -6.0277110   2.0414215  -0.0604070  -0.0379860   0.0304540   0.0195668
    3 -13.0055025   0.9697078   0.1031718  -0.0155789   0.0206473  -0.0107972
           19          20          21          22          23          24
    1  -0.0563554  -0.0360524   0.0098317   0.0520644   0.0392293   0.0080602
    2   0.0241648  -0.0287278  -0.0305706  -0.0397171   0.0269285  -0.0015380
    3  -0.0008669   0.0097799   0.0213442   0.0072215  -0.0825906   0.0026786
           25          26          27          28          29          30
    1   0.0244046   0.0076359  -0.0027452   0.0043401   0.0060900  -0.0037963
    2   0.0500568   0.0034241   0.0057423   0.0012028   0.0059819   0.0016505
    3  -0.0151668  -0.0060025   0.0092055  -0.0047044   0.0099901  -0.0039962
           31          32          33          34          35          36
    1   0.0050635  -0.0217881  -0.0221962   0.0197667   0.0308988   0.0087108
    2   0.0085045  -0.0160899   0.0313797   0.0389845  -0.0062312  -0.0454822
    3  -0.0100190   0.0418963  -0.0116794  -0.0483394  -0.0359188   0.0040665
           37          38          39          40          41          42
    1  -0.0167969   0.0299664  -0.0077592  -0.0019331   0.0013828  -0.0030717
    2  -0.0526995   0.0431330   0.0037302   0.0037436   0.0034020   0.0028305
    3   0.0392922   0.0592194   0.0022946  -0.0038078  -0.0001595   0.0126347
           43          44          45          46          47          48
    1  -0.0072983   0.0014457  -0.0110817   0.0050959   0.0006525   0.0022172
    2   0.0003356   0.0019509  -0.0038176   0.0052580   0.0130846   0.0037708
    3  -0.0083941   0.0074212  -0.0022161   0.0024249   0.0029187  -0.0025136
           49          50          51          52          53          54
    1   0.0002583   0.0115605  -0.0047746   0.0063110   0.0079340  -0.0156263
    2   0.0032102   0.0004167  -0.0045304   0.0052319  -0.0382341  -0.0341713
    3   0.0037021   0.0081343   0.0029322  -0.0023629   0.0244135   0.0146625
           55          56
    1  -0.0080313   0.0217243
    2  -0.0229360  -0.0141874
    3   0.0114925  -0.0269382
 Max gradient component =       1.301E+01
 RMS gradient           =       1.701E+00
 Gradient time:  CPU 42.76 s  wall 0.92 s
 Geometry Optimization Parameters
   NAtoms,    NIC,     NZ,  NCons,   NDum,   NFix, NCnnct, MaxDiis
       56     911       0       9       0       0       0       0

 Cartesian Hessian Update
 Hessian Updated using BFGS Update


** CONSTRAINED OPTIMIZATION IN DELOCALIZED INTERNAL COORDINATES **
   Searching for a Minimum

   Optimization Cycle:   2

                       Coordinates (Angstroms)
     ATOM                X               Y               Z
      1  O        -1.8239786553   -2.0003720774    1.7958605290
      2  C        -1.7684343847   -1.2218914398    0.8422023105
      3  C        -2.3650583092    0.1713025473    0.8149944444
      4  C        -1.8330201807    1.1543895892   -0.2505781643
      5  C        -0.8827382590    0.5917222294   -1.2960592404
      6  O        -0.4932935168   -0.6876720030   -0.9771049113
      7  C         0.9533983258   -0.8264960460   -0.8829472010
      8  C         1.3114949989   -2.0937947148   -0.0770447236
      9  O         2.6442298959   -1.9657928163    0.3937419030
     10  C         3.4930965480   -1.1974185182   -0.3306335072
     11  C         3.1883619228    0.2685080099   -0.3596958114
     12  C         1.6621359343    0.5239221573   -0.6548991872
     13  C         0.7203957760   -0.6561601538   -0.4763532975
     14  O         0.6575936135   -1.6652800894   -1.2105413688
     15  O        -2.2372994133   -1.9354503995   -0.2652341195
     16  O         0.1186876383   -0.1209725844    1.0552259556
     17  O         4.6635777610   -1.5538211801   -0.4198002047
     18  C         0.3121156733   -0.3293408347    2.4833072890
     19  C         3.6330931828    1.2579600767    0.7324793486
     20  C         3.8806626163    2.6268090000    0.0985418367
     21  C         2.4412807549    3.0379484208   -0.2090312563
     22  C         1.6588850536    1.8246574737    0.3524470156
     23  O         2.4682349983    1.5102664726    1.4655961488
     24  H         3.7630905287    0.5746547370   -1.2658475528
     25  H         1.5796583979    1.1650215439   -1.6148378705
     26  H         4.5114747940    0.9046788716    1.3132418803
     27  H         4.2800752783    3.2989730061    0.8915067659
     28  H         4.5763684777    2.6282483425   -0.7654596389
     29  H         2.2117999013    3.9312028104    0.4151398695
     30  H         2.2125467815    3.2732980080   -1.2687195447
     31  H         0.6503181536    2.1765002494    0.6115157766
     32  O        -0.5947151114    1.1589936850   -2.3494071738
     33  C        -2.0323968785   -3.2892238251   -0.5246808215
     34  C        -3.8707854152    0.1437887068    0.4663873392
     35  C        -4.5553354836    1.4283933171    0.9460027705
     36  C        -4.0283391911    2.4208899843   -0.0709124184
     37  C        -3.1735233497    1.4973018621   -0.9510003583
     38  O        -3.8865168930    0.2790234362   -0.9376995895
     39  H        -2.2805372646    0.6050734015    1.8296178766
     40  H        -1.4099240661    2.0867384656    0.1650701896
     41  H        -3.0087350081   -3.8125089537   -0.5633289189
     42  H        -4.3926511945   -0.7463967469    0.8811349121
     43  H        -5.6515662718    1.3140227359    0.7955369300
     44  H        -4.3535430941    1.6831592885    2.0081491383
     45  H        -4.8877843356    2.8018767069   -0.6651217240
     46  H        -3.4563096751    3.2751361452    0.3493531716
     47  H        -3.0299536872    1.9629418787   -1.9505043611
     48  H        -1.3910225461   -3.7779814408    0.2405749364
     49  H        -1.5276604039   -3.3990798204   -1.5071341068
     50  H        -0.4646781192    0.1933672378    3.0698793684
     51  H         1.2618301499    0.0772046772    2.8793799811
     52  H         0.3158270097   -1.4005539743    2.7661799332
     53  H         0.7513349818   -2.4183229946    0.8990827238
     54  H         1.3253991382   -3.2922721698   -0.3052605300
     55  H         1.8682662361   -0.5371403704    1.0299986679
     56  H         1.7638577498   -0.6946160766   -2.3304265857
   Point Group: c1    Number of degrees of freedom:   162


   Energy is  -1501.876162833

              Constraints and their Current Values
                                        Value     Constraint
   Dihedral:        1   2   3   4      161.041      161.053
   Dihedral:        3   4   5   6       -9.516       -9.474
   Dihedral:        4   5   6   7     -123.289     -123.158
   Dihedral:        5   6   7   8      160.779      161.053
   Dihedral:        6   7   8   9     -159.955     -161.053
   Dihedral:        7   8   9  10      -27.550      -28.421
   Dihedral:        8   9  10  11       66.986       66.316
   Dihedral:        9  10  11  12      -46.980      -47.368
   Dihedral:       11  12  13  14      -70.674      -66.316
 Hessian Updated using BFGS Update

   Using Lagrange Multiplier Algorithm


170 Hessian modes will be used to form the next step
  Hessian Eigenvalues:
    -0.977911   -0.977753   -0.977753   -0.977753   -0.977753   -0.977753
    -0.977753   -0.977753   -0.545015    0.044999    0.045000    0.045000
     0.045102    0.045548    0.045774    0.046807    0.047155    0.048644
     0.048893    0.049494    0.051339    0.053078    0.054354    0.055755
     0.057212    0.057899    0.058992    0.059957    0.060165    0.063526
     0.063669    0.064018    0.066753    0.066878    0.067105    0.067688
     0.068450    0.070820    0.071166    0.072282    0.074189    0.076040
     0.076219    0.076671    0.077000    0.080038    0.081718    0.082492
     0.082806    0.083609    0.084376    0.085162    0.085555    0.085843
     0.086688    0.087003    0.087497    0.087973    0.088685    0.089121
     0.089385    0.089431    0.089576    0.090125    0.090727    0.091646
     0.091969    0.093303    0.094069    0.096629    0.096653    0.098570
     0.101804    0.106197    0.111573    0.111617    0.112985    0.113647
     0.115761    0.117362    0.117947    0.119020    0.120228    0.125380
     0.127546    0.128174    0.128823    0.130169    0.139831    0.154768
     0.158548    0.159993    0.160000    0.160000    0.160000    0.160000
     0.160033    0.168352    0.171538    0.172335    0.179195    0.195898
     0.207197    0.213051    0.223568    0.227848    0.230477    0.236708
     0.239185    0.247567    0.248691    0.253425    0.254143    0.258842
     0.263364    0.265704    0.266776    0.266895    0.269978    0.279731
     0.281566    0.291966    0.295559    0.310519    0.311884    0.319809
     0.321226    0.321254    0.322590    0.322835    0.323367    0.323629
     0.324366    0.324455    0.324483    0.325052    0.326087    0.326169
     0.326423    0.328016    0.328719    0.329105    0.330352    0.331215
     0.331827    0.338228    0.359886    0.370257    0.374173    0.374990
     0.382257    0.399655    0.412406    0.461578    0.473271    0.478560
     0.520689    0.928658    0.943207    0.949708    1.022753    1.022753
     1.022753    1.022753    1.022753    1.022753    1.022753    1.022767
     3.257919    6.354942

 Minimum Search - Taking P-RFO Step
 Searching for Lamda that Maximizes Along the Constraint modes Only
 Value Taken    Lamda =   2.25711212


 ********************************************
 ** ERROR IN DETERMINING Lamda IN CONFormD **
 ********************************************



 New Cartesian Coordinates Obtained by Inverse Iteration

 Displacement from previous Coordinates is:  0.000000
 Adding empirical dispersion correction 
 ----------------------------------------------------------------
 Doing -D3(op) with
 s6 =   1.00000
 s8 =   0.78311
 a1 =   0.30000
 a2 =   4.25000
 n  =  10.00000
 -D3 energy without 3body term =     -0.0951714395 hartrees
 ----------------------------------------------------------------
             Standard Nuclear Orientation (Angstroms)
    I     Atom           X                Y                Z
 ----------------------------------------------------------------
    1      O      -1.8239786553    -2.0003720774     1.7958605290
    2      C      -1.7684343847    -1.2218914398     0.8422023105
    3      C      -2.3650583092     0.1713025473     0.8149944444
    4      C      -1.8330201807     1.1543895892    -0.2505781643
    5      C      -0.8827382590     0.5917222294    -1.2960592404
    6      O      -0.4932935168    -0.6876720030    -0.9771049113
    7      C       0.9533983258    -0.8264960460    -0.8829472010
    8      C       1.3114949989    -2.0937947148    -0.0770447236
    9      O       2.6442298959    -1.9657928163     0.3937419030
   10      C       3.4930965480    -1.1974185182    -0.3306335072
   11      C       3.1883619228     0.2685080099    -0.3596958114
   12      C       1.6621359343     0.5239221573    -0.6548991872
   13      C       0.7203957760    -0.6561601538    -0.4763532975
   14      O       0.6575936135    -1.6652800894    -1.2105413688
   15      O      -2.2372994133    -1.9354503995    -0.2652341195
   16      O       0.1186876383    -0.1209725844     1.0552259556
   17      O       4.6635777610    -1.5538211801    -0.4198002047
   18      C       0.3121156733    -0.3293408347     2.4833072890
   19      C       3.6330931828     1.2579600767     0.7324793486
   20      C       3.8806626163     2.6268090000     0.0985418367
   21      C       2.4412807549     3.0379484208    -0.2090312563
   22      C       1.6588850536     1.8246574737     0.3524470156
   23      O       2.4682349983     1.5102664726     1.4655961488
   24      H       3.7630905287     0.5746547370    -1.2658475528
   25      H       1.5796583979     1.1650215439    -1.6148378705
   26      H       4.5114747940     0.9046788716     1.3132418803
   27      H       4.2800752783     3.2989730061     0.8915067659
   28      H       4.5763684777     2.6282483425    -0.7654596389
   29      H       2.2117999013     3.9312028104     0.4151398695
   30      H       2.2125467815     3.2732980080    -1.2687195447
   31      H       0.6503181536     2.1765002494     0.6115157766
   32      O      -0.5947151114     1.1589936850    -2.3494071738
   33      C      -2.0323968785    -3.2892238251    -0.5246808215
   34      C      -3.8707854152     0.1437887068     0.4663873392
   35      C      -4.5553354836     1.4283933171     0.9460027705
   36      C      -4.0283391911     2.4208899843    -0.0709124184
   37      C      -3.1735233497     1.4973018621    -0.9510003583
   38      O      -3.8865168930     0.2790234362    -0.9376995895
   39      H      -2.2805372646     0.6050734015     1.8296178766
   40      H      -1.4099240661     2.0867384656     0.1650701896
   41      H      -3.0087350081    -3.8125089537    -0.5633289189
   42      H      -4.3926511945    -0.7463967469     0.8811349121
   43      H      -5.6515662718     1.3140227359     0.7955369300
   44      H      -4.3535430941     1.6831592885     2.0081491383
   45      H      -4.8877843356     2.8018767069    -0.6651217240
   46      H      -3.4563096751     3.2751361452     0.3493531716
   47      H      -3.0299536872     1.9629418787    -1.9505043611
   48      H      -1.3910225461    -3.7779814408     0.2405749364
   49      H      -1.5276604039    -3.3990798204    -1.5071341068
   50      H      -0.4646781192     0.1933672378     3.0698793684
   51      H       1.2618301499     0.0772046772     2.8793799811
   52      H       0.3158270097    -1.4005539743     2.7661799332
   53      H       0.7513349818    -2.4183229946     0.8990827238
   54      H       1.3253991382    -3.2922721698    -0.3052605300
   55      H       1.8682662361    -0.5371403704     1.0299986679
   56      H       1.7638577498    -0.6946160766    -2.3304265857
 ----------------------------------------------------------------
 Molecular Point Group                 C1    NOp =  1
 Largest Abelian Subgroup              C1    NOp =  1
 Nuclear Repulsion Energy =  3771.7298706701 hartrees
 There are      113 alpha and      113 beta electrons
 Applying Cartesian multipole field
    Component          Value
    ---------          -----
     (2,0,0)        1.00000E-12
     (0,2,0)        2.00000E-11
     (0,0,2)       -3.00000E-11
 Nucleus-field energy     =     0.0000000217 hartrees
 Requested basis set is STO-3G
 There are 86 shells and 176 basis functions
 A cutoff of  1.0D-12 yielded   2854 shell pairs
 There are     13411 function pairs
 Smallest overlap matrix eigenvalue = 3.19E-03
 Guess MOs from SCF MO coefficient file
 Reading MOs from coefficient file
 Reading MOs from coefficient file
 A restricted hybrid HF-DFT SCF calculation will be
 performed using Pulay DIIS extrapolation
 Exchange:     0.2000 Hartree-Fock + 0.0800 Slater + 0.7200 B88
 Correlation:  0.1900 VWN1RPA + 0.8100 LYP
 Using SG-1 standard quadrature grid
 Dispersion:   Grimme D3
 SCF converges when DIIS error is below 1.0E-08
 Geometry optimization detected.  Setting ReadMinima to 0
 Setting SaveMinima to 0
 using 48 threads for integral computing
 -------------------------------------------------------
 OpenMP Integral computing Module                
 Release: version 1.0, May 2013, Q-Chem Inc. Pittsburgh 
 -------------------------------------------------------
 -------------------------------------------------------
 OpenMP BLAS3 based DFT computing Module                
 Release: version 1.0, May 2013, Q-Chem Inc. Pittsburgh 
 -------------------------------------------------------
 ---------------------------------------
  Cycle       Energy         DIIS Error
 ---------------------------------------
    1   -1501.8761628328      1.79E-09
    2   -1501.8761628328      4.14E-09 Convergence criterion met
 ---------------------------------------
 SCF time:  CPU 18.19 s  wall 0.38 s
 SCF   energy in the final basis set = -1501.87616283
 Total energy in the final basis set = -1501.87616283
 
 --------------------------------------------------------------
 
                    Orbital Energies (a.u.)
 --------------------------------------------------------------
 
 Alpha MOs
 -- Occupied --
-19.159 -19.009 -18.981 -18.934 -18.915 -18.907 -18.891 -18.870
-18.833 -18.813 -11.967 -10.915 -10.157 -10.147 -10.116 -10.112
-10.099 -10.084 -10.068 -10.060 -10.059 -10.057 -10.054 -10.046
-10.034 -10.029 -10.029 -10.027 -10.012 -10.010  -1.697  -1.259
 -1.123  -1.072  -1.047  -1.019  -1.008  -1.006  -0.995  -0.950
 -0.905  -0.881  -0.809  -0.789  -0.767  -0.752  -0.732  -0.721
 -0.716  -0.714  -0.652  -0.642  -0.633  -0.604  -0.600  -0.579
 -0.564  -0.547  -0.541  -0.530  -0.512  -0.509  -0.491  -0.491
 -0.476  -0.468  -0.457  -0.448  -0.442  -0.432  -0.428  -0.418
 -0.410  -0.406  -0.396  -0.392  -0.385  -0.379  -0.376  -0.369
 -0.362  -0.358  -0.346  -0.342  -0.341  -0.337  -0.331  -0.324
 -0.323  -0.317  -0.312  -0.306  -0.299  -0.296  -0.294  -0.274
 -0.272  -0.258  -0.246  -0.229  -0.218  -0.215  -0.199  -0.194
 -0.183  -0.180  -0.168  -0.143  -0.132  -0.126  -0.099  -0.093
 -0.037
 -- Virtual --
  0.008   0.023   0.048   0.085   0.105   0.118   0.164   0.187
  0.245   0.260   0.267   0.290   0.307   0.316   0.323   0.329
  0.335   0.342   0.343   0.347   0.353   0.358   0.372   0.376
  0.381   0.385   0.388   0.396   0.398   0.404   0.412   0.413
  0.421   0.423   0.431   0.438   0.441   0.444   0.448   0.452
  0.457   0.464   0.465   0.471   0.475   0.479   0.486   0.493
  0.503   0.510   0.523   0.535   0.545   0.559   0.566   0.573
  0.589   0.595   0.628   0.650   0.698   1.233   5.503
 --------------------------------------------------------------
 
          Ground-State Mulliken Net Atomic Charges

     Atom                 Charge (a.u.)
  ----------------------------------------
      1 O                    -0.262346
      2 C                     0.219980
      3 C                    -0.071771
      4 C                    -0.082796
      5 C                     0.214450
      6 O                    -0.103375
      7 C                    -0.119390
      8 C                     0.085745
      9 O                    -0.142949
     10 C                     0.237997
     11 C                    -0.074768
     12 C                     0.142757
     13 C                     0.106689
     14 O                    -0.042225
     15 O                    -0.225997
     16 O                    -0.210951
     17 O                    -0.181327
     18 C                    -0.138776
     19 C                     0.044171
     20 C                    -0.140999
     21 C                    -0.149498
     22 C                     0.027960
     23 O                    -0.196117
     24 H                     0.093573
     25 H                     0.137244
     26 H                     0.096032
     27 H                     0.079984
     28 H                     0.077813
     29 H                     0.079875
     30 H                     0.073343
     31 H                     0.083427
     32 O                    -0.192561
     33 C                    -0.107050
     34 C                     0.040680
     35 C                    -0.144033
     36 C                    -0.144051
     37 C                     0.037292
     38 O                    -0.207350
     39 H                     0.082249
     40 H                     0.080796
     41 H                     0.082297
     42 H                     0.085639
     43 H                     0.074435
     44 H                     0.070593
     45 H                     0.074246
     46 H                     0.068610
     47 H                     0.082526
     48 H                     0.075765
     49 H                     0.075324
     50 H                     0.085828
     51 H                     0.081361
     52 H                     0.074361
     53 H                     0.138403
     54 H                     0.031836
     55 H                    -0.007022
     56 H                    -0.197930
  ----------------------------------------
  Sum of atomic charges =     0.000000

 -----------------------------------------------------------------
                    Cartesian Multipole Moments
 -----------------------------------------------------------------
    Charge (ESU x 10^10)
                 0.0000
    Dipole Moment (Debye)
         X       1.4848      Y       3.0096      Z       1.4624
       Tot       3.6607
    Quadrupole Moments (Debye-Ang)
        XX    -165.8509     XY       3.5592     YY    -156.9153
        XZ      -0.7800     YZ       1.8881     ZZ    -170.7573
    Octopole Moments (Debye-Ang^2)
       XXX     -26.4283    XXY      45.2091    XYY      -5.5769
       YYY     -29.9141    XXZ      18.5777    XYZ     -11.6449
       YYZ      -7.8337    XZZ       4.8826    YZZ      -3.1965
       ZZZ      13.1254
    Hexadecapole Moments (Debye-Ang^3)
      XXXX   -7066.8117   XXXY     143.3375   XXYY   -1630.6133
      XYYY      25.2749   YYYY   -2758.4938   XXXZ      22.5442
      XXYZ     -15.9658   XYYZ      35.2528   YYYZ      28.9337
      XXZZ   -1367.5842   XYZZ     -26.8969   YYZZ    -691.9357
      XZZZ      38.7079   YZZZ      13.2359   ZZZZ   -1252.8887
 -----------------------------------------------------------------
 Calculating analytic gradient of the SCF energy
 Gradient of SCF Energy
            1           2           3           4           5           6
    1  -0.0397350   0.0392549  -0.0121693   0.0065557   0.0571178   0.6417162
    2   0.0198940   0.0397687  -0.0340168  -0.0303297  -0.0286843  -0.1994390
    3  -0.1020589  -0.0121678  -0.0280990  -0.0118244  -0.0269721   0.0979836
            7           8           9          10          11          12
    1  -7.7486553  -0.0523289   0.0060223  -0.0510720   0.0208630  -0.1440909
    2   4.1070380   0.5052079   0.0244769  -0.0301308  -0.0011403  -0.2871683
    3  12.2371608  -0.2126820  -0.0520705  -0.0085203   0.0831424  -0.0575890
           13          14          15          16          17          18
    1   6.9129772   0.2782888   0.0379239   0.0492473  -0.0534469  -0.0338066
    2  -6.0277110   2.0414215  -0.0604070  -0.0379860   0.0304540   0.0195668
    3 -13.0055025   0.9697077   0.1031717  -0.0155789   0.0206473  -0.0107972
           19          20          21          22          23          24
    1  -0.0563554  -0.0360524   0.0098317   0.0520644   0.0392293   0.0080602
    2   0.0241648  -0.0287278  -0.0305706  -0.0397171   0.0269285  -0.0015380
    3  -0.0008669   0.0097799   0.0213442   0.0072215  -0.0825906   0.0026786
           25          26          27          28          29          30
    1   0.0244046   0.0076359  -0.0027452   0.0043401   0.0060900  -0.0037963
    2   0.0500568   0.0034241   0.0057423   0.0012028   0.0059819   0.0016505
    3  -0.0151668  -0.0060025   0.0092055  -0.0047044   0.0099901  -0.0039962
           31          32          33          34          35          36
    1   0.0050635  -0.0217881  -0.0221962   0.0197667   0.0308988   0.0087108
    2   0.0085045  -0.0160898   0.0313797   0.0389846  -0.0062312  -0.0454822
    3  -0.0100190   0.0418963  -0.0116794  -0.0483394  -0.0359188   0.0040665
           37          38          39          40          41          42
    1  -0.0167969   0.0299664  -0.0077592  -0.0019331   0.0013828  -0.0030717
    2  -0.0526995   0.0431330   0.0037302   0.0037436   0.0034020   0.0028305
    3   0.0392922   0.0592194   0.0022946  -0.0038078  -0.0001595   0.0126347
           43          44          45          46          47          48
    1  -0.0072983   0.0014457  -0.0110817   0.0050959   0.0006525   0.0022172
    2   0.0003356   0.0019509  -0.0038176   0.0052580   0.0130846   0.0037708
    3  -0.0083941   0.0074212  -0.0022161   0.0024249   0.0029187  -0.0025136
           49          50          51          52          53          54
    1   0.0002583   0.0115605  -0.0047746   0.0063110   0.0079340  -0.0156263
    2   0.0032102   0.0004167  -0.0045304   0.0052319  -0.0382341  -0.0341713
    3   0.0037021   0.0081343   0.0029322  -0.0023629   0.0244135   0.0146625
           55          56
    1  -0.0080313   0.0217243
    2  -0.0229360  -0.0141874
    3   0.0114925  -0.0269383
 Max gradient component =       1.301E+01
 RMS gradient           =       1.701E+00
 Gradient time:  CPU 40.54 s  wall 0.87 s
 Geometry Optimization Parameters
   NAtoms,    NIC,     NZ,  NCons,   NDum,   NFix, NCnnct, MaxDiis
       56     911       0       9       0       0       0       0

 Cartesian Hessian Update
 Hessian Updated using BFGS Update
**WARNING** Hereditary positive definiteness endangered
**WARNING** Small Scalar Product
 Hessian Update Skipped this cycle


** CONSTRAINED OPTIMIZATION IN DELOCALIZED INTERNAL COORDINATES **
   Searching for a Minimum

   Optimization Cycle:   3

                       Coordinates (Angstroms)
     ATOM                X               Y               Z
      1  O        -1.8239786553   -2.0003720774    1.7958605290
      2  C        -1.7684343847   -1.2218914398    0.8422023105
      3  C        -2.3650583092    0.1713025473    0.8149944444
      4  C        -1.8330201807    1.1543895892   -0.2505781643
      5  C        -0.8827382590    0.5917222294   -1.2960592404
      6  O        -0.4932935168   -0.6876720030   -0.9771049113
      7  C         0.9533983258   -0.8264960460   -0.8829472010
      8  C         1.3114949989   -2.0937947148   -0.0770447236
      9  O         2.6442298959   -1.9657928163    0.3937419030
     10  C         3.4930965480   -1.1974185182   -0.3306335072
     11  C         3.1883619228    0.2685080099   -0.3596958114
     12  C         1.6621359343    0.5239221573   -0.6548991872
     13  C         0.7203957760   -0.6561601538   -0.4763532975
     14  O         0.6575936135   -1.6652800894   -1.2105413688
     15  O        -2.2372994133   -1.9354503995   -0.2652341195
     16  O         0.1186876383   -0.1209725844    1.0552259556
     17  O         4.6635777610   -1.5538211801   -0.4198002047
     18  C         0.3121156733   -0.3293408347    2.4833072890
     19  C         3.6330931828    1.2579600767    0.7324793486
     20  C         3.8806626163    2.6268090000    0.0985418367
     21  C         2.4412807549    3.0379484208   -0.2090312563
     22  C         1.6588850536    1.8246574737    0.3524470156
     23  O         2.4682349983    1.5102664726    1.4655961488
     24  H         3.7630905287    0.5746547370   -1.2658475528
     25  H         1.5796583979    1.1650215439   -1.6148378705
     26  H         4.5114747940    0.9046788716    1.3132418803
     27  H         4.2800752783    3.2989730061    0.8915067659
     28  H         4.5763684777    2.6282483425   -0.7654596389
     29  H         2.2117999013    3.9312028104    0.4151398695
     30  H         2.2125467815    3.2732980080   -1.2687195447
     31  H         0.6503181536    2.1765002494    0.6115157766
     32  O        -0.5947151114    1.1589936850   -2.3494071738
     33  C        -2.0323968785   -3.2892238251   -0.5246808215
     34  C        -3.8707854152    0.1437887068    0.4663873392
     35  C        -4.5553354836    1.4283933171    0.9460027705
     36  C        -4.0283391911    2.4208899843   -0.0709124184
     37  C        -3.1735233497    1.4973018621   -0.9510003583
     38  O        -3.8865168930    0.2790234362   -0.9376995895
     39  H        -2.2805372646    0.6050734015    1.8296178766
     40  H        -1.4099240661    2.0867384656    0.1650701896
     41  H        -3.0087350081   -3.8125089537   -0.5633289189
     42  H        -4.3926511945   -0.7463967469    0.8811349121
     43  H        -5.6515662718    1.3140227359    0.7955369300
     44  H        -4.3535430941    1.6831592885    2.0081491383
     45  H        -4.8877843356    2.8018767069   -0.6651217240
     46  H        -3.4563096751    3.2751361452    0.3493531716
     47  H        -3.0299536872    1.9629418787   -1.9505043611
     48  H        -1.3910225461   -3.7779814408    0.2405749364
     49  H        -1.5276604039   -3.3990798204   -1.5071341068
     50  H        -0.4646781192    0.1933672378    3.0698793684
     51  H         1.2618301499    0.0772046772    2.8793799811
     52  H         0.3158270097   -1.4005539743    2.7661799332
     53  H         0.7513349818   -2.4183229946    0.8990827238
     54  H         1.3253991382   -3.2922721698   -0.3052605300
     55  H         1.8682662361   -0.5371403704    1.0299986679
     56  H         1.7638577498   -0.6946160766   -2.3304265857
   Point Group: c1    Number of degrees of freedom:   162


   Energy is  -1501.876162833

              Constraints and their Current Values
                                        Value     Constraint
   Dihedral:        1   2   3   4      161.041      161.053
   Dihedral:        3   4   5   6       -9.516       -9.474
   Dihedral:        4   5   6   7     -123.289     -123.158
   Dihedral:        5   6   7   8      160.779      161.053
   Dihedral:        6   7   8   9     -159.955     -161.053
   Dihedral:        7   8   9  10      -27.550      -28.421
   Dihedral:        8   9  10  11       66.986       66.316
   Dihedral:        9  10  11  12      -46.980      -47.368
   Dihedral:       11  12  13  14      -70.674      -66.316
 Hessian Updated using BFGS Update
**WARNING** Hereditary positive definiteness endangered
**WARNING** Small Scalar Product
 Hessian Update Skipped this cycle

   Using Lagrange Multiplier Algorithm


171 Hessian modes will be used to form the next step
  Hessian Eigenvalues:
    -0.977911   -0.977753   -0.977753   -0.977753   -0.977753   -0.977753
    -0.977753   -0.977753   -0.545015    0.044999    0.045000    0.045000
     0.045102    0.045548    0.045774    0.046807    0.047155    0.048644
     0.048893    0.049494    0.051339    0.053078    0.054354    0.055755
     0.057212    0.057899    0.058992    0.059957    0.060165    0.063526
     0.063669    0.064018    0.066753    0.066878    0.067105    0.067688
     0.068450    0.070820    0.071166    0.072282    0.074189    0.076040
     0.076219    0.076671    0.077000    0.080038    0.081718    0.082492
     0.082806    0.083609    0.084376    0.085162    0.085555    0.085843
     0.086688    0.087003    0.087497    0.087973    0.088685    0.089121
     0.089385    0.089431    0.089576    0.090125    0.090727    0.091646
     0.091969    0.093303    0.094069    0.096629    0.096653    0.098570
     0.101804    0.106197    0.111573    0.111617    0.112985    0.113647
     0.115761    0.117362    0.117947    0.119020    0.120228    0.125380
     0.127546    0.128174    0.128823    0.130169    0.139831    0.154768
     0.158548    0.159993    0.160000    0.160000    0.160000    0.160000
     0.160033    0.168352    0.171538    0.172335    0.179195    0.195898
     0.207197    0.213051    0.223568    0.227848    0.230477    0.236708
     0.239185    0.247567    0.248691    0.250000    0.253425    0.254143
     0.258842    0.263364    0.265704    0.266776    0.266895    0.269978
     0.279731    0.281566    0.291966    0.295559    0.310519    0.311884
     0.319809    0.321226    0.321254    0.322590    0.322835    0.323367
     0.323629    0.324366    0.324455    0.324483    0.325052    0.326087
     0.326169    0.326423    0.328016    0.328719    0.329105    0.330352
     0.331215    0.331827    0.338228    0.359886    0.370257    0.374173
     0.374990    0.382257    0.399655    0.412406    0.461578    0.473271
     0.478560    0.520689    0.928658    0.943207    0.949708    1.022753
     1.022753    1.022753    1.022753    1.022753    1.022753    1.022753
     1.022767    3.257919    6.354942

 Minimum Search - Taking P-RFO Step
 Searching for Lamda that Maximizes Along the Constraint modes Only
 Value Taken    Lamda =   2.25711214


 ********************************************
 ** ERROR IN DETERMINING Lamda IN CONFormD **
 ********************************************



 New Cartesian Coordinates Obtained by Inverse Iteration

 Displacement from previous Coordinates is:  0.000000
 Adding empirical dispersion correction 
 ----------------------------------------------------------------
 Doing -D3(op) with
 s6 =   1.00000
 s8 =   0.78311
 a1 =   0.30000
 a2 =   4.25000
 n  =  10.00000
 -D3 energy without 3body term =     -0.0951714395 hartrees
 ----------------------------------------------------------------
             Standard Nuclear Orientation (Angstroms)
    I     Atom           X                Y                Z
 ----------------------------------------------------------------
    1      O      -1.8239786553    -2.0003720774     1.7958605290
    2      C      -1.7684343847    -1.2218914398     0.8422023105
    3      C      -2.3650583092     0.1713025473     0.8149944444
    4      C      -1.8330201807     1.1543895892    -0.2505781643
    5      C      -0.8827382590     0.5917222294    -1.2960592404
    6      O      -0.4932935168    -0.6876720030    -0.9771049113
    7      C       0.9533983258    -0.8264960460    -0.8829472010
    8      C       1.3114949989    -2.0937947148    -0.0770447236
    9      O       2.6442298959    -1.9657928163     0.3937419030
   10      C       3.4930965480    -1.1974185182    -0.3306335072
   11      C       3.1883619228     0.2685080099    -0.3596958114
   12      C       1.6621359343     0.5239221573    -0.6548991872
   13      C       0.7203957760    -0.6561601538    -0.4763532975
   14      O       0.6575936135    -1.6652800894    -1.2105413688
   15      O      -2.2372994133    -1.9354503995    -0.2652341195
   16      O       0.1186876383    -0.1209725844     1.0552259556
   17      O       4.6635777610    -1.5538211801    -0.4198002047
   18      C       0.3121156733    -0.3293408347     2.4833072890
   19      C       3.6330931828     1.2579600767     0.7324793486
   20      C       3.8806626163     2.6268090000     0.0985418367
   21      C       2.4412807549     3.0379484208    -0.2090312563
   22      C       1.6588850536     1.8246574737     0.3524470156
   23      O       2.4682349983     1.5102664726     1.4655961488
   24      H       3.7630905287     0.5746547370    -1.2658475528
   25      H       1.5796583979     1.1650215439    -1.6148378705
   26      H       4.5114747940     0.9046788716     1.3132418803
   27      H       4.2800752783     3.2989730061     0.8915067659
   28      H       4.5763684777     2.6282483425    -0.7654596389
   29      H       2.2117999013     3.9312028104     0.4151398695
[...]
 -0.362  -0.358  -0.346  -0.342  -0.341  -0.337  -0.331  -0.324
 -0.323  -0.317  -0.312  -0.306  -0.299  -0.296  -0.294  -0.274
 -0.272  -0.258  -0.246  -0.229  -0.218  -0.215  -0.199  -0.194
 -0.183  -0.180  -0.168  -0.143  -0.132  -0.126  -0.099  -0.093
 -0.037
 -- Virtual --
  0.008   0.023   0.048   0.085   0.105   0.118   0.164   0.187
  0.245   0.260   0.267   0.290   0.307   0.316   0.323   0.329
  0.335   0.342   0.343   0.347   0.353   0.358   0.372   0.376
  0.381   0.385   0.388   0.396   0.398   0.404   0.412   0.413
  0.421   0.423   0.431   0.438   0.441   0.444   0.448   0.452
  0.457   0.464   0.465   0.471   0.475   0.479   0.486   0.493
  0.503   0.510   0.523   0.535   0.545   0.559   0.566   0.573
  0.589   0.595   0.628   0.650   0.698   1.233   5.503
 --------------------------------------------------------------
 
          Ground-State Mulliken Net Atomic Charges

     Atom                 Charge (a.u.)
  ----------------------------------------
      1 O                    -0.262346
      2 C                     0.219980
      3 C                    -0.071771
      4 C                    -0.082796
      5 C                     0.214450
      6 O                    -0.103376
      7 C                    -0.119390
      8 C                     0.085745
      9 O                    -0.142949
     10 C                     0.237997
     11 C                    -0.074768
     12 C                     0.142757
     13 C                     0.106689
     14 O                    -0.042225
     15 O                    -0.225997
     16 O                    -0.210951
     17 O                    -0.181327
     18 C                    -0.138776
     19 C                     0.044171
     20 C                    -0.140999
     21 C                    -0.149498
     22 C                     0.027960
     23 O                    -0.196117
     24 H                     0.093573
     25 H                     0.137244
     26 H                     0.096032
     27 H                     0.079984
     28 H                     0.077813
     29 H                     0.079875
     30 H                     0.073343
     31 H                     0.083427
     32 O                    -0.192561
     33 C                    -0.107050
     34 C                     0.040680
     35 C                    -0.144033
     36 C                    -0.144051
     37 C                     0.037292
     38 O                    -0.207350
     39 H                     0.082249
     40 H                     0.080796
     41 H                     0.082297
     42 H                     0.085639
     43 H                     0.074435
     44 H                     0.070593
     45 H                     0.074246
     46 H                     0.068610
     47 H                     0.082526
     48 H                     0.075765
     49 H                     0.075324
     50 H                     0.085828
     51 H                     0.081361
     52 H                     0.074361
     53 H                     0.138403
     54 H                     0.031836
     55 H                    -0.007022
     56 H                    -0.197930
  ----------------------------------------
  Sum of atomic charges =     0.000000

 -----------------------------------------------------------------
                    Cartesian Multipole Moments
 -----------------------------------------------------------------
    Charge (ESU x 10^10)
                 0.0000
    Dipole Moment (Debye)
         X       1.4848      Y       3.0096      Z       1.4624
       Tot       3.6607
    Quadrupole Moments (Debye-Ang)
        XX    -165.8509     XY       3.5592     YY    -156.9153
        XZ      -0.7800     YZ       1.8881     ZZ    -170.7573
    Octopole Moments (Debye-Ang^2)
       XXX     -26.4283    XXY      45.2091    XYY      -5.5769
       YYY     -29.9141    XXZ      18.5777    XYZ     -11.6449
       YYZ      -7.8336    XZZ       4.8826    YZZ      -3.1965
       ZZZ      13.1254
    Hexadecapole Moments (Debye-Ang^3)
      XXXX   -7066.8116   XXXY     143.3375   XXYY   -1630.6133
      XYYY      25.2749   YYYY   -2758.4938   XXXZ      22.5442
      XXYZ     -15.9658   XYYZ      35.2528   YYYZ      28.9337
      XXZZ   -1367.5842   XYZZ     -26.8969   YYZZ    -691.9357
      XZZZ      38.7079   YZZZ      13.2359   ZZZZ   -1252.8887
 -----------------------------------------------------------------
 Calculating analytic gradient of the SCF energy
 Gradient of SCF Energy
            1           2           3           4           5           6
    1  -0.0397350   0.0392549  -0.0121693   0.0065557   0.0571177   0.6417161
    2   0.0198940   0.0397687  -0.0340168  -0.0303297  -0.0286843  -0.1994389
    3  -0.1020589  -0.0121678  -0.0280990  -0.0118244  -0.0269722   0.0979836
            7           8           9          10          11          12
    1  -7.7486552  -0.0523289   0.0060223  -0.0510720   0.0208630  -0.1440909
    2   4.1070380   0.5052078   0.0244769  -0.0301308  -0.0011403  -0.2871683
    3  12.2371607  -0.2126820  -0.0520705  -0.0085203   0.0831424  -0.0575890
           13          14          15          16          17          18
    1   6.9129771   0.2782888   0.0379239   0.0492473  -0.0534469  -0.0338066
    2  -6.0277110   2.0414214  -0.0604070  -0.0379860   0.0304540   0.0195668
    3 -13.0055024   0.9697077   0.1031718  -0.0155789   0.0206473  -0.0107972
           19          20          21          22          23          24
    1  -0.0563554  -0.0360524   0.0098317   0.0520644   0.0392293   0.0080602
    2   0.0241648  -0.0287278  -0.0305706  -0.0397171   0.0269285  -0.0015380
    3  -0.0008669   0.0097799   0.0213442   0.0072215  -0.0825906   0.0026786
           25          26          27          28          29          30
    1   0.0244046   0.0076359  -0.0027452   0.0043401   0.0060900  -0.0037963
    2   0.0500568   0.0034241   0.0057423   0.0012028   0.0059819   0.0016505
    3  -0.0151668  -0.0060025   0.0092055  -0.0047044   0.0099901  -0.0039962
           31          32          33          34          35          36
    1   0.0050635  -0.0217881  -0.0221962   0.0197667   0.0308988   0.0087108
    2   0.0085045  -0.0160899   0.0313797   0.0389845  -0.0062312  -0.0454822
    3  -0.0100190   0.0418963  -0.0116794  -0.0483394  -0.0359188   0.0040665
           37          38          39          40          41          42
    1  -0.0167969   0.0299664  -0.0077592  -0.0019331   0.0013828  -0.0030717
    2  -0.0526995   0.0431330   0.0037302   0.0037436   0.0034020   0.0028305
    3   0.0392921   0.0592194   0.0022946  -0.0038078  -0.0001595   0.0126347
           43          44          45          46          47          48
    1  -0.0072983   0.0014457  -0.0110817   0.0050959   0.0006525   0.0022172
    2   0.0003356   0.0019509  -0.0038176   0.0052580   0.0130846   0.0037708
    3  -0.0083941   0.0074212  -0.0022161   0.0024249   0.0029187  -0.0025136
           49          50          51          52          53          54
    1   0.0002583   0.0115605  -0.0047746   0.0063110   0.0079340  -0.0156263
    2   0.0032102   0.0004167  -0.0045304   0.0052319  -0.0382341  -0.0341713
    3   0.0037021   0.0081343   0.0029322  -0.0023629   0.0244135   0.0146625
           55          56
    1  -0.0080313   0.0217243
    2  -0.0229360  -0.0141874
    3   0.0114925  -0.0269382
 Max gradient component =       1.301E+01
 RMS gradient           =       1.701E+00
 Gradient time:  CPU 40.33 s  wall 0.85 s
 Geometry Optimization Parameters
   NAtoms,    NIC,     NZ,  NCons,   NDum,   NFix, NCnnct, MaxDiis
       56     911       0       9       0       0       0       0

 Cartesian Hessian Update
 Hessian Updated using BFGS Update
**WARNING** Hereditary positive definiteness endangered
**WARNING** Small Scalar Product
 Hessian Update Skipped this cycle


** CONSTRAINED OPTIMIZATION IN DELOCALIZED INTERNAL COORDINATES **
   Searching for a Minimum

   Optimization Cycle: 100

                       Coordinates (Angstroms)
     ATOM                X               Y               Z
      1  O        -1.8239786553   -2.0003720774    1.7958605290
      2  C        -1.7684343847   -1.2218914398    0.8422023105
      3  C        -2.3650583092    0.1713025473    0.8149944444
      4  C        -1.8330201807    1.1543895892   -0.2505781643
      5  C        -0.8827382590    0.5917222294   -1.2960592404
      6  O        -0.4932935168   -0.6876720030   -0.9771049113
      7  C         0.9533983258   -0.8264960460   -0.8829472010
      8  C         1.3114949989   -2.0937947148   -0.0770447236
      9  O         2.6442298959   -1.9657928163    0.3937419030
     10  C         3.4930965480   -1.1974185182   -0.3306335072
     11  C         3.1883619228    0.2685080099   -0.3596958114
     12  C         1.6621359343    0.5239221573   -0.6548991872
     13  C         0.7203957760   -0.6561601538   -0.4763532975
     14  O         0.6575936135   -1.6652800894   -1.2105413688
     15  O        -2.2372994133   -1.9354503995   -0.2652341195
     16  O         0.1186876383   -0.1209725844    1.0552259556
     17  O         4.6635777610   -1.5538211801   -0.4198002047
     18  C         0.3121156733   -0.3293408347    2.4833072890
     19  C         3.6330931828    1.2579600767    0.7324793486
     20  C         3.8806626163    2.6268090000    0.0985418367
     21  C         2.4412807549    3.0379484208   -0.2090312563
     22  C         1.6588850536    1.8246574737    0.3524470156
     23  O         2.4682349983    1.5102664726    1.4655961488
     24  H         3.7630905287    0.5746547370   -1.2658475528
     25  H         1.5796583979    1.1650215439   -1.6148378705
     26  H         4.5114747940    0.9046788716    1.3132418803
     27  H         4.2800752783    3.2989730061    0.8915067659
     28  H         4.5763684777    2.6282483425   -0.7654596389
     29  H         2.2117999013    3.9312028104    0.4151398695
     30  H         2.2125467815    3.2732980080   -1.2687195447
     31  H         0.6503181536    2.1765002494    0.6115157766
     32  O        -0.5947151114    1.1589936850   -2.3494071738
     33  C        -2.0323968785   -3.2892238251   -0.5246808215
     34  C        -3.8707854152    0.1437887068    0.4663873392
     35  C        -4.5553354836    1.4283933171    0.9460027705
     36  C        -4.0283391911    2.4208899843   -0.0709124184
     37  C        -3.1735233497    1.4973018621   -0.9510003583
     38  O        -3.8865168930    0.2790234362   -0.9376995895
     39  H        -2.2805372646    0.6050734015    1.8296178766
     40  H        -1.4099240661    2.0867384656    0.1650701896
     41  H        -3.0087350081   -3.8125089537   -0.5633289189
     42  H        -4.3926511945   -0.7463967469    0.8811349121
     43  H        -5.6515662718    1.3140227359    0.7955369300
     44  H        -4.3535430941    1.6831592885    2.0081491383
     45  H        -4.8877843356    2.8018767069   -0.6651217240
     46  H        -3.4563096751    3.2751361452    0.3493531716
     47  H        -3.0299536872    1.9629418787   -1.9505043611
     48  H        -1.3910225461   -3.7779814408    0.2405749364
     49  H        -1.5276604039   -3.3990798204   -1.5071341068
     50  H        -0.4646781192    0.1933672378    3.0698793684
     51  H         1.2618301499    0.0772046772    2.8793799811
     52  H         0.3158270097   -1.4005539743    2.7661799332
     53  H         0.7513349818   -2.4183229946    0.8990827238
     54  H         1.3253991382   -3.2922721698   -0.3052605300
     55  H         1.8682662361   -0.5371403704    1.0299986679
     56  H         1.7638577498   -0.6946160766   -2.3304265857
   Point Group: c1    Number of degrees of freedom:   162


   Energy is  -1501.876162833

              Constraints and their Current Values
                                        Value     Constraint
   Dihedral:        1   2   3   4      161.041      161.053
   Dihedral:        3   4   5   6       -9.516       -9.474
   Dihedral:        4   5   6   7     -123.289     -123.158
   Dihedral:        5   6   7   8      160.779      161.053
   Dihedral:        6   7   8   9     -159.955     -161.053
   Dihedral:        7   8   9  10      -27.550      -28.421
   Dihedral:        8   9  10  11       66.986       66.316
   Dihedral:        9  10  11  12      -46.980      -47.368
   Dihedral:       11  12  13  14      -70.674      -66.316
 Hessian Updated using BFGS Update
**WARNING** Hereditary positive definiteness endangered
**WARNING** Small Scalar Product
 Hessian Update Skipped this cycle

   Using Lagrange Multiplier Algorithm


171 Hessian modes will be used to form the next step
  Hessian Eigenvalues:
    -0.977911   -0.977753   -0.977753   -0.977753   -0.977753   -0.977753
    -0.977753   -0.977753   -0.545015    0.044999    0.045000    0.045000
     0.045102    0.045548    0.045774    0.046807    0.047155    0.048644
     0.048893    0.049494    0.051339    0.053078    0.054354    0.055755
     0.057212    0.057899    0.058992    0.059957    0.060165    0.063526
     0.063669    0.064018    0.066753    0.066878    0.067105    0.067688
     0.068450    0.070820    0.071166    0.072282    0.074189    0.076040
     0.076219    0.076671    0.077000    0.080038    0.081718    0.082492
     0.082806    0.083609    0.084376    0.085162    0.085555    0.085843
     0.086688    0.087003    0.087497    0.087973    0.088685    0.089121
     0.089385    0.089431    0.089576    0.090125    0.090727    0.091646
     0.091969    0.093303    0.094069    0.096629    0.096653    0.098570
     0.101804    0.106197    0.111573    0.111617    0.112985    0.113647
     0.115761    0.117362    0.117947    0.119020    0.120228    0.125380
     0.127546    0.128174    0.128823    0.130169    0.139831    0.154768
     0.158548    0.159993    0.160000    0.160000    0.160000    0.160000
     0.160033    0.168352    0.171538    0.172335    0.179195    0.195898
     0.207197    0.213051    0.223568    0.227848    0.230477    0.236708
     0.239185    0.247567    0.248691    0.250000    0.253425    0.254143
     0.258842    0.263364    0.265704    0.266776    0.266895    0.269978
     0.279731    0.281566    0.291966    0.295559    0.310519    0.311884
     0.319809    0.321226    0.321254    0.322590    0.322835    0.323367
     0.323629    0.324366    0.324455    0.324483    0.325052    0.326087
     0.326169    0.326423    0.328016    0.328719    0.329105    0.330352
     0.331215    0.331827    0.338228    0.359886    0.370257    0.374173
     0.374990    0.382257    0.399655    0.412406    0.461578    0.473271
     0.478560    0.520689    0.928658    0.943207    0.949708    1.022753
     1.022753    1.022753    1.022753    1.022753    1.022753    1.022753
     1.022767    3.257919    6.354942

 Minimum Search - Taking P-RFO Step
 Searching for Lamda that Maximizes Along the Constraint modes Only
 Value Taken    Lamda =   2.25711211


 ********************************************
 ** ERROR IN DETERMINING Lamda IN CONFormD **
 ********************************************



 New Cartesian Coordinates Obtained by Inverse Iteration

 Displacement from previous Coordinates is:  0.000000
 Adding empirical dispersion correction 
 ----------------------------------------------------------------
 Doing -D3(op) with
 s6 =   1.00000
 s8 =   0.78311
 a1 =   0.30000
 a2 =   4.25000
 n  =  10.00000
 -D3 energy without 3body term =     -0.0951714395 hartrees
 ----------------------------------------------------------------
             Standard Nuclear Orientation (Angstroms)
    I     Atom           X                Y                Z
 ----------------------------------------------------------------
    1      O      -1.8239786553    -2.0003720774     1.7958605290
    2      C      -1.7684343847    -1.2218914398     0.8422023105
    3      C      -2.3650583092     0.1713025473     0.8149944444
    4      C      -1.8330201807     1.1543895892    -0.2505781643
    5      C      -0.8827382590     0.5917222294    -1.2960592404
    6      O      -0.4932935168    -0.6876720030    -0.9771049113
    7      C       0.9533983258    -0.8264960460    -0.8829472010
    8      C       1.3114949989    -2.0937947148    -0.0770447236
    9      O       2.6442298959    -1.9657928163     0.3937419030
   10      C       3.4930965480    -1.1974185182    -0.3306335072
   11      C       3.1883619228     0.2685080099    -0.3596958114
   12      C       1.6621359343     0.5239221573    -0.6548991872
   13      C       0.7203957760    -0.6561601538    -0.4763532975
   14      O       0.6575936135    -1.6652800894    -1.2105413688
   15      O      -2.2372994133    -1.9354503995    -0.2652341195
   16      O       0.1186876383    -0.1209725844     1.0552259556
   17      O       4.6635777610    -1.5538211801    -0.4198002047
   18      C       0.3121156733    -0.3293408347     2.4833072890
   19      C       3.6330931828     1.2579600767     0.7324793486
   20      C       3.8806626163     2.6268090000     0.0985418367
   21      C       2.4412807549     3.0379484208    -0.2090312563
   22      C       1.6588850536     1.8246574737     0.3524470156
   23      O       2.4682349983     1.5102664726     1.4655961488
   24      H       3.7630905287     0.5746547370    -1.2658475528
   25      H       1.5796583979     1.1650215439    -1.6148378705
   26      H       4.5114747940     0.9046788716     1.3132418803
   27      H       4.2800752783     3.2989730061     0.8915067659
   28      H       4.5763684777     2.6282483425    -0.7654596389
   29      H       2.2117999013     3.9312028104     0.4151398695
   30      H       2.2125467815     3.2732980080    -1.2687195447
   31      H       0.6503181536     2.1765002494     0.6115157766
   32      O      -0.5947151114     1.1589936850    -2.3494071738
   33      C      -2.0323968785    -3.2892238251    -0.5246808215
   34      C      -3.8707854152     0.1437887068     0.4663873392
   35      C      -4.5553354836     1.4283933171     0.9460027705
   36      C      -4.0283391911     2.4208899843    -0.0709124184
   37      C      -3.1735233497     1.4973018621    -0.9510003583
   38      O      -3.8865168930     0.2790234362    -0.9376995895
   39      H      -2.2805372646     0.6050734015     1.8296178766
   40      H      -1.4099240661     2.0867384656     0.1650701896
   41      H      -3.0087350081    -3.8125089537    -0.5633289189
   42      H      -4.3926511945    -0.7463967469     0.8811349121
   43      H      -5.6515662718     1.3140227359     0.7955369300
   44      H      -4.3535430941     1.6831592885     2.0081491383
   45      H      -4.8877843356     2.8018767069    -0.6651217240
   46      H      -3.4563096751     3.2751361452     0.3493531716
   47      H      -3.0299536872     1.9629418787    -1.9505043611
   48      H      -1.3910225461    -3.7779814408     0.2405749364
   49      H      -1.5276604039    -3.3990798204    -1.5071341068
   50      H      -0.4646781192     0.1933672378     3.0698793684
   51      H       1.2618301499     0.0772046772     2.8793799811
   52      H       0.3158270097    -1.4005539743     2.7661799332
   53      H       0.7513349818    -2.4183229946     0.8990827238
   54      H       1.3253991382    -3.2922721698    -0.3052605300
   55      H       1.8682662361    -0.5371403704     1.0299986679
   56      H       1.7638577498    -0.6946160766    -2.3304265857
 ----------------------------------------------------------------
 Molecular Point Group                 C1    NOp =  1
 Largest Abelian Subgroup              C1    NOp =  1
 Nuclear Repulsion Energy =  3771.7298706701 hartrees
 There are      113 alpha and      113 beta electrons


 *******************************************
 **  MAXIMUM OPTIMIZATION CYCLES REACHED  **
 *******************************************

 Q-Chem fatal error occurred in module 0, line  456, PE  0:

 Maximum optimization cycles reached

