mFile = /opt/software/qchem/qchem-5.0.1//bin/mpi/machines
Process 0 of 1 is on vega02.cac.cornell.edu - thread support 0
initial socket setup ...start
initial socket setup ...done 
now start server 0 ... 
vega02.cac.cornell.edu 10.84.3
Q-Chem Developer Version! Running on 10.84.3.*
                  Welcome to Q-Chem
     A Quantum Leap Into The Future Of Chemistry


 Q-Chem 5.0, Q-Chem, Inc., Pleasanton, CA (2017)

 Yihan Shao,  Zhengting Gan,  E. Epifanovsky,  A. T. B. Gilbert,  M. Wormit,  
 J. Kussmann,  A. W. Lange,  A. Behn,  Jia Deng,  Xintian Feng,  D. Ghosh,  
 M. Goldey,  P. R. Horn,  L. D. Jacobson,  I. Kaliman,  T. Kus,  A. Landau,  
 Jie Liu,  E. I. Proynov,  R. M. Richard,  R. P. Steele,  E. J. Sundstrom,  
 H. L. Woodcock III,  P. M. Zimmerman,  D. Zuev,  B. Albrecht,  E. Alguire,  
 S. A. Baeppler,  Z. Benda,  Y. A. Bernard,  E. J. Berquist,  K. B. Bravaya,  
 D. Casanova,  Chun-Min Chang,  Yunqing Chen,  A. Chien,  K. D. Closser,  
 M. P. Coons,  S. Dasgupta,  M. Diedenhofen,  Hainam Do,  R. G. Edgar,  
 Po-Tung Fang,  S. Fatehi,  Qingguo Feng,  Qinghui Ge,  A. Ghysels,  
 J. Gomes,  J. Gonthier,  A. Gunina,  M. W. D. Hanson-Heine,  
 P. H. P. Harbach,  A. W. Hauser,  J. E. Herr,  E. G. Hohenstein,  
 Z. C. Holden,  Kerwin Hui,  T.-C. Jagau,  Hyunjun Ji,  B. Kaduk,  
 K. Khistyaev,  Jaehoon Kim,  P. Klunzinger,  K. Koh,  D. Kosenkov,  
 T. Kowalczyk,  C. M. Krauter,  A. Kunitsa,  Ka Un Lao,  A. Laurent,  
 K. V. Lawler,  Joonho Lee,  D. Lefrancois,  S. Lehtola,  D. S. Levine,  
 Yi-Pei Li,  You-Sheng Lin,  Fenglai Liu,  E. Livshits,  A. Luenser,  
 P. Manohar,  E. Mansoor,  S. F. Manzer,  Shan-Ping Mao,  Yuezhi Mao,  
 N. Mardirossian,  A. V. Marenich,  L. A. Martinez-Martinez,  S. A. Maurer,  
 N. J. Mayhall,  S. C. McKenzie,  J.-M. Mewes,  A. F. Morrison,  K. Nanda,  
 T. S. Nguyen-Beck,  R. Olivares-Amaya,  J. A. Parkhill,  T. M. Perrine,  
 F. Plasser,  S. Prager,  A. Prociuk,  D. R. Rehn,  F. Rob,  M. Schneider,  
 N. Sergueev,  S. M. Sharada,  S. Sharma,  D. W. Small,  T. Stauch,  
 T. Stein,  Yu-Chuan Su,  A. J. W. Thom,  T. Tsuchimochi,  L. Vogt,  
 O. Vydrov,  M. A. Watson,  J. Wenzel,  M. de Wergifosse,  T. A. Wesolowski,  
 A. White,  J. Witte,  A. Yamada,  Jun Yang,  K. Yao,  S. Yeganeh,  
 S. R. Yost,  Zhi-Qiang You,  A. Zech,  Igor Ying Zhang,  Xing Zhang,  
 Yan Zhao,  Ying Zhu,  B. R. Brooks,  G. K. L. Chan,  C. J. Cramer,  
 M. S. Gordon,  W. J. Hehre,  A. Klamt,  M. W. Schmidt,  C. D. Sherrill,  
 D. G. Truhlar,  A. Aspuru-Guzik,  R. Baer,  A. T. Bell,  N. A. Besley,  
 Jeng-Da Chai,  A. Dreuw,  B. D. Dunietz,  T. R. Furlani,  Chao-Ping Hsu,  
 Yousung Jung,  Jing Kong,  D. S. Lambrecht,  WanZhen Liang,  C. Ochsenfeld,  
 V. A. Rassolov,  L. V. Slipchenko,  J. E. Subotnik,  T. Van Voorhis,  
 J. M. Herbert,  A. I. Krylov,  P. M. W. Gill,  M. Head-Gordon

 Contributors to earlier versions of Q-Chem not listed above: 
 R. D. Adamson,  B. Austin,  J. Baker,  G. J. O. Beran,  K. Brandhorst,  
 S. T. Brown,  E. F. C. Byrd,  A. K. Chakraborty,  C.-L. Cheng,  
 Siu Hung Chien,  D. M. Chipman,  D. L. Crittenden,  H. Dachsel,  
 R. A. DiStasio Jr.,  R. J. Doerksen,  A. D. Dutoi,  L. Fusti-Molnar,  
 W. A. Goddard III,  A. Golubeva-Zadorozhnaya,  S. R. Gwaltney,  G. Hawkins,  
 A. Heyden,  S. Hirata,  G. Kedziora,  F. J. Keil,  C. Kelley,  Jihan Kim,  
 R. A. King,  R. Z. Khaliullin,  P. P. Korambath,  W. Kurlancheek,  
 A. M. Lee,  M. S. Lee,  S. V. Levchenko,  Ching Yeh Lin,  D. Liotard,  
 R. C. Lochan,  I. Lotan,  P. E. Maslen,  N. Nair,  D. P. O'Neill,  
 D. Neuhauser,  E. Neuscamman,  C. M. Oana,  R. Olson,  B. Peters,  
 R. Peverati,  P. A. Pieniazek,  Y. M. Rhee,  J. Ritchie,  M. A. Rohrdanz,  
 E. Rosta,  N. J. Russ,  H. F. Schaefer III,  N. E. Schultz,  N. Shenvi,  
 A. C. Simmonett,  A. Sodt,  D. Stuck,  K. S. Thanthiriwatte,  V. Vanovschi,  
 Tao Wang,  A. Warshel,  C. F. Williams,  Q. Wu,  X. Xu,  W. Zhang

 Please cite Q-Chem as follows:
 Y. Shao et al., Mol. Phys. 113, 184-215 (2015)
 DOI: 10.1080/00268976.2014.952696

 Q-Chem 5.0.1 for Intel X86 EM64T Linux

 Parts of Q-Chem use Armadillo 5.200.1 (Boston Tea Smuggler).
 http://arma.sourceforge.net/

 Q-Chem begins on Wed Jan 17 07:54:45 2018  

Host: vega02.cac.cornell.edu
0

     Scratch files written to /scratch/jj585/SOT1001/1429r.save//
 Parallel job on  1  processors

Checking the input file for inconsistencies... 	...done.

--------------------------------------------------------------
User input:
--------------------------------------------------------------
$molecule
0  1
O -3.8710442689 2.4277097772 1.2558340072
C -3.8515918423 1.7724611029 0.1928873301
C -4.6383579949 0.4503230239 -0.1220813837
C -3.8507071963 -0.675357757 -0.8992380005
C -2.2852759905 -0.6888522827 -0.7084792764
O -1.8817389606 0.3887143084 0.1344237118
C -0.4126028295 0.5867822021 0.2271463222
C 0.434042326 -0.7110469711 0.4868882476
O 1.8437824304 -0.2634695974 0.4942415961
C 2.6824566361 -1.1294951347 1.2560535766
C 4.1817526196 -0.9121981761 0.8516393212
C 4.4840229748 -0.4125113769 -0.6271108697
C 3.2803507018 0.2399452046 -1.4050792142
O 2.8458985255 1.4086487189 -1.3153029359
O -3.3066598642 2.2598904574 -1.0462670557
O 2.7247655547 -0.7677308836 -2.2689627484
O 2.263865665 -1.9573480449 2.0952289794
C 1.5315311215 -0.2435919268 -2.9733771585
C 4.9524831371 0.1887299134 1.7151588526
C 6.4763587868 -0.2197981417 1.7323937917
C 6.8768220793 0.0859493312 0.2410245449
C 5.5435220099 0.7294106775 -0.3144423649
O 4.9422769051 1.3973061326 0.864896382
H 4.6648018221 -1.8934526481 1.0101286416
H 4.8958112382 -1.2315571217 -1.242601504
H 4.5031620309 0.4005322217 2.7047848386
H 7.0339498927 0.4181436062 2.4368547618
H 6.6276399859 -1.2744838363 2.0123865058
H 7.709198573 0.8047668448 0.1820894681
H 7.1547999672 -0.8221379941 -0.3176859567
H 5.6787493331 1.4576445635 -1.1372084399
O -1.5175963381 -1.495968199 -1.281820245
C -2.6039231453 3.5401183606 -0.8153571451
C -5.1796648987 -0.3470763464 1.1393285806
C -6.5107902348 -1.0641481156 0.6906389824
C -5.9354408301 -2.1353990758 -0.3096192093
C -4.3789977331 -1.9529007358 -0.1067264216
O -4.2422418621 -1.4859803989 1.2955334905
H -5.4950537169 0.7632757558 -0.748716096
H -4.0774651045 -0.6986913382 -1.979898793
H -1.7051992141 3.4018547002 -0.1797223916
H -5.2324475049 0.2513703578 2.0698168171
H -6.9982447917 -1.5433442424 1.5550735464
H -7.2266102437 -0.3743775365 0.2157049802
H -6.2440716692 -3.1569456268 -0.0368527028
H -6.2368304174 -1.9449411714 -1.3525358732
H -3.7731796648 -2.8648326378 -0.2754251362
H -3.2628698924 4.2895909832 -0.3313211585
H -2.2940799018 3.9056068669 -1.8117984727
H 1.6599036847 -0.4058109964 -4.0611184671
H 1.4252906501 0.8390049768 -2.7569473972
H 0.6284411274 -0.7869575449 -2.6264450047
H 0.1649562554 -1.1840811748 1.455304608
H 0.2505948173 -1.4321016954 -0.3369476704
H -0.2727691917 1.3050062894 1.0600891128
H -0.0461976331 1.0612177157 -0.7101665036
$end

$rem
JOBTYPE                   OPT
METHOD                    B3LYP
DFT_D                     d3_op
BASIS                     STO-3G
GEOM_OPT_MAX_CYCLES       100
GEOM_OPT_TOL_GRADIENT     300
GEOM_OPT_TOL_DISPLACEMENT 1200
GEOM_OPT_TOL_ENERGY       100
SYMMETRY                  False
THRESH                    12
SCF_CONVERGENCE           8
MAX_SUB_FILE_NUM          128
MEM_STATIC                400
MEM_TOTAL                 4000
$end
--------------------------------------------------------------
 Adding empirical dispersion correction 
 ----------------------------------------------------------------
 Doing -D3(op) with
 s6 =   1.00000
 s8 =   0.78311
 a1 =   0.30000
 a2 =   4.25000
 n  =  10.00000
 -D3 energy without 3body term =     -0.0694824140 hartrees
 ----------------------------------------------------------------
             Standard Nuclear Orientation (Angstroms)
    I     Atom           X                Y                Z
 ----------------------------------------------------------------
    1      O      -3.8276531302     1.7879733334     2.1869702653
    2      C      -3.8368860240     1.5879446637     0.9542950667
    3      C      -4.6457214882     0.4891565143     0.1766671582
    4      C      -3.8871459808    -0.2577359849    -0.9887676115
    5      C      -2.3185820200    -0.3490687613    -0.8530794467
    6      O      -1.8855928064     0.3236522995     0.3277863608
    7      C      -0.4126212138     0.4656544627     0.4557684592
    8      C       0.4229997711    -0.8363285068     0.1815197274
    9      O       1.8379782324    -0.4308943822     0.3271420600
   10      C       2.6806710898    -1.5253554277     0.6817628663
   11      C       4.1743592728    -1.1759574159     0.3569953409
   12      C       4.4538893471    -0.1508837933    -0.8257317611
   13      C       3.2433716609     0.7537548404    -1.2684925888
   14      O       2.8250563599     1.8013952556    -0.7298477641
   15      O      -3.3102475119     2.5093052731    -0.0171926241
   16      O       2.6588200622     0.1542286371    -2.4386415003
   17      O       2.2684016114    -2.6091982472     1.1509033767
   18      C       1.4586007907     0.9121509284    -2.8626193542
   19      C       4.9751314924    -0.4909321608     1.5575112392
   20      C       6.4939501019    -0.8810032192     1.3830870107
   21      C       6.8690327369    -0.0307498887     0.1124899514
   22      C       5.5331396216     0.7811550684    -0.1251547255
   23      O       4.9631518441     0.9507004476     1.2330750756
   24      H       4.6483777118    -2.1452819399     0.1181811409
   25      H       4.8435917796    -0.6746041056    -1.7162839917
   26      H       4.5477661136    -0.6711315622     2.5629943446
   27      H       7.0728897000    -0.5623818295     2.2648194674
   28      H       6.6377545456    -1.9632900921     1.2360521775
   29      H       7.7088237366     0.6529224211     0.3134024648
   30      H       7.1249769099    -0.6579241461    -0.7565306193
   31      H       5.6612225349     1.7677537472    -0.6107191909
   32      O      -1.5721164811    -0.8792257986    -1.7081880552
   33      C      -2.5875663460     3.6017633239     0.6686711427
   34      C      -5.1720893179    -0.7272154079     1.0503892380
   35      C      -6.5203504509    -1.2136032576     0.3923408241
   36      C      -5.9776951761    -1.8242157757    -0.9536902352
   37      C      -4.4154868317    -1.7389900751    -0.7318166000
   38      O      -4.2457870775    -1.8431397206     0.7390350156
   39      H      -5.5105575654     1.0208936028    -0.2636194114
   40      H      -4.1351498539     0.1340231303    -1.9911698401
   41      H      -1.6784042189     3.2278926052     1.1829648296
   42      H      -5.1994482089    -0.5290048993     2.1397454263
   43      H      -6.9967150991    -1.9845592097     1.0193907665
   44      H      -7.2367942288    -0.3920195478     0.2328022262
   45      H      -6.2934171951    -2.8713357176    -1.0843476186
   46      H      -6.2969653426    -1.2489676091    -1.8379646113
   47      H      -3.8242495137    -2.5198391612    -1.2493180209
   48      H      -3.2277689306     4.1123050372     1.4168012608
   49      H      -2.2927228794     4.3186892209    -0.1197225353
   50      H       1.5637994536     1.1768680904    -3.9325884011
   51      H       1.3698224287     1.8305952076    -2.2472142490
   52      H       0.5558601797     0.2810029813    -2.7288609533
   53      H       0.1670438970    -1.6421196544     0.9020654480
   54      H       0.2147677657    -1.1876565028    -0.8507043736
   55      H      -0.2478490047     0.8110590285     1.4963158071
   56      H      -0.0587497531     1.2604933621    -0.2377034373
 ----------------------------------------------------------------
 Molecular Point Group                 C1    NOp =  1
 Largest Abelian Subgroup              C1    NOp =  1
 Nuclear Repulsion Energy =  3138.5513386661 hartrees
 There are      113 alpha and      113 beta electrons
 Requested basis set is STO-3G
 There are 86 shells and 176 basis functions

 Total QAlloc Memory Limit   4000 MB
 Mega-Array Size       392 MB
 MEM_STATIC part       400 MB
 A cutoff of  1.0D-12 yielded   2138 shell pairs
 There are      9977 function pairs
 
 -------------------------------------------------------
 OpenMP Integral Computing Module                       
 Release: version 1.0, May 2013, Q-Chem Inc. Pittsburgh 
 -------------------------------------------------------
 Integral Job Info:
 Integral job number is                      11
 Integral operator is                         1
 short-range coefficients                     0
 long-range coefficients              100000000
 Omega coefficients                           0
 if combine SR and LR in K                    0
 Integral screening is                        0
 Integral computing path is                   2
 max size of driver memory is            800000
 size of driver memory is                 45569
 size of scratch memory is              1046100
 max col of scratch BK array                289
 max len of scratch array in speh3           22
 max len of scratch index in speh4            8
 max int batch size is                      520
 min int batch size is                       52
 fixed nKL is                                52
 max L of basis functions is                  1
 order of int derivative is                   0
 number of shells is                         86
 number of basis is                         176
 number of cartesian basis is               176
 number of contracted shell pairs          2138
 number of primitive shell pairs          11076
 maxK2 (contraction) of shell pair            9
 max number of K2 of shell pair               1
 max number of CS2 of shell pair            319
 max number of PS2 of shell pair           1260
 mem total for path MDJ                   49782
 -------------------------------------------------------
 Smallest overlap matrix eigenvalue = 2.13E-01

 Scale SEOQF with 1.000000e-02/1.000000e-01/1.000000e-01

 Standard Electronic Orientation quadrupole field applied
 Nucleus-field energy     =     0.0000000115 hartrees
 Guess from superposition of atomic densities
 Warning:  Energy on first SCF cycle will be non-variational
 A restricted hybrid HF-DFT SCF calculation will be
 performed using Pulay DIIS extrapolation
 Exchange:     0.2000 Hartree-Fock + 0.0800 Slater + 0.7200 B88
 Correlation:  0.1900 VWN1RPA + 0.8100 LYP
 Using SG-1 standard quadrature grid
 Dispersion:   Grimme D3
 SCF converges when DIIS error is below 1.0E-08
 using 48 threads for integral computing
 -------------------------------------------------------
 OpenMP Integral computing Module                
 Release: version 1.0, May 2013, Q-Chem Inc. Pittsburgh 
 -------------------------------------------------------
 -------------------------------------------------------
 OpenMP BLAS3 based DFT computing Module                
 Release: version 1.0, May 2013, Q-Chem Inc. Pittsburgh 
 -------------------------------------------------------
 ---------------------------------------
  Cycle       Energy         DIIS Error
 ---------------------------------------
    1   -1507.6277259115      7.46E-02
    2   -1509.7275853537      1.04E-02
    3   -1507.3053403180      2.75E-02
    4   -1510.1836513424      4.37E-03
    5   -1510.2627779860      1.40E-03
    6   -1510.2712250076      2.98E-04
    7   -1510.2715593215      1.32E-04
    8   -1510.2716265993      3.95E-05
    9   -1510.2716333562      7.70E-06
   10   -1510.2716335733      3.57E-06
   11   -1510.2716336225      1.39E-06
   12   -1510.2716336311      2.94E-07
   13   -1510.2716336315      1.18E-07
   14   -1510.2716336315      6.28E-08
   15   -1510.2716336315      1.33E-08
   16   -1510.2716336315      4.90E-09 Convergence criterion met
 ---------------------------------------
 SCF time:  CPU 123.65 s  wall 2.63 s
 SCF   energy in the final basis set = -1510.27163363
 Total energy in the final basis set = -1510.27163363
 
 --------------------------------------------------------------
 
                    Orbital Energies (a.u.)
 --------------------------------------------------------------
 
 Alpha MOs
 -- Occupied --
-18.952 -18.937 -18.923 -18.922 -18.888 -18.887 -18.885 -18.879
-18.867 -18.865 -10.114 -10.104 -10.098 -10.094 -10.081 -10.068
-10.062 -10.061 -10.059 -10.058 -10.058 -10.051 -10.043 -10.039
-10.036 -10.036 -10.022 -10.021 -10.020 -10.019  -1.024  -1.016
 -1.002  -1.000  -0.971  -0.970  -0.950  -0.941  -0.930  -0.926
 -0.766  -0.762  -0.731  -0.723  -0.710  -0.705  -0.699  -0.658
 -0.656  -0.618  -0.598  -0.589  -0.546  -0.545  -0.539  -0.537
 -0.516  -0.510  -0.491  -0.474  -0.460  -0.459  -0.458  -0.443
 -0.439  -0.432  -0.429  -0.410  -0.408  -0.407  -0.404  -0.400
 -0.392  -0.387  -0.375  -0.368  -0.364  -0.359  -0.354  -0.347
 -0.343  -0.342  -0.335  -0.333  -0.331  -0.327  -0.323  -0.312
 -0.311  -0.311  -0.306  -0.304  -0.301  -0.296  -0.289  -0.274
 -0.271  -0.250  -0.246  -0.243  -0.238  -0.235  -0.234  -0.192
 -0.179  -0.168  -0.165  -0.158  -0.157  -0.148  -0.147  -0.146
 -0.143
 -- Virtual --
  0.087   0.090   0.110   0.113   0.199   0.237   0.242   0.260
  0.262   0.273   0.282   0.286   0.302   0.313   0.327   0.329
  0.332   0.341   0.341   0.345   0.350   0.352   0.365   0.370
  0.378   0.380   0.384   0.389   0.394   0.400   0.405   0.410
  0.414   0.416   0.418   0.420   0.421   0.431   0.435   0.436
  0.437   0.439   0.440   0.444   0.448   0.450   0.459   0.465
  0.468   0.479   0.488   0.490   0.491   0.503   0.505   0.538
  0.539   0.552   0.552   0.629   0.635   0.651   0.656
 --------------------------------------------------------------
 
          Ground-State Mulliken Net Atomic Charges

     Atom                 Charge (a.u.)
  ----------------------------------------
      1 O                    -0.219342
      2 C                     0.220824
      3 C                    -0.080573
      4 C                    -0.074911
      5 C                     0.220235
      6 O                    -0.162893
      7 C                    -0.045902
      8 C                    -0.059842
      9 O                    -0.172850
     10 C                     0.211665
     11 C                    -0.079753
     12 C                    -0.078505
     13 C                     0.218613
     14 O                    -0.216519
     15 O                    -0.177495
     16 O                    -0.175917
     17 O                    -0.210187
     18 C                    -0.139519
     19 C                     0.025950
     20 C                    -0.142187
     21 C                    -0.145544
     22 C                     0.026069
     23 O                    -0.184730
     24 H                     0.086252
     25 H                     0.085412
     26 H                     0.084509
     27 H                     0.078365
     28 H                     0.074484
     29 H                     0.078148
     30 H                     0.073597
     31 H                     0.084649
     32 O                    -0.217915
     33 C                    -0.128985
     34 C                     0.023124
     35 C                    -0.141621
     36 C                    -0.145430
     37 C                     0.023599
     38 O                    -0.192517
     39 H                     0.083332
     40 H                     0.089271
     41 H                     0.085464
     42 H                     0.091405
     43 H                     0.078466
     44 H                     0.073544
     45 H                     0.078932
     46 H                     0.073734
     47 H                     0.084845
     48 H                     0.088823
     49 H                     0.087817
     50 H                     0.083114
     51 H                     0.096299
     52 H                     0.087619
     53 H                     0.096667
     54 H                     0.107506
     55 H                     0.097813
     56 H                     0.092992
  ----------------------------------------
  Sum of atomic charges =    -0.000000

 -----------------------------------------------------------------
                    Cartesian Multipole Moments
 -----------------------------------------------------------------
    Charge (ESU x 10^10)
                 0.0000
    Dipole Moment (Debye)
         X      -0.3670      Y       0.3532      Z      -2.2522
       Tot       2.3090
    Quadrupole Moments (Debye-Ang)
        XX    -135.0394     XY      -4.7061     YY    -164.1546
        XZ       4.4324     YZ      -1.6736     ZZ    -163.5316
    Octopole Moments (Debye-Ang^2)
       XXX      11.6641    XXY     -34.0082    XYY     -19.2314
       YYY      41.5143    XXZ     -37.5473    XYZ      -7.3679
       YYZ     -12.6828    XZZ      14.1042    YZZ       6.1111
       ZZZ      -3.8432
    Hexadecapole Moments (Debye-Ang^3)
      XXXX  -15198.3480   XXXY     -61.2752   XXYY   -3105.1333
      XYYY     -43.0434   YYYY   -2060.5767   XXXZ      32.3387
      XXYZ     -40.6970   XYYZ     -35.3439   YYYZ      54.6635
      XXZZ   -3028.5765   XYZZ      24.2228   YYZZ    -622.5929
      XZZZ      15.3941   YZZZ     -52.3274   ZZZZ   -1497.4938
 -----------------------------------------------------------------
 Calculating analytic gradient of the SCF energy
 Gradient of SCF Energy
            1           2           3           4           5           6
    1  -0.0044926   0.0060653  -0.0008832  -0.0005611  -0.0009191   0.0002785
    2   0.0035739  -0.0042020  -0.0052592   0.0118227  -0.0150264   0.0081201
    3  -0.0005847  -0.0002408   0.0057458  -0.0083020   0.0089744  -0.0044178
            7           8           9          10          11          12
    1  -0.0005186   0.0005026  -0.0004741   0.0003346   0.0011554  -0.0045913
    2   0.0001222   0.0016706  -0.0011707   0.0019459   0.0018181  -0.0064978
    3   0.0044817  -0.0094833   0.0027457   0.0031067   0.0009133  -0.0020634
           13          14          15          16          17          18
    1   0.0080733  -0.0048918   0.0000975  -0.0000156   0.0000785  -0.0001856
    2   0.0078686  -0.0042140  -0.0000315   0.0001019  -0.0001364   0.0001524
    3  -0.0050285   0.0045832  -0.0000071  -0.0000837   0.0001195   0.0000574
           19          20          21          22          23          24
    1   0.0003166  -0.0004599   0.0002915   0.0003536  -0.0001162   0.0000863
    2  -0.0002368  -0.0001500   0.0001023  -0.0001955   0.0002158  -0.0000293
    3  -0.0002100  -0.0002758  -0.0000270   0.0000573   0.0001309   0.0000007
           25          26          27          28          29          30
    1  -0.0002151  -0.0001184   0.0000221   0.0000298   0.0000049  -0.0001092
    2   0.0001003   0.0000571   0.0000138  -0.0000138   0.0000101  -0.0000607
    3  -0.0000410  -0.0000024  -0.0000002   0.0000654  -0.0000171  -0.0000122
           31          32          33          34          35          36
    1   0.0000669  -0.0000680  -0.0000435   0.0003397  -0.0001728   0.0003099
    2  -0.0000050   0.0000576  -0.0000943   0.0005922  -0.0002436  -0.0000732
    3   0.0000375  -0.0000128   0.0000072  -0.0000925  -0.0003198   0.0002679
           37          38          39          40          41          42
    1   0.0003235   0.0000176   0.0000646  -0.0000854   0.0000160  -0.0000129
    2   0.0001179  -0.0000505  -0.0004013   0.0000824  -0.0000084   0.0000148
    3   0.0003373  -0.0000642  -0.0000689  -0.0000481   0.0000210   0.0000300
           43          44          45          46          47          48
    1  -0.0000803  -0.0000302  -0.0000728  -0.0001630   0.0000379  -0.0000090
    2  -0.0000605  -0.0000055  -0.0000655  -0.0000211  -0.0000442   0.0000116
    3   0.0000941  -0.0000550  -0.0001119  -0.0000661  -0.0000399  -0.0000052
           49          50          51          52          53          54
    1  -0.0000137  -0.0000103   0.0000951   0.0000609   0.0000035   0.0001764
    2   0.0000046  -0.0000122  -0.0001889   0.0000087   0.0000871  -0.0000540
    3  -0.0000450  -0.0000418   0.0001435  -0.0000660  -0.0000043  -0.0000796
           55          56
    1   0.0000200   0.0000911
    2   0.0000001  -0.0001204
    3  -0.0000217   0.0000192
 Max gradient component =       1.503E-02
 RMS gradient           =       2.648E-03
 Gradient time:  CPU 31.52 s  wall 0.68 s
 Geometry Optimization Parameters
   NAtoms,    NIC,     NZ,  NCons,   NDum,   NFix, NCnnct, MaxDiis
       56     458       0       0       0       0       0       0


** GEOMETRY OPTIMIZATION IN DELOCALIZED INTERNAL COORDINATES **
   Searching for a Minimum

   Optimization Cycle:   1

                       Coordinates (Angstroms)
     ATOM                X               Y               Z
      1  O        -3.8276531302    1.7879733334    2.1869702653
      2  C        -3.8368860240    1.5879446637    0.9542950667
      3  C        -4.6457214882    0.4891565143    0.1766671582
      4  C        -3.8871459808   -0.2577359849   -0.9887676115
      5  C        -2.3185820200   -0.3490687613   -0.8530794467
      6  O        -1.8855928064    0.3236522995    0.3277863608
      7  C        -0.4126212138    0.4656544627    0.4557684592
      8  C         0.4229997711   -0.8363285068    0.1815197274
      9  O         1.8379782324   -0.4308943822    0.3271420600
     10  C         2.6806710898   -1.5253554277    0.6817628663
     11  C         4.1743592728   -1.1759574159    0.3569953409
     12  C         4.4538893471   -0.1508837933   -0.8257317611
     13  C         3.2433716609    0.7537548404   -1.2684925888
     14  O         2.8250563599    1.8013952556   -0.7298477641
     15  O        -3.3102475119    2.5093052731   -0.0171926241
     16  O         2.6588200622    0.1542286371   -2.4386415003
     17  O         2.2684016114   -2.6091982472    1.1509033767
     18  C         1.4586007907    0.9121509284   -2.8626193542
     19  C         4.9751314924   -0.4909321608    1.5575112392
     20  C         6.4939501019   -0.8810032192    1.3830870107
     21  C         6.8690327369   -0.0307498887    0.1124899514
     22  C         5.5331396216    0.7811550684   -0.1251547255
     23  O         4.9631518441    0.9507004476    1.2330750756
     24  H         4.6483777118   -2.1452819399    0.1181811409
     25  H         4.8435917796   -0.6746041056   -1.7162839917
     26  H         4.5477661136   -0.6711315622    2.5629943446
     27  H         7.0728897000   -0.5623818295    2.2648194674
     28  H         6.6377545456   -1.9632900921    1.2360521775
     29  H         7.7088237366    0.6529224211    0.3134024648
     30  H         7.1249769099   -0.6579241461   -0.7565306193
     31  H         5.6612225349    1.7677537472   -0.6107191909
     32  O        -1.5721164811   -0.8792257986   -1.7081880552
     33  C        -2.5875663460    3.6017633239    0.6686711427
     34  C        -5.1720893179   -0.7272154079    1.0503892380
     35  C        -6.5203504509   -1.2136032576    0.3923408241
     36  C        -5.9776951761   -1.8242157757   -0.9536902352
     37  C        -4.4154868317   -1.7389900751   -0.7318166000
     38  O        -4.2457870775   -1.8431397206    0.7390350156
     39  H        -5.5105575654    1.0208936028   -0.2636194114
     40  H        -4.1351498539    0.1340231303   -1.9911698401
     41  H        -1.6784042189    3.2278926052    1.1829648296
     42  H        -5.1994482089   -0.5290048993    2.1397454263
     43  H        -6.9967150991   -1.9845592097    1.0193907665
     44  H        -7.2367942288   -0.3920195478    0.2328022262
     45  H        -6.2934171951   -2.8713357176   -1.0843476186
     46  H        -6.2969653426   -1.2489676091   -1.8379646113
     47  H        -3.8242495137   -2.5198391612   -1.2493180209
     48  H        -3.2277689306    4.1123050372    1.4168012608
     49  H        -2.2927228794    4.3186892209   -0.1197225353
     50  H         1.5637994536    1.1768680904   -3.9325884011
     51  H         1.3698224287    1.8305952076   -2.2472142490
     52  H         0.5558601797    0.2810029813   -2.7288609533
     53  H         0.1670438970   -1.6421196544    0.9020654480
     54  H         0.2147677657   -1.1876565028   -0.8507043736
     55  H        -0.2478490047    0.8110590285    1.4963158071
     56  H        -0.0587497531    1.2604933621   -0.2377034373
   Point Group: c1    Number of degrees of freedom:   162


   Energy is  -1510.271633632


 Attempting to Generate Delocalized Internal Coordinates

162 Hessian modes will be used to form the next step
  Hessian Eigenvalues:
     0.002000    0.002000    0.002000    0.002000    0.002000    0.002753
     0.002831    0.003975    0.004359    0.004509    0.004762    0.004870
     0.005182    0.005253    0.005444    0.006777    0.006827    0.010502
     0.010518    0.012160    0.012194    0.021437    0.021586    0.025485
     0.025550    0.030498    0.030647    0.034762    0.035081    0.037976
     0.038583    0.041954    0.042178    0.042780    0.043785    0.044058
     0.047173    0.047773    0.050944    0.051223    0.053982    0.054188
     0.054368    0.055278    0.055698    0.055805    0.056193    0.056483
     0.057955    0.058770    0.059664    0.060467    0.060685    0.062992
     0.063328    0.064380    0.064632    0.069907    0.070233    0.073251
     0.073541    0.091264    0.092126    0.092740    0.093330    0.096524
     0.096696    0.097296    0.100535    0.101258    0.102526    0.105361
     0.111451    0.111753    0.117666    0.121648    0.122078    0.132792
     0.140721    0.157089    0.158465    0.160000    0.160000    0.160000
     0.160000    0.160000    0.160000    0.164387    0.164647    0.218573
     0.218593    0.219677    0.221196    0.225979    0.230904    0.238511
     0.238543    0.239333    0.240106    0.243025    0.244861    0.246391
     0.249663    0.249929    0.249994    0.250000    0.250000    0.250000
     0.250000    0.250000    0.250000    0.250000    0.250000    0.253166
     0.253539    0.254721    0.256515    0.259254    0.259846    0.261749
     0.290244    0.293028    0.305576    0.308010    0.323254    0.325097
     0.325915    0.326440    0.326596    0.326903    0.326935    0.327391
     0.328402    0.328576    0.328878    0.328942    0.329146    0.329639
     0.330641    0.331210    0.331957    0.332230    0.334430    0.334577
     0.334749    0.334794    0.334948    0.334998    0.335213    0.335307
     0.339671    0.344027    0.346724    0.347349    0.397392    0.397554
     0.415181    0.415563    0.822137    0.829018    0.832108    0.836694

 Minimum Search - Taking Simple RFO Step
 Searching for Lamda that Minimizes Along All modes
 Value Taken    Lamda =  -0.01697791
 Calculated Step too Large.  Step scaled by  0.343515
 Step Taken.  Stepsize is  0.300000

                             Maximum     Tolerance    Cnvgd?
         Gradient           0.006093      0.000300      NO
         Displacement       0.075813      0.001200      NO
         Energy change     *********      0.000001      NO


 New Cartesian Coordinates Obtained by Inverse Iteration

 Displacement from previous Coordinates is:  2.131542
 Adding empirical dispersion correction 
 ----------------------------------------------------------------
 Doing -D3(op) with
 s6 =   1.00000
 s8 =   0.78311
 a1 =   0.30000
 a2 =   4.25000
 n  =  10.00000
 -D3 energy without 3body term =     -0.0690010727 hartrees
 ----------------------------------------------------------------
             Standard Nuclear Orientation (Angstroms)
    I     Atom           X                Y                Z
 ----------------------------------------------------------------
    1      O      -3.7493338745     1.7009410811     2.2714148026
    2      C      -3.8557750906     1.5973331681     1.0314386234
    3      C      -4.6511140456     0.5042458097     0.2320087533
    4      C      -3.9141376348    -0.1459923211    -1.0029840962
    5      C      -2.3381674054    -0.1576108955    -0.9450734414
    6      O      -1.8873278510     0.3957139023     0.2898383681
    7      C      -0.4118323477     0.5011149858     0.4234723176
    8      C       0.3954306105    -0.8219841416     0.1666700461
    9      O       1.8182303087    -0.4381742952     0.2931132587
   10      C       2.6473639517    -1.5360170641     0.6686577018
   11      C       4.1493963657    -1.1919455090     0.3784714942
   12      C       4.4632606051    -0.2116760547    -0.8323070824
   13      C       3.2621997350     0.6615433085    -1.3567172999
   14      O       2.8645333425     1.7654472619    -0.9255672857
   15      O      -3.4345467331     2.6051046044     0.0949231185
   16      O       2.7121590165    -0.0057074306    -2.5067761393
   17      O       2.2231606429    -2.6028364197     1.1652948510
   18      C       1.5478179182     0.7443784721    -3.0325451386
   19      C       4.9095457208    -0.4563022241     1.5760225904
   20      C       6.4353341969    -0.8430115302     1.4648325341
   21      C       6.8464386228    -0.0400878324     0.1745985006
   22      C       5.5151252966     0.7540795828    -0.1372165887
   23      O       4.9013718184     0.9719155511     1.1950094875
   24      H       4.6342455357    -2.1669466523     0.1899561974
   25      H       4.8817246510    -0.7735751341    -1.6858273552
   26      H       4.4518162385    -0.5998511185     2.5739932926
   27      H       6.9842567670    -0.4869042029     2.3513965544
   28      H       6.5892946322    -1.9292215031     1.3644416153
   29      H       7.6760418480     0.6559646392     0.3753057712
   30      H       7.1333362805    -0.6988859116    -0.6606901963
   31      H       5.6537676418     1.7214571475    -0.6573411854
   32      O      -1.6062926575    -0.6072417466    -1.8570545921
   33      C      -2.7066171993     3.6774966367     0.8065292029
   34      C      -5.0728187231    -0.7824820414     1.0622430299
   35      C      -6.4272913229    -1.3010858114     0.4433360948
   36      C      -5.9237927484    -1.8133826271    -0.9580028033
   37      C      -4.3581542710    -1.6628814456    -0.8051080200
   38      O      -4.1114330875    -1.8337120271     0.6482856681
   39      H      -5.5627680782     1.0136857679    -0.1342510249
   40      H      -4.2287626324     0.2872221661    -1.9689140048
   41      H      -1.7497320924     3.3081128797     1.2293167457
   42      H      -5.0552859693    -0.6427333805     2.1608148338
   43      H      -6.8347320946    -2.1263680973     1.0493402749
   44      H      -7.1888748501    -0.5091254778     0.3626697428
   45      H      -6.1960108895    -2.8666230876    -1.1302921658
   46      H      -6.3127159172    -1.2093444963    -1.7938007539
   47      H      -3.7565802382    -2.3850883633    -1.3912285980
   48      H      -3.3107559898     4.1073742046     1.6314070341
   49      H      -2.4958024723     4.4590912073     0.0534607185
   50      H       1.7021634429     0.9300753250    -4.1131134118
   51      H       1.4553415432     1.7061493316    -2.4878552477
   52      H       0.6260241010     0.1427322437    -2.8926438966
   53      H       0.1268457169    -1.6122498956     0.8997594400
   54      H       0.1758707167    -1.1836083887    -0.8596005061
   55      H      -0.2433531655     0.8406909332     1.4653534191
   56      H      -0.0371707850     1.2895065983    -0.2664892313
 ----------------------------------------------------------------
 Molecular Point Group                 C1    NOp =  1
 Largest Abelian Subgroup              C1    NOp =  1
 Nuclear Repulsion Energy =  3134.1415715015 hartrees
 There are      113 alpha and      113 beta electrons
 Applying Cartesian multipole field
    Component          Value
    ---------          -----
     (2,0,0)        1.00000E-12
     (0,2,0)        2.00000E-11
     (0,0,2)       -3.00000E-11
 Nucleus-field energy     =     0.0000000080 hartrees
 Requested basis set is STO-3G
 There are 86 shells and 176 basis functions
 A cutoff of  1.0D-12 yielded   2127 shell pairs
 There are      9930 function pairs
 Smallest overlap matrix eigenvalue = 2.13E-01
 Guess MOs from SCF MO coefficient file
 Reading MOs from coefficient file
 Reading MOs from coefficient file
 A restricted hybrid HF-DFT SCF calculation will be
 performed using Pulay DIIS extrapolation
 Exchange:     0.2000 Hartree-Fock + 0.0800 Slater + 0.7200 B88
 Correlation:  0.1900 VWN1RPA + 0.8100 LYP
 Using SG-1 standard quadrature grid
 Dispersion:   Grimme D3
 SCF converges when DIIS error is below 1.0E-08
 Geometry optimization detected.  Setting ReadMinima to 0
 Setting SaveMinima to 0
 using 48 threads for integral computing
 -------------------------------------------------------
 OpenMP Integral computing Module                
 Release: version 1.0, May 2013, Q-Chem Inc. Pittsburgh 
 -------------------------------------------------------
 -------------------------------------------------------
 OpenMP BLAS3 based DFT computing Module                
 Release: version 1.0, May 2013, Q-Chem Inc. Pittsburgh 
 -------------------------------------------------------
 ---------------------------------------
  Cycle       Energy         DIIS Error
 ---------------------------------------
    1   -1510.1903582919      4.44E-03
    2   -1510.2751446022      3.42E-04
    3   -1510.2751666049      4.61E-04
    4   -1510.2759303909      1.92E-04
    5   -1510.2760818012      5.72E-05
    6   -1510.2760966713      1.63E-05
    7   -1510.2760977064      7.95E-06
    8   -1510.2760979648      2.63E-06
    9   -1510.2760979961      4.63E-07
   10   -1510.2760979971      2.87E-07
   11   -1510.2760979975      1.31E-07
   12   -1510.2760979976      4.02E-08
   13   -1510.2760979976      1.14E-08
   14   -1510.2760979975      4.72E-09 Convergence criterion met
 ---------------------------------------
 SCF time:  CPU 102.90 s  wall 2.15 s
 SCF   energy in the final basis set = -1510.27609800
 Total energy in the final basis set = -1510.27609800
 
 --------------------------------------------------------------
 
                    Orbital Energies (a.u.)
 --------------------------------------------------------------
 
 Alpha MOs
 -- Occupied --
-18.951 -18.940 -18.924 -18.921 -18.888 -18.887 -18.882 -18.880
-18.866 -18.864 -10.112 -10.105 -10.097 -10.094 -10.081 -10.071
-10.062 -10.061 -10.060 -10.058 -10.058 -10.049 -10.042 -10.039
-10.036 -10.035 -10.022 -10.021 -10.020 -10.020  -1.022  -1.017
 -1.002  -0.999  -0.971  -0.970  -0.948  -0.942  -0.929  -0.926
 -0.765  -0.762  -0.731  -0.723  -0.711  -0.705  -0.699  -0.658
 -0.655  -0.618  -0.598  -0.589  -0.546  -0.545  -0.538  -0.537
 -0.516  -0.510  -0.491  -0.474  -0.460  -0.458  -0.457  -0.442
 -0.437  -0.432  -0.429  -0.410  -0.408  -0.407  -0.403  -0.400
 -0.393  -0.387  -0.373  -0.368  -0.364  -0.359  -0.354  -0.346
 -0.343  -0.342  -0.336  -0.333  -0.332  -0.327  -0.323  -0.311
 -0.311  -0.309  -0.306  -0.303  -0.300  -0.295  -0.289  -0.274
 -0.271  -0.250  -0.247  -0.243  -0.239  -0.235  -0.234  -0.191
 -0.179  -0.169  -0.165  -0.159  -0.158  -0.148  -0.147  -0.145
 -0.143
 -- Virtual --
  0.089   0.090   0.111   0.114   0.199   0.238   0.242   0.259
  0.262   0.273   0.282   0.286   0.303   0.313   0.327   0.327
  0.332   0.341   0.342   0.344   0.350   0.352   0.365   0.369
  0.378   0.381   0.384   0.388   0.394   0.401   0.406   0.411
  0.414   0.417   0.419   0.421   0.422   0.432   0.435   0.436
  0.438   0.439   0.439   0.445   0.448   0.450   0.457   0.465
  0.468   0.474   0.485   0.490   0.490   0.503   0.505   0.538
  0.539   0.552   0.553   0.630   0.635   0.652   0.655
 --------------------------------------------------------------
 
          Ground-State Mulliken Net Atomic Charges

     Atom                 Charge (a.u.)
  ----------------------------------------
      1 O                    -0.219147
      2 C                     0.220096
      3 C                    -0.080540
      4 C                    -0.074959
      5 C                     0.218892
      6 O                    -0.163743
      7 C                    -0.045209
      8 C                    -0.056783
      9 O                    -0.171734
     10 C                     0.211999
     11 C                    -0.079898
     12 C                    -0.078585
     13 C                     0.218174
     14 O                    -0.217365
     15 O                    -0.177194
     16 O                    -0.176447
     17 O                    -0.209822
     18 C                    -0.140257
     19 C                     0.025919
     20 C                    -0.142123
     21 C                    -0.145490
     22 C                     0.026074
     23 O                    -0.184836
     24 H                     0.085995
     25 H                     0.085475
     26 H                     0.084401
     27 H                     0.078473
     28 H                     0.074555
     29 H                     0.078210
     30 H                     0.073659
     31 H                     0.085443
     32 O                    -0.219048
     33 C                    -0.128759
     34 C                     0.023245
     35 C                    -0.141675
     36 C                    -0.145317
     37 C                     0.023536
     38 O                    -0.192483
     39 H                     0.082962
     40 H                     0.088672
     41 H                     0.085668
     42 H                     0.091252
     43 H                     0.078381
     44 H                     0.073500
     45 H                     0.078975
     46 H                     0.073979
     47 H                     0.084798
     48 H                     0.088799
     49 H                     0.088176
     50 H                     0.082750
     51 H                     0.096460
     52 H                     0.089753
     53 H                     0.098530
     54 H                     0.102640
     55 H                     0.097941
     56 H                     0.094033
  ----------------------------------------
  Sum of atomic charges =    -0.000000

 -----------------------------------------------------------------
                    Cartesian Multipole Moments
 -----------------------------------------------------------------
    Charge (ESU x 10^10)
                 0.0000
    Dipole Moment (Debye)
         X      -0.4060      Y       0.2517      Z      -1.9451
       Tot       2.0029
    Quadrupole Moments (Debye-Ang)
        XX    -134.2112     XY      -5.0533     YY    -163.7350
        XZ       4.1643     YZ      -0.7390     ZZ    -163.4274
    Octopole Moments (Debye-Ang^2)
       XXX       9.2263    XXY     -34.3282    XYY     -22.0774
       YYY      39.0878    XXZ     -29.1816    XYZ      -7.7898
       YYZ      -8.1564    XZZ      15.1419    YZZ       5.1623
       ZZZ      -0.3610
    Hexadecapole Moments (Debye-Ang^3)
      XXXX  -15020.0194   XXXY     -14.2519   XXYY   -3069.3998
      XYYY      -1.7088   YYYY   -2046.1609   XXXZ      52.2303
      XXYZ     -39.6171   XYYZ     -30.8380   YYYZ      44.7480
      XXZZ   -3011.9594   XYZZ      43.3521   YYZZ    -637.8278
      XZZZ      37.9481   YZZZ     -70.1760   ZZZZ   -1620.4647
 -----------------------------------------------------------------
 Calculating analytic gradient of the SCF energy
 Gradient of SCF Energy
            1           2           3           4           5           6
    1  -0.0030213   0.0026094   0.0007040  -0.0013436  -0.0004568   0.0007758
    2   0.0020624  -0.0014238  -0.0050288   0.0072179  -0.0072810   0.0064037
    3   0.0001379  -0.0011786   0.0041951  -0.0045906   0.0058969  -0.0045569
            7           8           9          10          11          12
    1   0.0005224   0.0034448  -0.0007178  -0.0006212   0.0008904  -0.0030793
    2  -0.0022819   0.0008649  -0.0020890   0.0009583   0.0025204  -0.0048990
    3   0.0041915  -0.0058501   0.0045050  -0.0004643   0.0016560  -0.0020623
           13          14          15          16          17          18
    1   0.0047446  -0.0028677   0.0002157   0.0004456   0.0003703   0.0004504
    2   0.0049357  -0.0018272   0.0012787   0.0006114   0.0001188   0.0002897
    3  -0.0016764   0.0024507  -0.0001506  -0.0012258   0.0014738  -0.0004704
           19          20          21          22          23          24
    1   0.0004612  -0.0003464   0.0002420   0.0007922   0.0002122  -0.0000899
    2  -0.0005173  -0.0000767   0.0001823   0.0005484   0.0001832   0.0000108
    3  -0.0000512  -0.0000161  -0.0000705  -0.0000903  -0.0002718  -0.0002335
           25          26          27          28          29          30
    1  -0.0004735  -0.0001263   0.0001084   0.0001059   0.0000323  -0.0002215
    2  -0.0003462  -0.0000266  -0.0000239  -0.0000328   0.0000030  -0.0000998
    3   0.0001667  -0.0000402  -0.0000371   0.0001243  -0.0000411  -0.0000372
           31          32          33          34          35          36
    1   0.0002048  -0.0027480  -0.0001140   0.0003482   0.0000624   0.0003867
    2  -0.0000566  -0.0023319  -0.0002226   0.0002025  -0.0000213  -0.0000829
    3  -0.0000380  -0.0018212  -0.0001769  -0.0003186  -0.0001322   0.0003183
           37          38          39          40          41          42
    1  -0.0008899   0.0003681  -0.0002642   0.0002226  -0.0000269  -0.0000806
    2  -0.0005251   0.0000124  -0.0000700   0.0005098   0.0001556   0.0000397
    3  -0.0006157  -0.0004988   0.0005397   0.0001709  -0.0000041   0.0000005
           43          44          45          46          47          48
    1  -0.0001269  -0.0000193  -0.0000746  -0.0000701   0.0000041  -0.0000089
    2  -0.0000030   0.0000564  -0.0000118  -0.0001123  -0.0000726  -0.0000442
    3   0.0000813  -0.0000318  -0.0000504  -0.0001202   0.0000148   0.0000656
           49          50          51          52          53          54
    1  -0.0000113  -0.0001756   0.0001236   0.0005090  -0.0004249  -0.0004985
    2   0.0000592   0.0000330  -0.0000887  -0.0002269  -0.0000313   0.0003738
    3   0.0000063  -0.0000396   0.0001911  -0.0005062  -0.0001844   0.0008670
           55          56
    1   0.0007759  -0.0012343
    2  -0.0004733   0.0006966
    3   0.0000487   0.0005508
 Max gradient component =       7.281E-03
 RMS gradient           =       1.789E-03
 Gradient time:  CPU 31.05 s  wall 0.66 s
 Geometry Optimization Parameters
   NAtoms,    NIC,     NZ,  NCons,   NDum,   NFix, NCnnct, MaxDiis
       56     458       0       0       0       0       0       0

 Cartesian Hessian Update
 Hessian Updated using BFGS Update


** GEOMETRY OPTIMIZATION IN DELOCALIZED INTERNAL COORDINATES **
   Searching for a Minimum

   Optimization Cycle:   2

                       Coordinates (Angstroms)
     ATOM                X               Y               Z
      1  O        -3.7493338745    1.7009410811    2.2714148026
      2  C        -3.8557750906    1.5973331681    1.0314386234
      3  C        -4.6511140456    0.5042458097    0.2320087533
      4  C        -3.9141376348   -0.1459923211   -1.0029840962
      5  C        -2.3381674054   -0.1576108955   -0.9450734414
      6  O        -1.8873278510    0.3957139023    0.2898383681
      7  C        -0.4118323477    0.5011149858    0.4234723176
      8  C         0.3954306105   -0.8219841416    0.1666700461
      9  O         1.8182303087   -0.4381742952    0.2931132587
     10  C         2.6473639517   -1.5360170641    0.6686577018
     11  C         4.1493963657   -1.1919455090    0.3784714942
     12  C         4.4632606051   -0.2116760547   -0.8323070824
     13  C         3.2621997350    0.6615433085   -1.3567172999
     14  O         2.8645333425    1.7654472619   -0.9255672857
     15  O        -3.4345467331    2.6051046044    0.0949231185
     16  O         2.7121590165   -0.0057074306   -2.5067761393
     17  O         2.2231606429   -2.6028364197    1.1652948510
     18  C         1.5478179182    0.7443784721   -3.0325451386
     19  C         4.9095457208   -0.4563022241    1.5760225904
     20  C         6.4353341969   -0.8430115302    1.4648325341
     21  C         6.8464386228   -0.0400878324    0.1745985006
     22  C         5.5151252966    0.7540795828   -0.1372165887
     23  O         4.9013718184    0.9719155511    1.1950094875
     24  H         4.6342455357   -2.1669466523    0.1899561974
     25  H         4.8817246510   -0.7735751341   -1.6858273552
     26  H         4.4518162385   -0.5998511185    2.5739932926
     27  H         6.9842567670   -0.4869042029    2.3513965544
     28  H         6.5892946322   -1.9292215031    1.3644416153
     29  H         7.6760418480    0.6559646392    0.3753057712
     30  H         7.1333362805   -0.6988859116   -0.6606901963
     31  H         5.6537676418    1.7214571475   -0.6573411854
     32  O        -1.6062926575   -0.6072417466   -1.8570545921
     33  C        -2.7066171993    3.6774966367    0.8065292029
     34  C        -5.0728187231   -0.7824820414    1.0622430299
     35  C        -6.4272913229   -1.3010858114    0.4433360948
     36  C        -5.9237927484   -1.8133826271   -0.9580028033
     37  C        -4.3581542710   -1.6628814456   -0.8051080200
     38  O        -4.1114330875   -1.8337120271    0.6482856681
     39  H        -5.5627680782    1.0136857679   -0.1342510249
     40  H        -4.2287626324    0.2872221661   -1.9689140048
     41  H        -1.7497320924    3.3081128797    1.2293167457
     42  H        -5.0552859693   -0.6427333805    2.1608148338
     43  H        -6.8347320946   -2.1263680973    1.0493402749
     44  H        -7.1888748501   -0.5091254778    0.3626697428
     45  H        -6.1960108895   -2.8666230876   -1.1302921658
     46  H        -6.3127159172   -1.2093444963   -1.7938007539
     47  H        -3.7565802382   -2.3850883633   -1.3912285980
     48  H        -3.3107559898    4.1073742046    1.6314070341
     49  H        -2.4958024723    4.4590912073    0.0534607185
     50  H         1.7021634429    0.9300753250   -4.1131134118
     51  H         1.4553415432    1.7061493316   -2.4878552477
     52  H         0.6260241010    0.1427322437   -2.8926438966
     53  H         0.1268457169   -1.6122498956    0.8997594400
     54  H         0.1758707167   -1.1836083887   -0.8596005061
     55  H        -0.2433531655    0.8406909332    1.4653534191
     56  H        -0.0371707850    1.2895065983   -0.2664892313
   Point Group: c1    Number of degrees of freedom:   162


   Energy is  -1510.276097998

 Hessian Updated using BFGS Update

149 Hessian modes will be used to form the next step
  Hessian Eigenvalues:
     0.001673    0.002187    0.002750    0.002812    0.003720    0.004318
     0.004654    0.004859    0.005136    0.005253    0.005312    0.006677
     0.006823    0.009992    0.010513    0.010540    0.012156    0.017925
     0.021421    0.022330    0.025357    0.028723    0.030548    0.030980
     0.034885    0.035061    0.036728    0.038765    0.041438    0.041967
     0.042287    0.043912    0.044705    0.047049    0.048206    0.050975
     0.051270    0.053332    0.054361    0.054837    0.055309    0.055694
     0.055926    0.056478    0.056791    0.057857    0.059443    0.060260
     0.060468    0.062818    0.063165    0.063452    0.064382    0.064637
     0.070017    0.070218    0.073248    0.073613    0.091329    0.092125
     0.092755    0.093358    0.096696    0.096858    0.097836    0.100549
     0.101291    0.102527    0.105475    0.111486    0.112176    0.117765
     0.121520    0.124713    0.132657    0.140342    0.156773    0.159958
     0.159985    0.161612    0.164501    0.166990    0.217616    0.218587
     0.219231    0.224204    0.227843    0.231083    0.238533    0.238590
     0.239322    0.240058    0.243026    0.244836    0.246389    0.247927
     0.249709    0.249930    0.249994    0.253164    0.253529    0.254697
     0.256512    0.259227    0.259836    0.261529    0.290214    0.293021
     0.305565    0.307588    0.323237    0.325094    0.325609    0.326414
     0.326593    0.326903    0.326932    0.327391    0.328400    0.328576
     0.328877    0.328942    0.329146    0.329614    0.330640    0.331206
     0.331950    0.332226    0.334427    0.334573    0.334749    0.334794
     0.334936    0.334992    0.335096    0.335226    0.335309    0.343994
     0.346394    0.347345    0.395393    0.397456    0.409549    0.415493
     0.470918    0.822355    0.829044    0.832109    0.836697

 Minimum Search - Taking Simple RFO Step
 Searching for Lamda that Minimizes Along All modes
 Value Taken    Lamda =  -0.01278600
 Calculated Step too Large.  Step scaled by  0.365699
 Step Taken.  Stepsize is  0.300000

                             Maximum     Tolerance    Cnvgd?
         Gradient           0.015557      0.000300      NO
         Displacement       0.080528      0.001200      NO
         Energy change     -0.004464      0.000001      NO


 New Cartesian Coordinates Obtained by Inverse Iteration

 Displacement from previous Coordinates is:  2.238312
 Adding empirical dispersion correction 
 ----------------------------------------------------------------
 Doing -D3(op) with
 s6 =   1.00000
 s8 =   0.78311
 a1 =   0.30000
 a2 =   4.25000
 n  =  10.00000
 -D3 energy without 3body term =     -0.0706278039 hartrees
 ----------------------------------------------------------------
             Standard Nuclear Orientation (Angstroms)
    I     Atom           X                Y                Z
 ----------------------------------------------------------------
    1      O      -3.6960344057     1.6461658240     2.2813250843
    2      C      -3.8431341185     1.6116289322     1.0416642504
    3      C      -4.6119919603     0.5312847228     0.2006451551
    4      C      -3.8485610938    -0.0578862605    -1.0478444012
    5      C      -2.2752174132     0.0087962764    -0.9836846479
    6      O      -1.8592593768     0.4851379882     0.2935540061
    7      C      -0.3865760436     0.5629726565     0.4492715697
    8      C       0.3826807295    -0.7904828685     0.2444665598
    9      O       1.8143787119    -0.4339493700     0.3364334138
   10      C       2.6324568935    -1.5337072862     0.7321370304
   11      C       4.1287510651    -1.2039060325     0.4084421394
   12      C       4.3994988395    -0.2526298481    -0.8313547754
   13      C       3.1618884023     0.5794996619    -1.3374211831
   14      O       2.7937606524     1.7151649880    -0.9669417356
   15      O      -3.4401510415     2.6614880431     0.1450343057
   16      O       2.5262700827    -0.1775100278    -2.3824520772
   17      O       2.2034153508    -2.5881520517     1.2502959693
   18      C       1.3118808873     0.5236464374    -2.8611716989
   19      C       4.9128680484    -0.4294490228     1.5659343691
   20      C       6.4396003870    -0.8027673387     1.4232987599
   21      C       6.8070562092    -0.0296692443     0.1014931188
   22      C       5.4593408247     0.7424867669    -0.1956995074
   23      O       4.8799996219     0.9883243812     1.1473729266
   24      H       4.6125993903    -2.1815918544     0.2317094645
   25      H       4.7925885686    -0.8392075361    -1.6804762723
   26      H       4.4833699751    -0.5501303124     2.5793317913
   27      H       7.0078179379    -0.4176812169     2.2852254564
   28      H       6.6027787701    -1.8895556461     1.3468081798
   29      H       7.6338313293     0.6801159261     0.2615695090
   30      H       7.0796424746    -0.7073052486    -0.7234282208
   31      H       5.5718728821     1.6969856534    -0.7451140904
   32      O      -1.5113856722    -0.3625756969    -1.9044551928
   33      C      -2.7016232390     3.7021766911     0.8922082820
   34      C      -4.9895906353    -0.7969720557     0.9882345794
   35      C      -6.3204964368    -1.3467994070     0.3462335570
   36      C      -5.7908449165    -1.7986765848    -1.0665838898
   37      C      -4.2323017479    -1.5953381878    -0.8992589441
   38      O      -3.9879638192    -1.7997084819     0.5499403677
   39      H      -5.5398772367     1.0234082911    -0.1483383917
   40      H      -4.1783546198     0.3946229739    -1.9997369896
   41      H      -1.7379138791     3.3150946094     1.2825266201
   42      H      -4.9813181299    -0.6907015622     2.0906466388
   43      H      -6.6995956944    -2.2044639785     0.9248580129
   44      H      -7.1106924082    -0.5816704450     0.2846295093
   45      H      -6.0227748428    -2.8556167091    -1.2716587607
   46      H      -6.1972227186    -1.1843616849    -1.8863464865
   47      H      -3.6005199821    -2.2758140849    -1.5031579630
   48      H      -3.2925760321     4.0940894223     1.7450421979
   49      H      -2.5032405115     4.5168039241     0.1715157790
   50      H       1.3675394806     0.6190401992    -3.9628436575
   51      H       1.2589814364     1.5275969486    -2.3925754926
   52      H       0.4113976586    -0.0651954633    -2.5887414610
   53      H       0.0982774401    -1.5472663778     1.0063849291
   54      H       0.1515559154    -1.1830850683    -0.7683426164
   55      H      -0.2237154257     0.9215174553     1.4856708587
   56      H       0.0177505370     1.3244978630    -0.2542999171
 ----------------------------------------------------------------
 Molecular Point Group                 C1    NOp =  1
 Largest Abelian Subgroup              C1    NOp =  1
 Nuclear Repulsion Energy =  3159.4854915446 hartrees
 There are      113 alpha and      113 beta electrons
 Applying Cartesian multipole field
    Component          Value
    ---------          -----
     (2,0,0)        1.00000E-12
     (0,2,0)        2.00000E-11
     (0,0,2)       -3.00000E-11
 Nucleus-field energy     =     0.0000000081 hartrees
 Requested basis set is STO-3G
 There are 86 shells and 176 basis functions
 A cutoff of  1.0D-12 yielded   2163 shell pairs
 There are     10080 function pairs
 Smallest overlap matrix eigenvalue = 2.13E-01
 Guess MOs from SCF MO coefficient file
 Reading MOs from coefficient file
 Reading MOs from coefficient file
 A restricted hybrid HF-DFT SCF calculation will be
 performed using Pulay DIIS extrapolation
 Exchange:     0.2000 Hartree-Fock + 0.0800 Slater + 0.7200 B88
 Correlation:  0.1900 VWN1RPA + 0.8100 LYP
 Using SG-1 standard quadrature grid
 Dispersion:   Grimme D3
 SCF converges when DIIS error is below 1.0E-08
 Geometry optimization detected.  Setting ReadMinima to 0
 Setting SaveMinima to 0
 using 48 threads for integral computing
 -------------------------------------------------------
 OpenMP Integral computing Module                
 Release: version 1.0, May 2013, Q-Chem Inc. Pittsburgh 
 -------------------------------------------------------
 -------------------------------------------------------
 OpenMP BLAS3 based DFT computing Module                
 Release: version 1.0, May 2013, Q-Chem Inc. Pittsburgh 
 -------------------------------------------------------
 ---------------------------------------
  Cycle       Energy         DIIS Error
 ---------------------------------------
    1   -1510.2455416308      3.42E-03
    2   -1510.2785831604      2.47E-04
    3   -1510.2787662275      2.86E-04
    4   -1510.2790499580      1.52E-04
    5   -1510.2791443275      4.36E-05
    6   -1510.2791523369      1.32E-05
    7   -1510.2791530664      4.35E-06
    8   -1510.2791531280      2.62E-06
    9   -1510.2791531595      4.03E-07
   10   -1510.2791531606      2.17E-07
   11   -1510.2791531608      9.38E-08
   12   -1510.2791531608      3.54E-08
   13   -1510.2791531609      6.80E-09 Convergence criterion met
 ---------------------------------------
 SCF time:  CPU 94.09 s  wall 1.97 s
 SCF   energy in the final basis set = -1510.27915316
 Total energy in the final basis set = -1510.27915316
 
 --------------------------------------------------------------
 
                    Orbital Energies (a.u.)
 --------------------------------------------------------------
 
 Alpha MOs
 -- Occupied --
-18.955 -18.942 -18.925 -18.914 -18.888 -18.888 -18.887 -18.881
-18.867 -18.858 -10.116 -10.106 -10.098 -10.090 -10.082 -10.074
-10.064 -10.061 -10.060 -10.059 -10.057 -10.045 -10.038 -10.038
-10.037 -10.034 -10.024 -10.021 -10.020 -10.019  -1.027  -1.018
 -1.003  -0.995  -0.972  -0.969  -0.952  -0.943  -0.930  -0.921
 -0.767  -0.762  -0.733  -0.723  -0.710  -0.706  -0.699  -0.659
 -0.649  -0.620  -0.598  -0.588  -0.548  -0.545  -0.540  -0.536
 -0.518  -0.510  -0.493  -0.475  -0.461  -0.460  -0.455  -0.441
 -0.440  -0.433  -0.428  -0.412  -0.408  -0.404  -0.403  -0.400
 -0.397  -0.387  -0.371  -0.367  -0.365  -0.360  -0.352  -0.346
 -0.343  -0.342  -0.336  -0.334  -0.331  -0.325  -0.324  -0.313
 -0.311  -0.310  -0.305  -0.304  -0.300  -0.296  -0.290  -0.275
 -0.270  -0.251  -0.249  -0.241  -0.237  -0.236  -0.232  -0.195
 -0.180  -0.170  -0.165  -0.160  -0.156  -0.148  -0.147  -0.145
 -0.142
 -- Virtual --
  0.085   0.089   0.111   0.119   0.199   0.239   0.241   0.258
  0.263   0.276   0.283   0.286   0.302   0.314   0.325   0.327
  0.330   0.341   0.343   0.346   0.348   0.354   0.363   0.370
  0.376   0.380   0.384   0.387   0.396   0.400   0.404   0.412
  0.413   0.417   0.418   0.420   0.421   0.431   0.433   0.435
  0.437   0.441   0.443   0.445   0.448   0.450   0.461   0.463
  0.469   0.484   0.488   0.491   0.501   0.505   0.508   0.537
  0.540   0.551   0.553   0.630   0.636   0.651   0.659
 --------------------------------------------------------------
 
          Ground-State Mulliken Net Atomic Charges

     Atom                 Charge (a.u.)
  ----------------------------------------
      1 O                    -0.218861
      2 C                     0.220149
      3 C                    -0.080651
      4 C                    -0.074883
      5 C                     0.221877
      6 O                    -0.162136
      7 C                    -0.045427
      8 C                    -0.054193
      9 O                    -0.169625
     10 C                     0.212964
     11 C                    -0.080276
     12 C                    -0.078853
     13 C                     0.218919
     14 O                    -0.222067
     15 O                    -0.177438
     16 O                    -0.179969
     17 O                    -0.208843
     18 C                    -0.147888
     19 C                     0.025810
     20 C                    -0.142104
     21 C                    -0.145416
     22 C                     0.025963
     23 O                    -0.185301
     24 H                     0.085835
     25 H                     0.084849
     26 H                     0.083989
     27 H                     0.078365
     28 H                     0.074365
     29 H                     0.078025
     30 H                     0.073612
     31 H                     0.086253
     32 O                    -0.217763
     33 C                    -0.128618
     34 C                     0.023402
     35 C                    -0.141781
     36 C                    -0.145037
     37 C                     0.023543
     38 O                    -0.192304
     39 H                     0.083177
     40 H                     0.089135
     41 H                     0.085718
     42 H                     0.091484
     43 H                     0.078686
     44 H                     0.073769
     45 H                     0.079388
     46 H                     0.074386
     47 H                     0.084919
     48 H                     0.088887
     49 H                     0.088611
     50 H                     0.079084
     51 H                     0.091937
     52 H                     0.097413
     53 H                     0.099628
     54 H                     0.099753
     55 H                     0.098272
     56 H                     0.097265
  ----------------------------------------
  Sum of atomic charges =     0.000000

 -----------------------------------------------------------------
                    Cartesian Multipole Moments
 -----------------------------------------------------------------
    Charge (ESU x 10^10)
                 0.0000
    Dipole Moment (Debye)
         X      -0.8007      Y       0.0467      Z      -1.6577
       Tot       1.8416
    Quadrupole Moments (Debye-Ang)
        XX    -134.3167     XY      -5.2520     YY    -163.5806
        XZ       4.7041     YZ       0.5181     ZZ    -164.0339
    Octopole Moments (Debye-Ang^2)
       XXX       4.3425    XXY     -36.3479    XYY     -24.2454
       YYY      34.9055    XXZ     -28.0391    XYZ      -7.2741
       YYZ      -5.8026    XZZ      12.1408    YZZ       2.4389
       ZZZ       3.9528
    Hexadecapole Moments (Debye-Ang^3)
      XXXX  -14640.2169   XXXY      34.4339   XXYY   -2995.3347
      XYYY      51.3885   YYYY   -2018.6304   XXXZ      -6.2916
      XXYZ     -43.0478   XYYZ     -52.5077   YYYZ      21.4370
      XXZZ   -2928.7397   XYZZ      59.2299   YYZZ    -627.2345
      XZZZ     -12.7092   YZZZ     -86.8541   ZZZZ   -1599.4103
 -----------------------------------------------------------------
 Calculating analytic gradient of the SCF energy
 Gradient of SCF Energy
            1           2           3           4           5           6
    1  -0.0006653  -0.0012475   0.0020426  -0.0016030   0.0016554  -0.0000764
    2   0.0005635   0.0005333  -0.0038355   0.0030771  -0.0033526   0.0073238
    3   0.0003591  -0.0016445   0.0018119  -0.0009628   0.0022243  -0.0025454
            7           8           9          10          11          12
    1  -0.0008104   0.0037419   0.0010650  -0.0010313   0.0005342  -0.0032767
    2  -0.0042873   0.0007897   0.0000538   0.0021700   0.0023895  -0.0040410
    3   0.0015584  -0.0023294   0.0000319  -0.0000837   0.0004037   0.0005796
           13          14          15          16          17          18
    1   0.0050455  -0.0036928   0.0013749  -0.0011375   0.0009091  -0.0009808
    2   0.0040792  -0.0030542   0.0005225  -0.0000117  -0.0009408   0.0002519
    3  -0.0009790   0.0027217  -0.0002485  -0.0006342   0.0012953   0.0013621
           19          20          21          22          23          24
    1   0.0001844  -0.0001248   0.0001175   0.0012829   0.0005555   0.0000616
    2  -0.0007895   0.0000379   0.0000124   0.0015247   0.0000819   0.0000329
    3   0.0003791   0.0003069  -0.0000216  -0.0004087  -0.0007107  -0.0006826
           25          26          27          28          29          30
    1  -0.0012449  -0.0001961   0.0000525   0.0000317   0.0000369  -0.0000956
    2  -0.0011820  -0.0000175  -0.0000364  -0.0000166   0.0000380  -0.0000374
    3   0.0003658  -0.0001075  -0.0000451   0.0001439  -0.0001319  -0.0000255
           31          32          33          34          35          36
    1   0.0002830  -0.0015861   0.0000002   0.0005895  -0.0000963   0.0003469
    2  -0.0000673  -0.0014580  -0.0002876  -0.0000650  -0.0000110  -0.0002332
    3  -0.0001112  -0.0002142  -0.0001866  -0.0006031   0.0000934   0.0002303
           37          38          39          40          41          42
    1  -0.0012726   0.0002767  -0.0006410   0.0005201   0.0000343   0.0000237
    2  -0.0005661  -0.0001469   0.0000465   0.0011169   0.0001508  -0.0000323
    3  -0.0013651  -0.0005061   0.0008520   0.0005186   0.0000215   0.0000046
           43          44          45          46          47          48
    1  -0.0000809  -0.0000092  -0.0000993  -0.0000125  -0.0000181  -0.0000207
    2   0.0000208   0.0000100   0.0000407  -0.0000983   0.0000131  -0.0000120
    3  -0.0000041   0.0000655   0.0000257  -0.0000580   0.0000487   0.0000863
           49          50          51          52          53          54
    1   0.0000201  -0.0006261  -0.0002213   0.0023461  -0.0008036  -0.0008565
    2   0.0000233  -0.0002879   0.0003485  -0.0021906  -0.0004571   0.0014940
    3  -0.0000006  -0.0002171   0.0005602   0.0003132  -0.0005303  -0.0012727
           55          56
    1   0.0012593  -0.0018646
    2  -0.0008417   0.0016110
    3   0.0002464   0.0000203
 Max gradient component =       7.324E-03
 RMS gradient           =       1.409E-03
 Gradient time:  CPU 31.98 s  wall 0.67 s
 Geometry Optimization Parameters
   NAtoms,    NIC,     NZ,  NCons,   NDum,   NFix, NCnnct, MaxDiis
       56     458       0       0       0       0       0       0

 Cartesian Hessian Update
 Hessian Updated using BFGS Update


** GEOMETRY OPTIMIZATION IN DELOCALIZED INTERNAL COORDINATES **
   Searching for a Minimum

   Optimization Cycle:   3

                       Coordinates (Angstroms)
     ATOM                X               Y               Z
      1  O        -3.6960344057    1.6461658240    2.2813250843
      2  C        -3.8431341185    1.6116289322    1.0416642504
      3  C        -4.6119919603    0.5312847228    0.2006451551
      4  C        -3.8485610938   -0.0578862605   -1.0478444012
      5  C        -2.2752174132    0.0087962764   -0.9836846479
      6  O        -1.8592593768    0.4851379882    0.2935540061
      7  C        -0.3865760436    0.5629726565    0.4492715697
      8  C         0.3826807295   -0.7904828685    0.2444665598
      9  O         1.8143787119   -0.4339493700    0.3364334138
     10  C         2.6324568935   -1.5337072862    0.7321370304
     11  C         4.1287510651   -1.2039060325    0.4084421394
     12  C         4.3994988395   -0.2526298481   -0.8313547754
     13  C         3.1618884023    0.5794996619   -1.3374211831
     14  O         2.7937606524    1.7151649880   -0.9669417356
     15  O        -3.4401510415    2.6614880431    0.1450343057
     16  O         2.5262700827   -0.1775100278   -2.3824520772
     17  O         2.2034153508   -2.5881520517    1.2502959693
     18  C         1.3118808873    0.5236464374   -2.8611716989
     19  C         4.9128680484   -0.4294490228    1.5659343691
     20  C         6.4396003870   -0.8027673387    1.4232987599
     21  C         6.8070562092   -0.0296692443    0.1014931188
     22  C         5.4593408247    0.7424867669   -0.1956995074
     23  O         4.8799996219    0.9883243812    1.1473729266
     24  H         4.6125993903   -2.1815918544    0.2317094645
     25  H         4.7925885686   -0.8392075361   -1.6804762723
     26  H         4.4833699751   -0.5501303124    2.5793317913
     27  H         7.0078179379   -0.4176812169    2.2852254564
     28  H         6.6027787701   -1.8895556461    1.3468081798
     29  H         7.6338313293    0.6801159261    0.2615695090
     30  H         7.0796424746   -0.7073052486   -0.7234282208
     31  H         5.5718728821    1.6969856534   -0.7451140904
     32  O        -1.5113856722   -0.3625756969   -1.9044551928
     33  C        -2.7016232390    3.7021766911    0.8922082820
     34  C        -4.9895906353   -0.7969720557    0.9882345794
     35  C        -6.3204964368   -1.3467994070    0.3462335570
     36  C        -5.7908449165   -1.7986765848   -1.0665838898
     37  C        -4.2323017479   -1.5953381878   -0.8992589441
     38  O        -3.9879638192   -1.7997084819    0.5499403677
     39  H        -5.5398772367    1.0234082911   -0.1483383917
     40  H        -4.1783546198    0.3946229739   -1.9997369896
     41  H        -1.7379138791    3.3150946094    1.2825266201
     42  H        -4.9813181299   -0.6907015622    2.0906466388
     43  H        -6.6995956944   -2.2044639785    0.9248580129
     44  H        -7.1106924082   -0.5816704450    0.2846295093
     45  H        -6.0227748428   -2.8556167091   -1.2716587607
     46  H        -6.1972227186   -1.1843616849   -1.8863464865
     47  H        -3.6005199821   -2.2758140849   -1.5031579630
     48  H        -3.2925760321    4.0940894223    1.7450421979
     49  H        -2.5032405115    4.5168039241    0.1715157790
     50  H         1.3675394806    0.6190401992   -3.9628436575
     51  H         1.2589814364    1.5275969486   -2.3925754926
     52  H         0.4113976586   -0.0651954633   -2.5887414610
     53  H         0.0982774401   -1.5472663778    1.0063849291
     54  H         0.1515559154   -1.1830850683   -0.7683426164
     55  H        -0.2237154257    0.9215174553    1.4856708587
     56  H         0.0177505370    1.3244978630   -0.2542999171
   Point Group: c1    Number of degrees of freedom:   162


   Energy is  -1510.279153161

 Hessian Updated using BFGS Update

152 Hessian modes will be used to form the next step
  Hessian Eigenvalues:
     0.001793    0.002086    0.002333    0.002754    0.002784    0.003917
     0.004565    0.004742    0.004909    0.005148    0.005254    0.006430
     0.006750    0.006936    0.010218    0.010458    0.011457    0.011877
     0.021394    0.021994    0.024375    0.025271    0.027778    0.030612
     0.030896    0.035045    0.035082    0.037265    0.039739    0.041854
     0.041975    0.042462    0.044604    0.044864    0.047310    0.050817
     0.051060    0.051466    0.053152    0.054399    0.055197    0.055617
     0.055686    0.056474    0.056602    0.056855    0.057796    0.059630
     0.060458    0.061029    0.062990    0.063298    0.064362    0.064625
     0.065200    0.070020    0.070224    0.073256    0.073620    0.091329
     0.092206    0.092747    0.093374    0.096696    0.097426    0.099340
     0.100640    0.101698    0.102526    0.105727    0.111656    0.112128
     0.117804    0.121646    0.132570    0.137996    0.142860    0.156581
     0.159966    0.159995    0.160519    0.163883    0.165090    0.185561
     0.217056    0.218628    0.219747    0.227551    0.229538    0.231094
     0.238525    0.238954    0.239339    0.240026    0.243100    0.244868
     0.246388    0.248721    0.249788    0.249938    0.249995    0.253159
     0.253522    0.254690    0.256428    0.259203    0.259834    0.261433
     0.290190    0.292827    0.305417    0.307200    0.316402    0.323233
     0.325113    0.325765    0.326558    0.326621    0.326903    0.327091
     0.327404    0.328406    0.328578    0.328878    0.328941    0.329146
     0.329758    0.330640    0.331208    0.331975    0.332227    0.334429
     0.334575    0.334749    0.334794    0.334947    0.334998    0.335213
     0.335307    0.341545    0.345652    0.347250    0.347345    0.397385
     0.397960    0.414024    0.416042    0.746990    0.823717    0.829506
     0.834198    0.836842

 Minimum Search - Taking Simple RFO Step
 Searching for Lamda that Minimizes Along All modes
 Value Taken    Lamda =  -0.01098635
 Calculated Step too Large.  Step scaled by  0.398978
 Step Taken.  Stepsize is  0.300000

                             Maximum     Tolerance    Cnvgd?
         Gradient           0.020308      0.000300      NO
         Displacement       0.091219      0.001200      NO
         Energy change     -0.003055      0.000001      NO


 New Cartesian Coordinates Obtained by Inverse Iteration

 Displacement from previous Coordinates is:  1.393885
 Adding empirical dispersion correction 
 ----------------------------------------------------------------
 Doing -D3(op) with
 s6 =   1.00000
 s8 =   0.78311
 a1 =   0.30000
 a2 =   4.25000
 n  =  10.00000
 -D3 energy without 3body term =     -0.0705678164 hartrees
 ----------------------------------------------------------------
             Standard Nuclear Orientation (Angstroms)
    I     Atom           X                Y                Z
 ----------------------------------------------------------------
    1      O      -3.6786832343     1.6897269614     2.2375278310
    2      C      -3.8468751705     1.6373262421     1.0012406855
    3      C      -4.6024458239     0.5303083879     0.1839884513
    4      C      -3.8145471655    -0.0891815595    -1.0336477397
    5      C      -2.2474212097     0.0423862543    -0.9609204946
    6      O      -1.8606037317     0.5138022628     0.3251263122
    7      C      -0.3895499807     0.5929774899     0.4602888323
    8      C       0.3419823363    -0.7853532522     0.2990815469
    9      O       1.7822943463    -0.4577922564     0.3213019767
   10      C       2.5900103010    -1.5795634806     0.6751009762
   11      C       4.0865467768    -1.2419204046     0.3698350706
   12      C       4.3599505209    -0.2389730769    -0.8276965844
   13      C       3.1229872176     0.6120358007    -1.3062642357
   14      O       2.8129924403     1.7708653847    -0.9545304869
   15      O      -3.4524949152     2.6676179477     0.0801416022
   16      O       2.4706051263    -0.1104067812    -2.3643799201
   17      O       2.1508827872    -2.6492701585     1.1510942969
   18      C       1.3294965046     0.6774112010    -2.8897260128
   19      C       4.8667223313    -0.5137184374     1.5598601970
   20      C       6.3942625553    -0.8799316802     1.4063280410
   21      C       6.7648376885    -0.0536821099     0.1180429786
   22      C       5.4172701807     0.7287150331    -0.1520865106
   23      O       4.8336883786     0.9196023765     1.1985340450
   24      H       4.5711706646    -2.2117126388     0.1558736543
   25      H       4.7520885820    -0.7956535596    -1.6973586098
   26      H       4.4348809876    -0.6747934482     2.5666036341
   27      H       6.9592439236    -0.5296316682     2.2850382309
   28      H       6.5583007207    -1.9625640732     1.2858469913
   29      H       7.5901334582     0.6499163946     0.3097101482
   30      H       7.0416972707    -0.6969814594    -0.7325135907
   31      H       5.5294271561     1.7049121970    -0.6620276980
   32      O      -1.4516148822    -0.2963878071    -1.8668562165
   33      C      -2.7050269552     3.7220822868     0.7990017498
   34      C      -4.9599456210    -0.7789545934     1.0143831958
   35      C      -6.2683331136    -1.3845436441     0.3769442426
   36      C      -5.7084528347    -1.8753903122    -1.0114058089
   37      C      -4.1569436765    -1.6284676087    -0.8319014305
   38      O      -3.9289996362    -1.7728208417     0.6270433579
   39      H      -5.5357090320     0.9943462220    -0.1880611399
   40      H      -4.1497262023     0.3212788674    -2.0026298374
   41      H      -1.7391778529     3.3397147363     1.1888989733
   42      H      -4.9666161937    -0.6330410560     2.1122621518
   43      H      -6.6338200259    -2.2296577246     0.9820004157
   44      H      -7.0759696748    -0.6420462304     0.2772909091
   45      H      -5.9119535569    -2.9444814349    -1.1802691797
   46      H      -6.1180578968    -1.3010835746    -1.8580494511
   47      H      -3.5005459460    -2.3140686150    -1.4027839723
   48      H      -3.2874043370     4.1337798202     1.6483256405
   49      H      -2.5104937888     4.5205470898     0.0594830657
   50      H       1.4242733527     0.7433562920    -3.9908020122
   51      H       1.3516473329     1.6933316731    -2.4456169488
   52      H       0.3710105980     0.1799081574    -2.6309780303
   53      H       0.0658922244    -1.5051116492     1.0989093043
   54      H       0.0775022016    -1.2155429565    -0.6905218324
   55      H      -0.2076967233     0.9898931398     1.4793247437
   56      H       0.0182283176     1.3156055566    -0.2814294908
 ----------------------------------------------------------------
 Molecular Point Group                 C1    NOp =  1
 Largest Abelian Subgroup              C1    NOp =  1
 Nuclear Repulsion Energy =  3167.6666435593 hartrees
 There are      113 alpha and      113 beta electrons
 Applying Cartesian multipole field
    Component          Value
    ---------          -----
     (2,0,0)        1.00000E-12
     (0,2,0)        2.00000E-11
     (0,0,2)       -3.00000E-11
 Nucleus-field energy     =     0.0000000098 hartrees
 Requested basis set is STO-3G
 There are 86 shells and 176 basis functions
 A cutoff of  1.0D-12 yielded   2167 shell pairs
 There are     10132 function pairs
 Smallest overlap matrix eigenvalue = 2.13E-01
 Guess MOs from SCF MO coefficient file
 Reading MOs from coefficient file
 Reading MOs from coefficient file
 A restricted hybrid HF-DFT SCF calculation will be
 performed using Pulay DIIS extrapolation
[...]
      6  O        -1.6686349776   -0.6290584200    0.8548282067
      7  C        -0.2239389764   -0.6016416997    1.1894373694
      8  C         0.5009420253   -1.9793113973    0.9391916479
      9  O         1.9605323019   -1.7100854448    0.9575922502
     10  C         2.4791736312   -1.7002332990   -0.3772692707
     11  C         3.9090604577   -1.0523779044   -0.3766685793
     12  C         3.8474324389    0.4895227135   -0.7865410255
     13  C         2.3881916421    0.9802283008   -1.0826185518
     14  O         1.5344259002    1.3331745762   -0.2302137074
     15  O        -2.0530008096    1.9798846844   -0.4091675486
     16  O         2.1687887723    0.9523528028   -2.4820935318
     17  O         1.8540654034   -2.1128908002   -1.3798885856
     18  C         0.7540618572    1.2841773428   -2.8012763531
     19  C         4.5501835885   -0.9449583221    1.0686879385
     20  C         6.0813578973   -0.5837697358    0.9116681403
     21  C         5.9993138147    0.9405730654    0.5286229670
     22  C         4.4371400117    1.1671391515    0.5211535119
     23  O         3.9518686948    0.2955268613    1.6143894720
     24  H         4.5466277492   -1.6148865973   -1.0819208906
     25  H         4.4672184055    0.6842667887   -1.6794543349
     26  H         4.3306574360   -1.8041576552    1.7305565713
     27  H         6.6111878381   -0.7329814915    1.8659547530
     28  H         6.5736576116   -1.1918821451    0.1360270481
     29  H         6.4760156588    1.5752519432    1.2923801261
     30  H         6.4557481186    1.1606558290   -0.4496207068
     31  H         4.1041633773    2.2103834893    0.6835641923
     32  O        -0.9615948577   -0.6638697445   -1.4127362821
     33  C        -1.0184057742    2.8679603685    0.1755266600
     34  C        -5.0989034793    0.0499828241    0.8607867807
     35  C        -6.3288493904   -0.5242831830    0.0559552381
     36  C        -5.6713715997   -1.7697342614   -0.6479946677
     37  C        -4.1988679587   -1.7063483637   -0.0762487922
     38  O        -4.3759335381   -1.1699550020    1.2915325350
     39  H        -4.6542382622    1.3122080203   -0.9341451314
     40  H        -3.5740936830   -0.5729386639   -1.9180693657
     41  H        -1.2030764084    2.9911412219    1.2607712034
     42  H        -5.3429104087    0.6843491428    1.7351731255
     43  H        -7.1318316891   -0.8290427924    0.7460473063
     44  H        -6.7378759789    0.2050104769   -0.6616155052
     45  H        -6.1598296695   -2.7097978386   -0.3464182171
     46  H        -5.6932034866   -1.6973288069   -1.7472038560
     47  H        -3.6626365219   -2.6747385561   -0.0472743588
     48  H        -1.0702505854    3.8570998446   -0.3212315973
     49  H        -0.0258794046    2.3986462113   -0.0078973685
     50  H         0.6704667032    1.1898926241   -3.8988862132
     51  H         0.5106057794    2.3230025139   -2.5012174593
     52  H         0.0551383252    0.5719254325   -2.2993720992
     53  H         0.2746903854   -2.7147613576    1.7365574158
     54  H         0.2224605267   -2.3858279809   -0.0569281136
     55  H        -0.1826506310   -0.3392419467    2.2645366976
     56  H         0.3187390857    0.1797354576    0.6038401959
   Point Group: c1    Number of degrees of freedom:   162


   Energy is  -1510.299883931

 Hessian Updated using BFGS Update

162 Hessian modes will be used to form the next step
  Hessian Eigenvalues:
     0.001468    0.002455    0.002890    0.003312    0.003764    0.005450
     0.006204    0.006886    0.008364    0.009137    0.013370    0.015838
     0.018350    0.021965    0.022108    0.024601    0.026122    0.027694
     0.029805    0.030777    0.031726    0.032581    0.035181    0.035724
     0.038761    0.039428    0.041901    0.042327    0.043000    0.044772
     0.045907    0.048498    0.049652    0.051078    0.051614    0.052734
     0.053516    0.054948    0.055795    0.056113    0.056244    0.056952
     0.057705    0.058519    0.059604    0.061426    0.063003    0.063189
     0.063475    0.064662    0.064781    0.066141    0.067595    0.070135
     0.070916    0.073497    0.074236    0.075180    0.085961    0.089925
     0.092735    0.092935    0.097449    0.098592    0.100376    0.101263
     0.104657    0.106277    0.107326    0.108192    0.110177    0.113237
     0.121119    0.133411    0.138482    0.143178    0.148579    0.154112
     0.159834    0.161272    0.162372    0.163118    0.164442    0.165359
     0.170388    0.174384    0.189500    0.209689    0.221563    0.224490
     0.229292    0.230872    0.236638    0.238831    0.239299    0.240381
     0.241803    0.243363    0.244731    0.248314    0.249667    0.250187
     0.253295    0.253473    0.253942    0.255390    0.257059    0.259050
     0.261679    0.265077    0.273322    0.274740    0.291865    0.292799
     0.297507    0.302520    0.307883    0.316780    0.325027    0.326404
     0.326820    0.327038    0.327422    0.327523    0.328427    0.328484
     0.328830    0.328978    0.329181    0.329572    0.330033    0.330392
     0.331591    0.332133    0.332761    0.333703    0.334547    0.334715
     0.334872    0.335124    0.335246    0.335266    0.335377    0.335887
     0.341596    0.347706    0.350436    0.363965    0.392088    0.404455
     0.413018    0.422673    0.452994    0.630550    0.688879    0.823408
     0.825322    0.837476    0.837738    1.129195    1.916785    4.047118

 Minimum Search - Taking Simple RFO Step
 Searching for Lamda that Minimizes Along All modes
 Value Taken    Lamda =   0.00000000
 Step Taken.  Stepsize is  0.002922

                             Maximum     Tolerance    Cnvgd?
         Gradient           0.000295      0.000300     YES
         Displacement       0.000996      0.001200     YES
         Energy change     -0.000001      0.000001     YES

 Final energy is   -1510.29988393149     


 ******************************
 **  OPTIMIZATION CONVERGED  **
 ******************************

                       Coordinates (Angstroms)
     ATOM                X               Y               Z
      1  O        -3.1468235802    2.1528305428    1.6970117767
      2  C        -3.0873841335    1.6917530108    0.5376154006
      3  C        -4.1069779992    0.7296654312   -0.1697586667
      4  C        -3.4185464027   -0.5410260243   -0.8257437042
      5  C        -1.8752881299   -0.6024915558   -0.5579580280
      6  O        -1.6686349776   -0.6290584200    0.8548282067
      7  C        -0.2239389764   -0.6016416997    1.1894373694
      8  C         0.5009420253   -1.9793113973    0.9391916479
      9  O         1.9605323019   -1.7100854448    0.9575922502
     10  C         2.4791736312   -1.7002332990   -0.3772692707
     11  C         3.9090604577   -1.0523779044   -0.3766685793
     12  C         3.8474324389    0.4895227135   -0.7865410255
     13  C         2.3881916421    0.9802283008   -1.0826185518
     14  O         1.5344259002    1.3331745762   -0.2302137074
     15  O        -2.0530008096    1.9798846844   -0.4091675486
     16  O         2.1687887723    0.9523528028   -2.4820935318
     17  O         1.8540654034   -2.1128908002   -1.3798885856
     18  C         0.7540618572    1.2841773428   -2.8012763531
     19  C         4.5501835885   -0.9449583221    1.0686879385
     20  C         6.0813578973   -0.5837697358    0.9116681403
     21  C         5.9993138147    0.9405730654    0.5286229670
     22  C         4.4371400117    1.1671391515    0.5211535119
     23  O         3.9518686948    0.2955268613    1.6143894720
     24  H         4.5466277492   -1.6148865973   -1.0819208906
     25  H         4.4672184055    0.6842667887   -1.6794543349
     26  H         4.3306574360   -1.8041576552    1.7305565713
     27  H         6.6111878381   -0.7329814915    1.8659547530
     28  H         6.5736576116   -1.1918821451    0.1360270481
     29  H         6.4760156588    1.5752519432    1.2923801261
     30  H         6.4557481186    1.1606558290   -0.4496207068
     31  H         4.1041633773    2.2103834893    0.6835641923
     32  O        -0.9615948577   -0.6638697445   -1.4127362821
     33  C        -1.0184057742    2.8679603685    0.1755266600
     34  C        -5.0989034793    0.0499828241    0.8607867807
     35  C        -6.3288493904   -0.5242831830    0.0559552381
     36  C        -5.6713715997   -1.7697342614   -0.6479946677
     37  C        -4.1988679587   -1.7063483637   -0.0762487922
     38  O        -4.3759335381   -1.1699550020    1.2915325350
     39  H        -4.6542382622    1.3122080203   -0.9341451314
     40  H        -3.5740936830   -0.5729386639   -1.9180693657
     41  H        -1.2030764084    2.9911412219    1.2607712034
     42  H        -5.3429104087    0.6843491428    1.7351731255
     43  H        -7.1318316891   -0.8290427924    0.7460473063
     44  H        -6.7378759789    0.2050104769   -0.6616155052
     45  H        -6.1598296695   -2.7097978386   -0.3464182171
     46  H        -5.6932034866   -1.6973288069   -1.7472038560
     47  H        -3.6626365219   -2.6747385561   -0.0472743588
     48  H        -1.0702505854    3.8570998446   -0.3212315973
     49  H        -0.0258794046    2.3986462113   -0.0078973685
     50  H         0.6704667032    1.1898926241   -3.8988862132
     51  H         0.5106057794    2.3230025139   -2.5012174593
     52  H         0.0551383252    0.5719254325   -2.2993720992
     53  H         0.2746903854   -2.7147613576    1.7365574158
     54  H         0.2224605267   -2.3858279809   -0.0569281136
     55  H        -0.1826506310   -0.3392419467    2.2645366976
     56  H         0.3187390857    0.1797354576    0.6038401959

Z-matrix Print:
$molecule
0 1
O 
C  1 1.428067
O  2 1.252697 1 124.651969
C  1 1.483193 2 111.333439 3 5.707509 0
H  4 1.107428 1 105.052855 2 164.529426 0
H  4 1.117127 1 111.582525 2 46.601052 0
C  2 1.567525 1 108.192046 3 177.861621 0
H  7 1.103806 2 107.858086 1 -177.149193 0
C  4 1.576721 1 113.318983 2 -75.218461 0
H  9 1.108092 4 111.829248 1 -76.707258 0
H  9 1.111334 4 110.283679 1 46.742091 0
O  9 1.484326 4 106.955527 1 165.013479 0
C  12 1.432111 9 110.231216 4 -103.372017 0
O  13 1.251516 12 124.302803 9 -12.821288 0
C  13 1.569807 12 109.411769 9 165.202653 0
H  15 1.104667 13 108.380149 12 141.022123 0
C  15 1.584813 13 113.378657 12 15.314580 0
H  17 1.106565 15 114.369059 13 37.353256 0
O  17 1.481410 15 103.257150 13 -82.723651 0
C  19 1.479987 17 95.084225 15 -57.463894 0
H  20 1.107072 19 110.364507 17 179.460116 0
C  20 1.578536 19 103.678048 17 -56.149907 0
H  22 1.101538 20 110.417439 19 -82.843982 0
H  22 1.101694 20 112.156256 19 155.708846 0
C  22 1.573873 20 101.055074 19 35.284340 0
H  25 1.101656 22 111.535156 20 -118.036331 0
H  25 1.101716 22 112.739774 20 119.374062 0
C  20 1.586501 19 103.618027 17 56.662114 0
H  28 1.104244 20 112.492457 19 -152.312875 0
C  28 1.567749 20 111.589641 19 85.685274 0
O  30 1.257013 28 126.299842 20 -30.717329 0
O  30 1.416843 28 108.936344 20 149.873518 0
C  32 1.487763 30 110.779485 28 174.506573 0
H  33 1.104819 32 105.429639 30 -177.366530 0
H  33 1.108361 32 111.089987 30 64.212707 0
H  33 1.117007 32 110.877937 30 -58.162522 0
C  7 1.587108 2 112.819862 1 58.899086 0
H  37 1.105955 7 110.529577 2 124.578150 0
C  37 1.570211 7 113.272119 2 3.156878 0
O  39 1.249130 37 127.835704 7 -129.087822 0
O  39 1.431561 37 107.131199 7 51.872859 0
C  41 1.483554 39 111.328954 37 -178.913769 0
H  42 1.107715 41 109.659403 39 8.130429 0
H  42 1.108086 41 108.968214 39 -111.588439 0
H  42 1.113108 41 107.727782 39 128.939704 0
C  37 1.583638 7 101.363623 2 -117.141977 0
H  46 1.107480 37 113.950304 7 153.310307 0
O  46 1.482051 37 103.701873 7 33.182268 0
C  48 1.479830 46 95.054159 37 -55.960645 0
H  49 1.107323 48 110.533175 46 -179.550119 0
C  46 1.578069 37 108.208804 7 -75.978245 0
H  51 1.101765 46 110.441539 37 -168.975211 0
H  51 1.101853 46 112.371149 37 -47.427272 0
C  51 1.574475 46 100.977200 37 73.009039 0
H  54 1.101480 51 111.562232 46 119.284167 0
H  54 1.101808 51 112.692811 46 -118.119880 0
$end

 
 --------------------------------------------------------------
 
                    Orbital Energies (a.u.)
 --------------------------------------------------------------
 
 Alpha MOs
 -- Occupied --
-18.944 -18.932 -18.931 -18.924 -18.888 -18.885 -18.884 -18.877
-18.875 -18.871 -10.110 -10.102 -10.099 -10.095 -10.061 -10.060
-10.060 -10.059 -10.055 -10.053 -10.047 -10.041 -10.040 -10.037
-10.036 -10.035 -10.022 -10.020 -10.019 -10.018  -1.019  -1.013
 -1.009  -1.000  -0.970  -0.967  -0.942  -0.937  -0.933  -0.930
 -0.765  -0.761  -0.727  -0.722  -0.711  -0.704  -0.688  -0.659
 -0.649  -0.612  -0.596  -0.578  -0.548  -0.544  -0.538  -0.535
 -0.514  -0.507  -0.481  -0.477  -0.463  -0.460  -0.452  -0.441
 -0.433  -0.432  -0.427  -0.418  -0.412  -0.406  -0.401  -0.397
 -0.380  -0.379  -0.370  -0.367  -0.363  -0.359  -0.352  -0.349
 -0.344  -0.337  -0.332  -0.329  -0.327  -0.323  -0.318  -0.311
 -0.308  -0.306  -0.303  -0.301  -0.292  -0.286  -0.283  -0.280
 -0.272  -0.259  -0.245  -0.241  -0.237  -0.234  -0.232  -0.191
 -0.177  -0.170  -0.161  -0.160  -0.156  -0.153  -0.148  -0.144
 -0.141
 -- Virtual --
  0.085   0.094   0.098   0.114   0.219   0.233   0.239   0.257
  0.266   0.280   0.286   0.291   0.304   0.322   0.327   0.334
  0.341   0.342   0.345   0.351   0.353   0.357   0.364   0.368
  0.381   0.382   0.387   0.401   0.403   0.406   0.408   0.412
  0.412   0.417   0.419   0.432   0.432   0.434   0.437   0.439
  0.443   0.447   0.450   0.453   0.461   0.465   0.467   0.470
  0.482   0.489   0.491   0.493   0.501   0.509   0.516   0.534
  0.539   0.551   0.554   0.637   0.647   0.650   0.655
 --------------------------------------------------------------
 
          Ground-State Mulliken Net Atomic Charges

     Atom                 Charge (a.u.)
  ----------------------------------------
      1 O                    -0.212199
      2 C                     0.214549
      3 C                    -0.077808
      4 C                    -0.078296
      5 C                     0.220612
      6 O                    -0.167399
      7 C                    -0.061695
      8 C                    -0.058326
      9 O                    -0.169317
     10 C                     0.205095
     11 C                    -0.077313
     12 C                    -0.078176
     13 C                     0.218307
     14 O                    -0.221757
     15 O                    -0.178829
     16 O                    -0.160869
     17 O                    -0.207743
     18 C                    -0.143776
     19 C                     0.026195
     20 C                    -0.144379
     21 C                    -0.143841
     22 C                     0.025455
     23 O                    -0.184619
     24 H                     0.086231
     25 H                     0.087870
     26 H                     0.089352
     27 H                     0.078349
     28 H                     0.073461
     29 H                     0.078457
     30 H                     0.073605
     31 H                     0.084822
     32 O                    -0.220598
     33 C                    -0.151820
     34 C                     0.024491
     35 C                    -0.143722
     36 C                    -0.144135
     37 C                     0.025923
     38 O                    -0.185257
     39 H                     0.083816
     40 H                     0.084601
     41 H                     0.095280
     42 H                     0.090612
     43 H                     0.077915
     44 H                     0.072724
     45 H                     0.077732
     46 H                     0.073323
     47 H                     0.082077
     48 H                     0.075216
     49 H                     0.109329
     50 H                     0.087641
     51 H                     0.081594
     52 H                     0.119909
     53 H                     0.085519
     54 H                     0.102159
     55 H                     0.090642
     56 H                     0.109011
  ----------------------------------------
  Sum of atomic charges =    -0.000000

 -----------------------------------------------------------------
                    Cartesian Multipole Moments
 -----------------------------------------------------------------
    Charge (ESU x 10^10)
                 0.0000
    Dipole Moment (Debye)
         X       0.9827      Y       0.1654      Z      -1.9529
       Tot       2.1924
    Quadrupole Moments (Debye-Ang)
        XX    -135.8647     XY       2.2022     YY    -155.9484
        XZ       7.3683     YZ      -5.8149     ZZ    -167.9560
    Octopole Moments (Debye-Ang^2)
       XXX      37.3037    XXY      -3.9358    XYY      10.5521
       YYY      18.3664    XXZ     -35.2906    XYZ      -4.6252
       YYZ       4.0009    XZZ       4.5042    YZZ       8.4943
       ZZZ       6.2691
    Hexadecapole Moments (Debye-Ang^3)
      XXXX  -12126.5818   XXXY    -143.6413   XXYY   -2470.0428
      XYYY     -97.7094   YYYY   -1948.4562   XXXZ      58.8190
      XXYZ      19.4031   XYYZ      34.4879   YYYZ      30.7284
      XXZZ   -2466.0855   XYZZ     -40.6528   YYZZ    -587.8518
      XZZZ      17.2149   YZZZ      31.5209   ZZZZ   -1380.7419
 -----------------------------------------------------------------
Archival summary:
1\1\vega02.cac.cornell.edu\OPT\ProcedureUnspecified\STO-3G\102026\jj585\WedJan1707:57:102018WedJan1707:57:102018\0\\#,OPT,ProcedureUnspecified,STO-3G,\\0,1\O\C,1,1.42807\O,2,1.2527,1,124.652\C,1,1.48319,2,111.333,3,5.70751,0\H,4,1.10743,1,105.053,2,164.529,0\H,4,1.11713,1,111.583,2,46.6011,0\C,2,1.56752,1,108.192,3,177.862,0\H,7,1.10381,2,107.858,1,-177.149,0\C,4,1.57672,1,113.319,2,-75.2185,0\H,9,1.10809,4,111.829,1,-76.7073,0\H,9,1.11133,4,110.284,1,46.7421,0\O,9,1.48433,4,106.956,1,165.013,0\C,12,1.43211,9,110.231,4,-103.372,0\O,13,1.25152,12,124.303,9,-12.8213,0\C,13,1.56981,12,109.412,9,165.203,0\H,15,1.10467,13,108.38,12,141.022,0\C,15,1.58481,13,113.379,12,15.3146,0\H,17,1.10656,15,114.369,13,37.3533,0\O,17,1.48141,15,103.257,13,-82.7237,0\C,19,1.47999,17,95.0842,15,-57.4639,0\H,20,1.10707,19,110.365,17,179.46,0\C,20,1.57854,19,103.678,17,-56.1499,0\H,22,1.10154,20,110.417,19,-82.844,0\H,22,1.10169,20,112.156,19,155.709,0\C,22,1.57387,20,101.055,19,35.2843,0\H,25,1.10166,22,111.535,20,-118.036,0\H,25,1.10172,22,112.74,20,119.374,0\C,20,1.5865,19,103.618,17,56.6621,0\H,28,1.10424,20,112.492,19,-152.313,0\C,28,1.56775,20,111.59,19,85.6853,0\O,30,1.25701,28,126.3,20,-30.7173,0\O,30,1.41684,28,108.936,20,149.874,0\C,32,1.48776,30,110.779,28,174.507,0\H,33,1.10482,32,105.43,30,-177.367,0\H,33,1.10836,32,111.09,30,64.2127,0\H,33,1.11701,32,110.878,30,-58.1625,0\C,7,1.58711,2,112.82,1,58.8991,0\H,37,1.10595,7,110.53,2,124.578,0\C,37,1.57021,7,113.272,2,3.15688,0\O,39,1.24913,37,127.836,7,-129.088,0\O,39,1.43156,37,107.131,7,51.8729,0\C,41,1.48355,39,111.329,37,-178.914,0\H,42,1.10771,41,109.659,39,8.13043,0\H,42,1.10809,41,108.968,39,-111.588,0\H,42,1.11311,41,107.728,39,128.94,0\C,37,1.58364,7,101.364,2,-117.142,0\H,46,1.10748,37,113.95,7,153.31,0\O,46,1.48205,37,103.702,7,33.1823,0\C,48,1.47983,46,95.0542,37,-55.9606,0\H,49,1.10732,48,110.533,46,-179.55,0\C,46,1.57807,37,108.209,7,-75.9782,0\H,51,1.10176,46,110.442,37,-168.975,0\H,51,1.10185,46,112.371,37,-47.4273,0\C,51,1.57447,46,100.977,37,73.009,0\H,54,1.10148,51,111.562,46,119.284,0\H,54,1.10181,51,112.693,46,-118.12,0\\\@

 Total job time:  145.57s(wall), 6942.51s(cpu) 
 Wed Jan 17 07:57:10 2018

        *************************************************************
        *                                                           *
        *  Thank you very much for using Q-Chem.  Have a nice day.  *
        *                                                           *
        *************************************************************


0 sent ACK to 0 
now end server 0 ... 
