mFile = /opt/software/qchem/qchem-5.0.1//bin/mpi/machines
Process 0 of 1 is on vega02.cac.cornell.edu - thread support 0
initial socket setup ...start
initial socket setup ...done 
now start server 0 ... 
vega02.cac.cornell.edu 10.84.3
Q-Chem Developer Version! Running on 10.84.3.*
                  Welcome to Q-Chem
     A Quantum Leap Into The Future Of Chemistry


 Q-Chem 5.0, Q-Chem, Inc., Pleasanton, CA (2017)

 Yihan Shao,  Zhengting Gan,  E. Epifanovsky,  A. T. B. Gilbert,  M. Wormit,  
 J. Kussmann,  A. W. Lange,  A. Behn,  Jia Deng,  Xintian Feng,  D. Ghosh,  
 M. Goldey,  P. R. Horn,  L. D. Jacobson,  I. Kaliman,  T. Kus,  A. Landau,  
 Jie Liu,  E. I. Proynov,  R. M. Richard,  R. P. Steele,  E. J. Sundstrom,  
 H. L. Woodcock III,  P. M. Zimmerman,  D. Zuev,  B. Albrecht,  E. Alguire,  
 S. A. Baeppler,  Z. Benda,  Y. A. Bernard,  E. J. Berquist,  K. B. Bravaya,  
 D. Casanova,  Chun-Min Chang,  Yunqing Chen,  A. Chien,  K. D. Closser,  
 M. P. Coons,  S. Dasgupta,  M. Diedenhofen,  Hainam Do,  R. G. Edgar,  
 Po-Tung Fang,  S. Fatehi,  Qingguo Feng,  Qinghui Ge,  A. Ghysels,  
 J. Gomes,  J. Gonthier,  A. Gunina,  M. W. D. Hanson-Heine,  
 P. H. P. Harbach,  A. W. Hauser,  J. E. Herr,  E. G. Hohenstein,  
 Z. C. Holden,  Kerwin Hui,  T.-C. Jagau,  Hyunjun Ji,  B. Kaduk,  
 K. Khistyaev,  Jaehoon Kim,  P. Klunzinger,  K. Koh,  D. Kosenkov,  
 T. Kowalczyk,  C. M. Krauter,  A. Kunitsa,  Ka Un Lao,  A. Laurent,  
 K. V. Lawler,  Joonho Lee,  D. Lefrancois,  S. Lehtola,  D. S. Levine,  
 Yi-Pei Li,  You-Sheng Lin,  Fenglai Liu,  E. Livshits,  A. Luenser,  
 P. Manohar,  E. Mansoor,  S. F. Manzer,  Shan-Ping Mao,  Yuezhi Mao,  
 N. Mardirossian,  A. V. Marenich,  L. A. Martinez-Martinez,  S. A. Maurer,  
 N. J. Mayhall,  S. C. McKenzie,  J.-M. Mewes,  A. F. Morrison,  K. Nanda,  
 T. S. Nguyen-Beck,  R. Olivares-Amaya,  J. A. Parkhill,  T. M. Perrine,  
 F. Plasser,  S. Prager,  A. Prociuk,  D. R. Rehn,  F. Rob,  M. Schneider,  
 N. Sergueev,  S. M. Sharada,  S. Sharma,  D. W. Small,  T. Stauch,  
 T. Stein,  Yu-Chuan Su,  A. J. W. Thom,  T. Tsuchimochi,  L. Vogt,  
 O. Vydrov,  M. A. Watson,  J. Wenzel,  M. de Wergifosse,  T. A. Wesolowski,  
 A. White,  J. Witte,  A. Yamada,  Jun Yang,  K. Yao,  S. Yeganeh,  
 S. R. Yost,  Zhi-Qiang You,  A. Zech,  Igor Ying Zhang,  Xing Zhang,  
 Yan Zhao,  Ying Zhu,  B. R. Brooks,  G. K. L. Chan,  C. J. Cramer,  
 M. S. Gordon,  W. J. Hehre,  A. Klamt,  M. W. Schmidt,  C. D. Sherrill,  
 D. G. Truhlar,  A. Aspuru-Guzik,  R. Baer,  A. T. Bell,  N. A. Besley,  
 Jeng-Da Chai,  A. Dreuw,  B. D. Dunietz,  T. R. Furlani,  Chao-Ping Hsu,  
 Yousung Jung,  Jing Kong,  D. S. Lambrecht,  WanZhen Liang,  C. Ochsenfeld,  
 V. A. Rassolov,  L. V. Slipchenko,  J. E. Subotnik,  T. Van Voorhis,  
 J. M. Herbert,  A. I. Krylov,  P. M. W. Gill,  M. Head-Gordon

 Contributors to earlier versions of Q-Chem not listed above: 
 R. D. Adamson,  B. Austin,  J. Baker,  G. J. O. Beran,  K. Brandhorst,  
 S. T. Brown,  E. F. C. Byrd,  A. K. Chakraborty,  C.-L. Cheng,  
 Siu Hung Chien,  D. M. Chipman,  D. L. Crittenden,  H. Dachsel,  
 R. A. DiStasio Jr.,  R. J. Doerksen,  A. D. Dutoi,  L. Fusti-Molnar,  
 W. A. Goddard III,  A. Golubeva-Zadorozhnaya,  S. R. Gwaltney,  G. Hawkins,  
 A. Heyden,  S. Hirata,  G. Kedziora,  F. J. Keil,  C. Kelley,  Jihan Kim,  
 R. A. King,  R. Z. Khaliullin,  P. P. Korambath,  W. Kurlancheek,  
 A. M. Lee,  M. S. Lee,  S. V. Levchenko,  Ching Yeh Lin,  D. Liotard,  
 R. C. Lochan,  I. Lotan,  P. E. Maslen,  N. Nair,  D. P. O'Neill,  
 D. Neuhauser,  E. Neuscamman,  C. M. Oana,  R. Olson,  B. Peters,  
 R. Peverati,  P. A. Pieniazek,  Y. M. Rhee,  J. Ritchie,  M. A. Rohrdanz,  
 E. Rosta,  N. J. Russ,  H. F. Schaefer III,  N. E. Schultz,  N. Shenvi,  
 A. C. Simmonett,  A. Sodt,  D. Stuck,  K. S. Thanthiriwatte,  V. Vanovschi,  
 Tao Wang,  A. Warshel,  C. F. Williams,  Q. Wu,  X. Xu,  W. Zhang

 Please cite Q-Chem as follows:
 Y. Shao et al., Mol. Phys. 113, 184-215 (2015)
 DOI: 10.1080/00268976.2014.952696

 Q-Chem 5.0.1 for Intel X86 EM64T Linux

 Parts of Q-Chem use Armadillo 5.200.1 (Boston Tea Smuggler).
 http://arma.sourceforge.net/

 Q-Chem begins on Wed Jan 17 08:39:26 2018  

Host: vega02.cac.cornell.edu
0

     Scratch files written to /scratch/jj585/SOT1001/1440r.save//
 Parallel job on  1  processors

Checking the input file for inconsistencies... 	...done.

--------------------------------------------------------------
User input:
--------------------------------------------------------------
$molecule
0  1
O -6.0790683163 1.8461096239 0.3216649624
C -5.1232617354 1.2398794965 -0.2059881578
C -4.9576039782 -0.3080525604 -0.3874656081
C -3.5027734937 -0.7817853783 -0.7885571718
C -2.3788583427 0.2922873158 -0.4883251561
O -1.5836145272 0.616904061 -1.6835081507
C -0.3690648385 -0.2293341845 -1.6388967003
C 0.7871368317 0.5253292234 -0.8763769368
O 2.0027444552 -0.3176014983 -0.7811454903
C 3.0765713174 0.2246777426 -1.5639010579
C 4.4240660986 0.3870182482 -0.7653349825
C 4.3881464034 0.6213383765 0.8033551631
C 3.1279514574 0.1101897706 1.5939659144
O 2.621361384 -1.030311734 1.6120103754
O -4.0573680958 1.8886177421 -0.9134908807
O 2.6109391201 1.223056495 2.3423460188
O 2.9315708554 0.6169852357 -2.7442595341
C 1.4200056461 0.8033277043 3.1166743862
C 5.4453963569 -0.8407439881 -0.8760584878
C 6.9003078597 -0.2310762596 -0.8308451686
C 6.9657359419 0.2429790216 0.6685638555
C 5.6005552357 -0.3193943929 1.2348738253
O 5.3408735225 -1.5322982698 0.4254090796
H 4.8956342311 1.2688541568 -1.2370387436
H 4.5526647198 1.6830020895 1.057873273
H 5.2451981527 -1.5410988359 -1.7100037308
H 7.6493532395 -1.0119244241 -1.039283439
H 7.035383468 0.5922343846 -1.5502599834
H 7.8188279873 -0.2064229152 1.2010734289
H 7.0285048961 1.3389695594 0.7638312083
H 5.6131740314 -0.5726035531 2.3127445575
O -2.0769889131 0.7198500955 0.6453421802
C -4.1337359287 3.3580080874 -0.7602472228
C -5.2353236774 -1.1749836855 0.9160000133
C -5.6735528645 -2.6118883818 0.4344259869
C -4.3121382581 -3.1562945651 -0.1393907784
C -3.3214815842 -1.9829390422 0.2399788168
O -3.8896181211 -1.4159104334 1.4849765055
H -5.6739010355 -0.5980877106 -1.1800758338
H -3.4381731685 -1.0922695583 -1.8453004184
H -3.9852163111 3.6606474516 0.2963493521
H -5.8982451756 -0.6901816426 1.6589193164
H -6.0165179886 -3.2137165814 1.2912741469
H -6.4754826978 -2.5783248482 -0.3205464673
H -4.0084969623 -4.0938825098 0.3521590662
H -4.3492627688 -3.3244822222 -1.2277804003
H -2.2715790631 -2.2929967429 0.4061156199
H -5.1111587831 3.7483893772 -1.1097331739
H -3.3191329482 3.7711335145 -1.3829099897
H 1.1070944084 1.6880250813 3.7009569585
H 1.6525247515 -0.0342470846 3.8053918553
H 0.5881261247 0.4890609199 2.452783087
H 0.9879503576 1.4855223215 -1.3946012215
H 0.4532752126 0.7382783619 0.1626451311
H -0.0588060833 -0.3934743752 -2.6926936489
H -0.5409360217 -1.221957947 -1.1699629481
$end

$rem
JOBTYPE                   OPT
METHOD                    B3LYP
DFT_D                     d3_op
BASIS                     STO-3G
GEOM_OPT_MAX_CYCLES       100
GEOM_OPT_TOL_GRADIENT     300
GEOM_OPT_TOL_DISPLACEMENT 1200
GEOM_OPT_TOL_ENERGY       100
SYMMETRY                  False
THRESH                    12
SCF_CONVERGENCE           8
MAX_SUB_FILE_NUM          128
MEM_STATIC                400
MEM_TOTAL                 4000
$end
--------------------------------------------------------------
 Adding empirical dispersion correction 
 ----------------------------------------------------------------
 Doing -D3(op) with
 s6 =   1.00000
 s8 =   0.78311
 a1 =   0.30000
 a2 =   4.25000
 n  =  10.00000
 -D3 energy without 3body term =     -0.0673200442 hartrees
 ----------------------------------------------------------------
             Standard Nuclear Orientation (Angstroms)
    I     Atom           X                Y                Z
 ----------------------------------------------------------------
    1      O      -6.0820323809     1.4497524661     1.3007226305
    2      C      -5.1406021365     1.1857148052     0.5238750192
    3      C      -4.9877789923    -0.0722664380    -0.3984039454
    4      C      -3.5441121472    -0.2807897378    -1.0101007964
    5      C      -2.4080669825     0.5122352994    -0.2436353005
    6      O      -1.6350412889     1.3861861105    -1.1407932602
    7      C      -0.4248699431     0.6330488880    -1.5426762456
    8      C       0.7508341964     0.9208269503    -0.5314101508
    9      O       1.9630978216     0.1456912646    -0.8876189321
   10      C       3.0242034095     1.0077573453    -1.3243959775
   11      C       4.3883767016     0.7629088870    -0.5768099533
   12      C       4.3853059064     0.1956563583     0.9048108008
   13      C       3.1382146835    -0.6440388295     1.3675256513
   14      O       2.6253485020    -1.6484647821     0.8329233948
   15      O      -4.0852891626     2.1034575723     0.2051064420
   16      O       2.6429065776    -0.0452516994     2.5766454704
   17      O       2.8578881237     1.9289433727    -2.1562204567
   18      C       1.4652761584    -0.7970066858     3.0687127973
   19      C       5.3999985782    -0.2470170539    -1.2975360266
   20      C       6.8591062504     0.2685136329    -0.9881182244
   21      C       6.9573904706    -0.0554386423     0.5489672646
   22      C       5.6005357663    -0.8299739701     0.7933635355
   23      O       5.3175027951    -1.4895019739    -0.5022902496
   24      H       4.8556014766     1.7649278874    -0.5636022270
   25      H       4.5611738660     0.9958333933     1.6449207639
   26      H       5.1789781328    -0.4478928640    -2.3637629132
   27      H       7.5991879443    -0.3054769712    -1.5686810739
   28      H       6.9845987697     1.3397538489    -1.2124829718
   29      H       7.8183144243    -0.7045435255     0.7742834451
   30      H       7.0285412184     0.8524364101     1.1693796511
   31      H       5.6332663726    -1.5802723969     1.6070344802
   32      O      -2.0810018521     0.3286996001     0.9473641789
   33      C      -4.1498727782     3.3073423128     1.0623777757
   34      C      -5.2444314730    -1.4692702151     0.3159001804
   35      C      -5.7007236810    -2.4858868293    -0.8007651903
   36      C      -4.3543338808    -2.6714854810    -1.5956747133
   37      C      -3.3493437622    -1.8315322286    -0.7087933719
   38      O      -3.8890368575    -1.9524392131     0.6654091883
   39      H      -5.7215286951     0.0614249257    -1.2164325668
   40      H      -3.5025523943    -0.0313895662    -2.0840431871
   41      H      -3.9784085289     3.0521855478     2.1279949772
   42      H      -5.8894427703    -1.4154168210     1.2145031310
   43      H      -6.0299939715    -3.4327929751    -0.3436428279
   44      H      -6.5174179334    -2.0893038977    -1.4252120266
   45      H      -4.0464506149    -3.7281630352    -1.6348011909
   46      H      -4.4142692807    -2.2830925105    -2.6251483334
   47      H      -2.2981741177    -2.1782663195    -0.7379544349
   48      H      -5.1317797182     3.8144953504     0.9699225139
   49      H      -3.3454885596     3.9770207680     0.7067707579
   50      H       1.1693840117    -0.3152870026     4.0186512164
   51      H       1.7065980798    -1.8638487186     3.2518526919
   52      H       0.6184068699    -0.7482359989     2.3531901664
   53      H       0.9468943972     2.0126755862    -0.5146703468
   54      H       0.4391395239     0.5939357295     0.4846441463
   55      H      -0.1367804183     1.0095959060    -2.5471200097
   56      H      -0.5931743744    -0.4626746983    -1.6188598534
 ----------------------------------------------------------------
 Molecular Point Group                 C1    NOp =  1
 Largest Abelian Subgroup              C1    NOp =  1
 Nuclear Repulsion Energy =  3077.9555229418 hartrees
 There are      113 alpha and      113 beta electrons
 Requested basis set is STO-3G
 There are 86 shells and 176 basis functions

 Total QAlloc Memory Limit   4000 MB
 Mega-Array Size       392 MB
 MEM_STATIC part       400 MB
 A cutoff of  1.0D-12 yielded   2090 shell pairs
 There are      9722 function pairs
 
 -------------------------------------------------------
 OpenMP Integral Computing Module                       
 Release: version 1.0, May 2013, Q-Chem Inc. Pittsburgh 
 -------------------------------------------------------
 Integral Job Info:
 Integral job number is                      11
 Integral operator is                         1
 short-range coefficients                     0
 long-range coefficients              100000000
 Omega coefficients                           0
 if combine SR and LR in K                    0
 Integral screening is                        0
 Integral computing path is                   2
 max size of driver memory is            800000
 size of driver memory is                 45569
 size of scratch memory is              1046100
 max col of scratch BK array                289
 max len of scratch array in speh3           22
 max len of scratch index in speh4            8
 max int batch size is                      520
 min int batch size is                       52
 fixed nKL is                                52
 max L of basis functions is                  1
 order of int derivative is                   0
 number of shells is                         86
 number of basis is                         176
 number of cartesian basis is               176
 number of contracted shell pairs          2090
 number of primitive shell pairs          10800
 maxK2 (contraction) of shell pair            9
 max number of K2 of shell pair               1
 max number of CS2 of shell pair            305
 max number of PS2 of shell pair           1216
 mem total for path MDJ                   49782
 -------------------------------------------------------
 Smallest overlap matrix eigenvalue = 2.13E-01

 Scale SEOQF with 1.000000e-02/1.000000e-01/1.000000e-01

 Standard Electronic Orientation quadrupole field applied
 Nucleus-field energy     =     0.0000000078 hartrees
 Guess from superposition of atomic densities
 Warning:  Energy on first SCF cycle will be non-variational
 A restricted hybrid HF-DFT SCF calculation will be
 performed using Pulay DIIS extrapolation
 Exchange:     0.2000 Hartree-Fock + 0.0800 Slater + 0.7200 B88
 Correlation:  0.1900 VWN1RPA + 0.8100 LYP
 Using SG-1 standard quadrature grid
 Dispersion:   Grimme D3
 SCF converges when DIIS error is below 1.0E-08
 using 48 threads for integral computing
 -------------------------------------------------------
 OpenMP Integral computing Module                
 Release: version 1.0, May 2013, Q-Chem Inc. Pittsburgh 
 -------------------------------------------------------
 -------------------------------------------------------
 OpenMP BLAS3 based DFT computing Module                
 Release: version 1.0, May 2013, Q-Chem Inc. Pittsburgh 
 -------------------------------------------------------
 ---------------------------------------
  Cycle       Energy         DIIS Error
 ---------------------------------------
    1   -1507.5621769299      7.44E-02
    2   -1509.6674637248      1.07E-02
    3   -1507.2992231678      2.71E-02
    4   -1510.1586745646      4.17E-03
    5   -1510.2286982489      1.50E-03
    6   -1510.2366848833      6.84E-04
    7   -1510.2387272524      1.47E-04
    8   -1510.2388156439      4.45E-05
    9   -1510.2388210882      2.80E-05
   10   -1510.2388244323      4.79E-06
   11   -1510.2388245287      1.37E-06
   12   -1510.2388245372      2.80E-07
   13   -1510.2388245374      1.77E-07
   14   -1510.2388245375      6.75E-08
   15   -1510.2388245376      1.44E-08
   16   -1510.2388245375      5.47E-09 Convergence criterion met
 ---------------------------------------
 SCF time:  CPU 115.45 s  wall 2.46 s
 SCF   energy in the final basis set = -1510.23882454
 Total energy in the final basis set = -1510.23882454
 
 --------------------------------------------------------------
 
                    Orbital Energies (a.u.)
 --------------------------------------------------------------
 
 Alpha MOs
 -- Occupied --
-18.948 -18.924 -18.916 -18.892 -18.891 -18.889 -18.886 -18.885
-18.883 -18.868 -10.108 -10.103 -10.103 -10.091 -10.070 -10.064
-10.064 -10.063 -10.063 -10.060 -10.059 -10.056 -10.043 -10.037
-10.037 -10.035 -10.024 -10.022 -10.021 -10.019  -1.021  -1.009
 -1.001  -0.997  -0.973  -0.971  -0.945  -0.936  -0.927  -0.924
 -0.766  -0.761  -0.726  -0.722  -0.709  -0.705  -0.692  -0.666
 -0.657  -0.607  -0.599  -0.584  -0.549  -0.544  -0.541  -0.537
 -0.516  -0.512  -0.485  -0.474  -0.461  -0.457  -0.452  -0.441
 -0.438  -0.432  -0.426  -0.417  -0.413  -0.406  -0.405  -0.392
 -0.390  -0.384  -0.378  -0.365  -0.361  -0.358  -0.353  -0.350
 -0.340  -0.335  -0.334  -0.334  -0.330  -0.327  -0.324  -0.316
 -0.309  -0.309  -0.307  -0.302  -0.298  -0.293  -0.281  -0.279
 -0.271  -0.261  -0.249  -0.240  -0.237  -0.234  -0.230  -0.184
 -0.177  -0.168  -0.163  -0.153  -0.153  -0.147  -0.143  -0.141
 -0.138
 -- Virtual --
  0.080   0.083   0.097   0.108   0.218   0.232   0.245   0.252
  0.263   0.276   0.278   0.282   0.301   0.316   0.323   0.324
  0.334   0.339   0.343   0.350   0.353   0.363   0.369   0.371
  0.377   0.380   0.381   0.392   0.394   0.397   0.400   0.404
  0.408   0.415   0.417   0.418   0.420   0.422   0.427   0.431
  0.435   0.436   0.440   0.441   0.443   0.449   0.453   0.466
  0.468   0.481   0.486   0.490   0.500   0.504   0.506   0.537
  0.539   0.550   0.552   0.624   0.632   0.637   0.664
 --------------------------------------------------------------
 
          Ground-State Mulliken Net Atomic Charges

     Atom                 Charge (a.u.)
  ----------------------------------------
      1 O                    -0.208128
      2 C                     0.213913
      3 C                    -0.079555
      4 C                    -0.081452
      5 C                     0.227416
      6 O                    -0.197425
      7 C                    -0.051302
      8 C                    -0.049409
      9 O                    -0.182245
     10 C                     0.212708
     11 C                    -0.080836
     12 C                    -0.079517
     13 C                     0.210674
     14 O                    -0.202451
     15 O                    -0.164125
     16 O                    -0.174792
     17 O                    -0.203025
     18 C                    -0.129987
     19 C                     0.026821
     20 C                    -0.141993
     21 C                    -0.145635
     22 C                     0.026300
     23 O                    -0.184206
     24 H                     0.085033
     25 H                     0.085374
     26 H                     0.084841
     27 H                     0.078126
     28 H                     0.074340
     29 H                     0.078249
     30 H                     0.073846
     31 H                     0.082431
     32 O                    -0.196764
     33 C                    -0.126064
     34 C                     0.025096
     35 C                    -0.142082
     36 C                    -0.145042
     37 C                     0.024376
     38 O                    -0.185248
     39 H                     0.086283
     40 H                     0.085132
     41 H                     0.092995
     42 H                     0.089503
     43 H                     0.079360
     44 H                     0.074088
     45 H                     0.079622
     46 H                     0.074080
     47 H                     0.082149
     48 H                     0.092867
     49 H                     0.097109
     50 H                     0.089315
     51 H                     0.088157
     52 H                     0.090264
     53 H                     0.087540
     54 H                     0.088646
     55 H                     0.087307
     56 H                     0.077319
  ----------------------------------------
  Sum of atomic charges =    -0.000000

 -----------------------------------------------------------------
                    Cartesian Multipole Moments
 -----------------------------------------------------------------
    Charge (ESU x 10^10)
                -0.0000
    Dipole Moment (Debye)
         X      -0.0618      Y       0.9383      Z      -0.4199
       Tot       1.0298
    Quadrupole Moments (Debye-Ang)
        XX    -144.4294     XY       7.2247     YY    -160.7701
        XZ      13.7656     YZ       4.8133     ZZ    -158.8116
    Octopole Moments (Debye-Ang^2)
       XXX      91.4346    XXY       9.5730    XYY     -43.9604
       YYY      33.2101    XXZ     -36.4243    XYZ     -11.8509
       YYZ      20.4069    XZZ      -0.7519    YZZ     -14.2660
       ZZZ      19.0403
    Hexadecapole Moments (Debye-Ang^3)
      XXXX  -16868.3220   XXXY     191.5750   XXYY   -3222.4543
      XYYY    -147.1366   YYYY   -2068.7355   XXXZ     300.8910
      XXYZ     -19.0758   XYYZ      10.2541   YYYZ      26.9815
      XXZZ   -3192.4574   XYZZ     -76.3750   YYZZ    -660.4363
      XZZZ     -44.7489   YZZZ     -18.2520   ZZZZ   -1673.2223
 -----------------------------------------------------------------
 Calculating analytic gradient of the SCF energy
 Gradient of SCF Energy
            1           2           3           4           5           6
    1  -0.0023685   0.0033008   0.0004056   0.0006930  -0.0063967   0.0067589
    2   0.0022450  -0.0025446  -0.0031585   0.0021096   0.0025816   0.0021379
    3  -0.0034280   0.0041207   0.0039206  -0.0052927  -0.0014920   0.0036608
            7           8           9          10          11          12
    1  -0.0031502   0.0027542  -0.0036306   0.0036102   0.0001074  -0.0049047
    2  -0.0053886   0.0012554   0.0024914  -0.0069961   0.0007806   0.0077874
    3   0.0002639   0.0068211  -0.0082810  -0.0051012   0.0039185   0.0000093
           13          14          15          16          17          18
    1   0.0070197  -0.0039599  -0.0001735  -0.0002046  -0.0000782   0.0001574
    2  -0.0076382   0.0040860   0.0000029  -0.0001700  -0.0001187   0.0001547
    3   0.0047803  -0.0037072   0.0001791   0.0001265   0.0000355  -0.0001355
           19          20          21          22          23          24
    1  -0.0002173   0.0003189  -0.0005585   0.0001031   0.0000498   0.0000186
    2  -0.0001439  -0.0002682   0.0000700   0.0001351   0.0002092   0.0000970
    3  -0.0002163   0.0004009  -0.0003157   0.0001362   0.0000518  -0.0001005
           25          26          27          28          29          30
    1  -0.0000949   0.0000281   0.0000233  -0.0000208   0.0000136   0.0002340
    2   0.0001587  -0.0000148   0.0001216   0.0000240  -0.0001696  -0.0000050
    3   0.0001561  -0.0000190  -0.0000061   0.0000321  -0.0000201   0.0000598
           31          32          33          34          35          36
    1  -0.0000635   0.0001414  -0.0000156  -0.0002526  -0.0000127   0.0001709
    2   0.0001245  -0.0000352  -0.0000206  -0.0005300   0.0002555  -0.0001347
    3  -0.0000407   0.0000385  -0.0001252  -0.0002962   0.0005601  -0.0001461
           37          38          39          40          41          42
    1   0.0003359  -0.0000421   0.0001946  -0.0000847  -0.0000078   0.0000431
    2   0.0003582  -0.0000588  -0.0001296  -0.0000487  -0.0000367   0.0001296
    3  -0.0000092  -0.0001347  -0.0001949   0.0000061  -0.0000445  -0.0000355
           43          44          45          46          47          48
    1   0.0000590  -0.0001498  -0.0000516  -0.0000597  -0.0000767   0.0000080
    2  -0.0000378   0.0000979   0.0000726  -0.0000283  -0.0000469  -0.0000459
    3   0.0000006  -0.0002382  -0.0000207  -0.0000204   0.0001218  -0.0000360
           49          50          51          52          53          54
    1  -0.0000029   0.0000128   0.0000271  -0.0000407  -0.0000104   0.0000111
    2   0.0000185   0.0000063  -0.0000176   0.0000305   0.0000741   0.0000931
    3  -0.0000077   0.0000124  -0.0000200  -0.0000020   0.0000038  -0.0000613
           55          56
    1   0.0000114   0.0000177
    2   0.0000285   0.0000495
    3   0.0000306   0.0001016
 Max gradient component =       8.281E-03
 RMS gradient           =       2.154E-03
 Gradient time:  CPU 32.26 s  wall 0.70 s
 Geometry Optimization Parameters
   NAtoms,    NIC,     NZ,  NCons,   NDum,   NFix, NCnnct, MaxDiis
       56     458       0       0       0       0       0       0


** GEOMETRY OPTIMIZATION IN DELOCALIZED INTERNAL COORDINATES **
   Searching for a Minimum

   Optimization Cycle:   1

                       Coordinates (Angstroms)
     ATOM                X               Y               Z
      1  O        -6.0820323809    1.4497524661    1.3007226305
      2  C        -5.1406021365    1.1857148052    0.5238750192
      3  C        -4.9877789923   -0.0722664380   -0.3984039454
      4  C        -3.5441121472   -0.2807897378   -1.0101007964
      5  C        -2.4080669825    0.5122352994   -0.2436353005
      6  O        -1.6350412889    1.3861861105   -1.1407932602
      7  C        -0.4248699431    0.6330488880   -1.5426762456
      8  C         0.7508341964    0.9208269503   -0.5314101508
      9  O         1.9630978216    0.1456912646   -0.8876189321
     10  C         3.0242034095    1.0077573453   -1.3243959775
     11  C         4.3883767016    0.7629088870   -0.5768099533
     12  C         4.3853059064    0.1956563583    0.9048108008
     13  C         3.1382146835   -0.6440388295    1.3675256513
     14  O         2.6253485020   -1.6484647821    0.8329233948
     15  O        -4.0852891626    2.1034575723    0.2051064420
     16  O         2.6429065776   -0.0452516994    2.5766454704
     17  O         2.8578881237    1.9289433727   -2.1562204567
     18  C         1.4652761584   -0.7970066858    3.0687127973
     19  C         5.3999985782   -0.2470170539   -1.2975360266
     20  C         6.8591062504    0.2685136329   -0.9881182244
     21  C         6.9573904706   -0.0554386423    0.5489672646
     22  C         5.6005357663   -0.8299739701    0.7933635355
     23  O         5.3175027951   -1.4895019739   -0.5022902496
     24  H         4.8556014766    1.7649278874   -0.5636022270
     25  H         4.5611738660    0.9958333933    1.6449207639
     26  H         5.1789781328   -0.4478928640   -2.3637629132
     27  H         7.5991879443   -0.3054769712   -1.5686810739
     28  H         6.9845987697    1.3397538489   -1.2124829718
     29  H         7.8183144243   -0.7045435255    0.7742834451
     30  H         7.0285412184    0.8524364101    1.1693796511
     31  H         5.6332663726   -1.5802723969    1.6070344802
     32  O        -2.0810018521    0.3286996001    0.9473641789
     33  C        -4.1498727782    3.3073423128    1.0623777757
     34  C        -5.2444314730   -1.4692702151    0.3159001804
     35  C        -5.7007236810   -2.4858868293   -0.8007651903
     36  C        -4.3543338808   -2.6714854810   -1.5956747133
     37  C        -3.3493437622   -1.8315322286   -0.7087933719
     38  O        -3.8890368575   -1.9524392131    0.6654091883
     39  H        -5.7215286951    0.0614249257   -1.2164325668
     40  H        -3.5025523943   -0.0313895662   -2.0840431871
     41  H        -3.9784085289    3.0521855478    2.1279949772
     42  H        -5.8894427703   -1.4154168210    1.2145031310
     43  H        -6.0299939715   -3.4327929751   -0.3436428279
     44  H        -6.5174179334   -2.0893038977   -1.4252120266
     45  H        -4.0464506149   -3.7281630352   -1.6348011909
     46  H        -4.4142692807   -2.2830925105   -2.6251483334
     47  H        -2.2981741177   -2.1782663195   -0.7379544349
     48  H        -5.1317797182    3.8144953504    0.9699225139
     49  H        -3.3454885596    3.9770207680    0.7067707579
     50  H         1.1693840117   -0.3152870026    4.0186512164
     51  H         1.7065980798   -1.8638487186    3.2518526919
     52  H         0.6184068699   -0.7482359989    2.3531901664
     53  H         0.9468943972    2.0126755862   -0.5146703468
     54  H         0.4391395239    0.5939357295    0.4846441463
     55  H        -0.1367804183    1.0095959060   -2.5471200097
     56  H        -0.5931743744   -0.4626746983   -1.6188598534
   Point Group: c1    Number of degrees of freedom:   162


   Energy is  -1510.238824538


 Attempting to Generate Delocalized Internal Coordinates

162 Hessian modes will be used to form the next step
  Hessian Eigenvalues:
     0.002000    0.002000    0.002000    0.002000    0.002000    0.002744
     0.002793    0.003588    0.003960    0.004472    0.004723    0.004755
     0.004899    0.004936    0.005151    0.006145    0.006796    0.006809
     0.010711    0.010986    0.011093    0.021384    0.021615    0.024985
     0.025754    0.030490    0.030809    0.034620    0.035244    0.037054
     0.039407    0.042134    0.042217    0.043221    0.045003    0.046857
     0.047915    0.048152    0.048333    0.051056    0.051113    0.053362
     0.054668    0.054860    0.055902    0.056208    0.056292    0.058335
     0.058390    0.059038    0.059507    0.060430    0.060550    0.063065
     0.063367    0.064398    0.064456    0.069865    0.070107    0.073190
     0.073503    0.091517    0.091838    0.092953    0.093486    0.096385
     0.096681    0.096853    0.097383    0.102427    0.103018    0.110356
     0.110929    0.111150    0.111887    0.122254    0.123303    0.136752
     0.137306    0.157588    0.158924    0.160000    0.160000    0.160000
     0.160000    0.160000    0.160000    0.164011    0.165132    0.217323
     0.218387    0.220208    0.220799    0.227597    0.229420    0.238359
     0.238706    0.238972    0.239368    0.240434    0.244788    0.248471
     0.248595    0.249502    0.250000    0.250000    0.250000    0.250000
     0.250000    0.250000    0.250000    0.250000    0.250000    0.250004
     0.252949    0.253065    0.254574    0.256504    0.257822    0.262301
     0.292706    0.293829    0.307395    0.308901    0.323970    0.324745
     0.325243    0.326268    0.326596    0.326983    0.327039    0.327055
     0.328724    0.328892    0.328911    0.328915    0.329205    0.330623
     0.330880    0.330895    0.332358    0.333194    0.334692    0.334701
     0.334715    0.334720    0.334815    0.334998    0.335172    0.335373
     0.343042    0.344277    0.344600    0.346462    0.355234    0.399573
     0.402473    0.403612    0.824043    0.836822    0.837362    0.839504

 Minimum Search - Taking Simple RFO Step
 Searching for Lamda that Minimizes Along All modes
 Value Taken    Lamda =  -0.01805057
 Calculated Step too Large.  Step scaled by  0.355537
 Step Taken.  Stepsize is  0.300000

                             Maximum     Tolerance    Cnvgd?
         Gradient           0.006157      0.000300      NO
         Displacement       0.077568      0.001200      NO
         Energy change     *********      0.000001      NO


 New Cartesian Coordinates Obtained by Inverse Iteration

 Displacement from previous Coordinates is:  2.371688
 Adding empirical dispersion correction 
 ----------------------------------------------------------------
 Doing -D3(op) with
 s6 =   1.00000
 s8 =   0.78311
 a1 =   0.30000
 a2 =   4.25000
 n  =  10.00000
 -D3 energy without 3body term =     -0.0665862847 hartrees
 ----------------------------------------------------------------
             Standard Nuclear Orientation (Angstroms)
    I     Atom           X                Y                Z
 ----------------------------------------------------------------
    1      O      -6.0893862487     1.5177579092     1.1787477913
    2      C      -5.1632209419     1.2264260662     0.3934003518
    3      C      -5.0071742123    -0.0794640636    -0.4590561402
    4      C      -3.5562562621    -0.3285465959    -1.0375598108
    5      C      -2.4273441620     0.5034826853    -0.3023900590
    6      O      -1.6827194055     1.3760050443    -1.2245224288
    7      C      -0.4169299282     0.6810825472    -1.5533798534
    8      C       0.6840066779     1.0266873657    -0.4780138848
    9      O       1.9430763557     0.2926924659    -0.7488150511
   10      C       3.0007730318     1.1902746834    -1.1167730989
   11      C       4.3889291188     0.8406011315    -0.4604164361
   12      C       4.4373096836     0.1368291166     0.9603869388
   13      C       3.1858614894    -0.7046871123     1.4081844840
   14      O       2.6527707544    -1.6812536786     0.8426119816
   15      O      -4.1066443023     2.1265054048     0.0310448281
   16      O       2.7589459371    -0.1918556096     2.6812237999
   17      O       2.8351877008     2.1627275395    -1.8882321693
   18      C       1.6024479515    -0.9718128817     3.1798688322
   19      C       5.3359281206    -0.1249399148    -1.3175303649
   20      C       6.8221401931     0.3230099115    -1.0336280667
   21      C       6.9816304350    -0.1434445771     0.4613966355
   22      C       5.6156287471    -0.9040845463     0.6997860090
   23      O       5.2539233643    -1.4334810165    -0.6355115140
   24      H       4.8870712738     1.8242030310    -0.3780471620
   25      H       4.6686135911     0.8642695219     1.7579248213
   26      H       5.0605746753    -0.2209498135    -2.3856975217
   27      H       7.5175868268    -0.2135650868    -1.6990085779
   28      H       6.9685014514     1.4068636442    -1.1657854246
   29      H       7.8332056848    -0.8309314307     0.5852875607
   30      H       7.1065689704     0.7016615837     1.1573498132
   31      H       5.6637353898    -1.7265612272     1.4396764549
   32      O      -2.1178922988     0.3910479293     0.9020558887
   33      C      -4.1602354639     3.3636656681     0.8405184940
   34      C      -5.2757281619    -1.4340161426     0.3299156603
   35      C      -5.7234805315    -2.5105396046    -0.7331578350
   36      C      -4.3690042778    -2.7450500300    -1.5007404546
   37      C      -3.3707541594    -1.8608260923    -0.6502187049
   38      O      -3.9266443543    -1.9022663236     0.7220174039
   39      H      -5.7335917668     0.0104356436    -1.2895204017
   40      H      -3.5016741172    -0.1365840412    -2.1226752468
   41      H      -3.9819415748     3.1502596998     1.9141778052
   42      H      -5.9305557342    -1.3281407869     1.2167503539
   43      H      -6.0617936908    -3.4291120519    -0.2274236037
   44      H      -6.5314897000    -2.1468542055    -1.3879250766
   45      H      -4.0650338160    -3.8033738432    -1.4773408030
   46      H      -4.4153916899    -2.4143472363    -2.5508451659
   47      H      -2.3206242658    -2.2120101498    -0.6478993635
   48      H      -5.1407315817     3.8710599013     0.7351345361
   49      H      -3.3558056228     4.0152665541     0.4528874684
   50      H       1.3598930187    -0.5574275173     4.1755777477
   51      H       1.8445008074    -2.0499424037     3.2744350037
   52      H       0.7201061643    -0.8689373552     2.5147468341
   53      H       0.8368306265     2.1253834675    -0.4613531469
   54      H       0.3233987453     0.6966263503     0.5207370651
   55      H      -0.0927680240     1.0565178206    -2.5471992421
   56      H      -0.5302581600    -0.4223382105    -1.6199824417
 ----------------------------------------------------------------
 Molecular Point Group                 C1    NOp =  1
 Largest Abelian Subgroup              C1    NOp =  1
 Nuclear Repulsion Energy =  3069.5159623208 hartrees
 There are      113 alpha and      113 beta electrons
 Applying Cartesian multipole field
    Component          Value
    ---------          -----
     (2,0,0)        1.00000E-12
     (0,2,0)        2.00000E-11
     (0,0,2)       -3.00000E-11
 Nucleus-field energy     =     0.0000000110 hartrees
 Requested basis set is STO-3G
 There are 86 shells and 176 basis functions
 A cutoff of  1.0D-12 yielded   2077 shell pairs
 There are      9631 function pairs
 Smallest overlap matrix eigenvalue = 2.13E-01
 Guess MOs from SCF MO coefficient file
 Reading MOs from coefficient file
 Reading MOs from coefficient file
 A restricted hybrid HF-DFT SCF calculation will be
 performed using Pulay DIIS extrapolation
 Exchange:     0.2000 Hartree-Fock + 0.0800 Slater + 0.7200 B88
 Correlation:  0.1900 VWN1RPA + 0.8100 LYP
 Using SG-1 standard quadrature grid
 Dispersion:   Grimme D3
 SCF converges when DIIS error is below 1.0E-08
 Geometry optimization detected.  Setting ReadMinima to 0
 Setting SaveMinima to 0
 using 48 threads for integral computing
 -------------------------------------------------------
 OpenMP Integral computing Module                
 Release: version 1.0, May 2013, Q-Chem Inc. Pittsburgh 
 -------------------------------------------------------
 -------------------------------------------------------
 OpenMP BLAS3 based DFT computing Module                
 Release: version 1.0, May 2013, Q-Chem Inc. Pittsburgh 
 -------------------------------------------------------
 ---------------------------------------
  Cycle       Energy         DIIS Error
 ---------------------------------------
    1   -1510.1670779836      3.81E-03
    2   -1510.2435576157      3.21E-04
    3   -1510.2437621336      3.63E-04
    4   -1510.2442543070      1.66E-04
    5   -1510.2443569910      6.39E-05
    6   -1510.2443748331      1.73E-05
    7   -1510.2443761994      5.35E-06
    8   -1510.2443762982      2.58E-06
    9   -1510.2443763287      5.43E-07
   10   -1510.2443763300      3.42E-07
   11   -1510.2443763305      1.46E-07
   12   -1510.2443763305      2.62E-08
   13   -1510.2443763305      1.37E-08
   14   -1510.2443763306      6.85E-09 Convergence criterion met
 ---------------------------------------
 SCF time:  CPU 99.69 s  wall 2.08 s
 SCF   energy in the final basis set = -1510.24437633
 Total energy in the final basis set = -1510.24437633
 
 --------------------------------------------------------------
 
                    Orbital Energies (a.u.)
 --------------------------------------------------------------
 
 Alpha MOs
 -- Occupied --
-18.947 -18.924 -18.921 -18.892 -18.891 -18.889 -18.887 -18.884
-18.879 -18.867 -10.107 -10.103 -10.102 -10.091 -10.070 -10.064
-10.063 -10.063 -10.063 -10.060 -10.059 -10.057 -10.042 -10.037
-10.037 -10.035 -10.023 -10.022 -10.021 -10.019  -1.020  -1.008
 -1.001  -0.997  -0.973  -0.970  -0.944  -0.936  -0.927  -0.925
 -0.766  -0.761  -0.726  -0.722  -0.708  -0.705  -0.692  -0.666
 -0.657  -0.608  -0.598  -0.583  -0.549  -0.544  -0.540  -0.537
 -0.516  -0.511  -0.485  -0.474  -0.461  -0.457  -0.452  -0.441
 -0.437  -0.432  -0.425  -0.417  -0.413  -0.405  -0.405  -0.392
 -0.389  -0.382  -0.379  -0.365  -0.361  -0.357  -0.353  -0.349
 -0.339  -0.335  -0.334  -0.333  -0.329  -0.327  -0.324  -0.316
 -0.309  -0.309  -0.306  -0.302  -0.298  -0.293  -0.282  -0.279
 -0.271  -0.260  -0.249  -0.241  -0.237  -0.234  -0.231  -0.183
 -0.177  -0.168  -0.163  -0.153  -0.153  -0.147  -0.143  -0.142
 -0.139
 -- Virtual --
  0.081   0.087   0.098   0.109   0.216   0.232   0.245   0.252
  0.262   0.276   0.278   0.282   0.302   0.316   0.324   0.324
  0.334   0.340   0.343   0.351   0.353   0.363   0.370   0.371
  0.377   0.380   0.381   0.393   0.394   0.398   0.401   0.405
  0.413   0.417   0.417   0.418   0.421   0.422   0.428   0.432
  0.436   0.436   0.440   0.441   0.443   0.448   0.452   0.465
  0.467   0.473   0.486   0.490   0.494   0.504   0.506   0.537
  0.540   0.549   0.552   0.626   0.633   0.637   0.664
 --------------------------------------------------------------
 
          Ground-State Mulliken Net Atomic Charges

     Atom                 Charge (a.u.)
  ----------------------------------------
      1 O                    -0.208172
      2 C                     0.213668
      3 C                    -0.079569
      4 C                    -0.081103
      5 C                     0.226870
      6 O                    -0.195395
      7 C                    -0.051116
      8 C                    -0.051088
      9 O                    -0.178035
     10 C                     0.210364
     11 C                    -0.080621
     12 C                    -0.079435
     13 C                     0.211195
     14 O                    -0.204090
     15 O                    -0.164232
     16 O                    -0.174392
     17 O                    -0.207173
     18 C                    -0.129871
     19 C                     0.026743
     20 C                    -0.141930
     21 C                    -0.145594
     22 C                     0.026290
     23 O                    -0.184129
     24 H                     0.084980
     25 H                     0.085297
     26 H                     0.084848
     27 H                     0.078164
     28 H                     0.074470
     29 H                     0.078270
     30 H                     0.073943
     31 H                     0.082642
     32 O                    -0.196583
     33 C                    -0.126059
     34 C                     0.025085
     35 C                    -0.142124
     36 C                    -0.145043
     37 C                     0.024360
     38 O                    -0.185371
     39 H                     0.086213
     40 H                     0.085138
     41 H                     0.092995
     42 H                     0.089586
     43 H                     0.079292
     44 H                     0.074016
     45 H                     0.079493
     46 H                     0.074078
     47 H                     0.082421
     48 H                     0.092611
     49 H                     0.097136
     50 H                     0.089036
     51 H                     0.088012
     52 H                     0.089892
     53 H                     0.089289
     54 H                     0.089791
     55 H                     0.087668
     56 H                     0.077269
  ----------------------------------------
  Sum of atomic charges =    -0.000000

 -----------------------------------------------------------------
                    Cartesian Multipole Moments
 -----------------------------------------------------------------
    Charge (ESU x 10^10)
                -0.0000
    Dipole Moment (Debye)
         X       0.0272      Y       0.6174      Z      -0.4528
       Tot       0.7661
    Quadrupole Moments (Debye-Ang)
        XX    -144.3529     XY       6.8703     YY    -160.5025
        XZ      14.0099     YZ       4.0789     ZZ    -158.5495
    Octopole Moments (Debye-Ang^2)
       XXX      96.5838    XXY       1.6643    XYY     -43.6228
       YYY      23.2919    XXZ     -35.7148    XYZ     -12.1601
       YYZ      21.4036    XZZ       1.4838    YZZ     -15.8785
       ZZZ      15.2699
    Hexadecapole Moments (Debye-Ang^3)
      XXXX  -16918.4464   XXXY     189.9081   XXYY   -3249.7555
      XYYY    -164.7772   YYYY   -2184.9697   XXXZ     234.2223
      XXYZ     -10.4028   XYYZ       1.2643   YYYZ      78.8463
      XXZZ   -3202.2268   XYZZ     -64.8191   YYZZ    -676.3064
      XZZZ    -123.0817   YZZZ      28.4872   ZZZZ   -1617.4452
 -----------------------------------------------------------------
 Calculating analytic gradient of the SCF energy
 Gradient of SCF Energy
            1           2           3           4           5           6
    1  -0.0018298   0.0017014   0.0005310  -0.0003108  -0.0028163   0.0054076
    2   0.0014837  -0.0013430  -0.0030008   0.0015869  -0.0020362   0.0044838
    3  -0.0023769   0.0013543   0.0035941  -0.0037306  -0.0023383   0.0048296
            7           8           9          10          11          12
    1  -0.0032007   0.0025042  -0.0053253   0.0011973   0.0016269  -0.0036709
    2  -0.0043638   0.0015188  -0.0001082  -0.0004010  -0.0000838   0.0056296
    3  -0.0014417   0.0057494  -0.0104454   0.0014123   0.0017910   0.0009920
           13          14          15          16          17          18
    1   0.0041835  -0.0023916   0.0007204   0.0005331   0.0009049   0.0003574
    2  -0.0053239   0.0026287   0.0000307  -0.0007648  -0.0020961  -0.0002225
    3   0.0019986  -0.0015895   0.0006891   0.0005732  -0.0025675   0.0002813
           19          20          21          22          23          24
    1   0.0002331   0.0002332  -0.0000195   0.0006829  -0.0000226   0.0000238
    2   0.0000969  -0.0003523  -0.0002785  -0.0000833   0.0001766   0.0001528
    3   0.0002442   0.0003403   0.0000037   0.0001776   0.0003331  -0.0002136
           25          26          27          28          29          30
    1  -0.0001989   0.0000050   0.0000821  -0.0000293  -0.0000219  -0.0001103
    2   0.0002775   0.0000027   0.0001189   0.0000992  -0.0000892   0.0002129
    3  -0.0001860  -0.0000034   0.0000112  -0.0001014  -0.0000352  -0.0001711
           31          32          33          34          35          36
    1   0.0001424  -0.0011767   0.0001596   0.0000372  -0.0001703   0.0000762
    2   0.0000348   0.0017663  -0.0000009   0.0000048  -0.0000800   0.0000903
    3   0.0000624   0.0005564  -0.0000042  -0.0003988   0.0002355  -0.0002133
           37          38          39          40          41          42
    1   0.0004122   0.0002921  -0.0002897  -0.0003413  -0.0000091   0.0000733
    2   0.0001447  -0.0002305   0.0000612   0.0002201   0.0000487   0.0000443
    3   0.0000007  -0.0002657   0.0001844   0.0000746  -0.0000437  -0.0000379
           43          44          45          46          47          48
    1   0.0000348  -0.0000402  -0.0000139  -0.0000593  -0.0001408  -0.0000282
    2  -0.0000546   0.0001251   0.0000311  -0.0000166  -0.0002065  -0.0000720
    3  -0.0000481  -0.0000813   0.0000255   0.0000085   0.0002058  -0.0000575
           49          50          51          52          53          54
    1  -0.0000014  -0.0000463  -0.0000495  -0.0001398  -0.0008463   0.0004247
    2   0.0000458   0.0000224   0.0000363  -0.0000992   0.0002024   0.0001254
    3   0.0000063  -0.0000388   0.0000678   0.0001050   0.0005029  -0.0002320
           55          56
    1   0.0002858   0.0004346
    2  -0.0005327   0.0003372
    3  -0.0004739   0.0006851
 Max gradient component =       1.045E-02
 RMS gradient           =       1.729E-03
 Gradient time:  CPU 30.28 s  wall 0.64 s
 Geometry Optimization Parameters
   NAtoms,    NIC,     NZ,  NCons,   NDum,   NFix, NCnnct, MaxDiis
       56     458       0       0       0       0       0       0

 Cartesian Hessian Update
 Hessian Updated using BFGS Update


** GEOMETRY OPTIMIZATION IN DELOCALIZED INTERNAL COORDINATES **
   Searching for a Minimum

   Optimization Cycle:   2

                       Coordinates (Angstroms)
     ATOM                X               Y               Z
      1  O        -6.0893862487    1.5177579092    1.1787477913
      2  C        -5.1632209419    1.2264260662    0.3934003518
      3  C        -5.0071742123   -0.0794640636   -0.4590561402
      4  C        -3.5562562621   -0.3285465959   -1.0375598108
      5  C        -2.4273441620    0.5034826853   -0.3023900590
      6  O        -1.6827194055    1.3760050443   -1.2245224288
      7  C        -0.4169299282    0.6810825472   -1.5533798534
      8  C         0.6840066779    1.0266873657   -0.4780138848
      9  O         1.9430763557    0.2926924659   -0.7488150511
     10  C         3.0007730318    1.1902746834   -1.1167730989
     11  C         4.3889291188    0.8406011315   -0.4604164361
     12  C         4.4373096836    0.1368291166    0.9603869388
     13  C         3.1858614894   -0.7046871123    1.4081844840
     14  O         2.6527707544   -1.6812536786    0.8426119816
     15  O        -4.1066443023    2.1265054048    0.0310448281
     16  O         2.7589459371   -0.1918556096    2.6812237999
     17  O         2.8351877008    2.1627275395   -1.8882321693
     18  C         1.6024479515   -0.9718128817    3.1798688322
     19  C         5.3359281206   -0.1249399148   -1.3175303649
     20  C         6.8221401931    0.3230099115   -1.0336280667
     21  C         6.9816304350   -0.1434445771    0.4613966355
     22  C         5.6156287471   -0.9040845463    0.6997860090
     23  O         5.2539233643   -1.4334810165   -0.6355115140
     24  H         4.8870712738    1.8242030310   -0.3780471620
     25  H         4.6686135911    0.8642695219    1.7579248213
     26  H         5.0605746753   -0.2209498135   -2.3856975217
     27  H         7.5175868268   -0.2135650868   -1.6990085779
     28  H         6.9685014514    1.4068636442   -1.1657854246
     29  H         7.8332056848   -0.8309314307    0.5852875607
     30  H         7.1065689704    0.7016615837    1.1573498132
     31  H         5.6637353898   -1.7265612272    1.4396764549
     32  O        -2.1178922988    0.3910479293    0.9020558887
     33  C        -4.1602354639    3.3636656681    0.8405184940
     34  C        -5.2757281619   -1.4340161426    0.3299156603
     35  C        -5.7234805315   -2.5105396046   -0.7331578350
     36  C        -4.3690042778   -2.7450500300   -1.5007404546
     37  C        -3.3707541594   -1.8608260923   -0.6502187049
     38  O        -3.9266443543   -1.9022663236    0.7220174039
     39  H        -5.7335917668    0.0104356436   -1.2895204017
     40  H        -3.5016741172   -0.1365840412   -2.1226752468
     41  H        -3.9819415748    3.1502596998    1.9141778052
     42  H        -5.9305557342   -1.3281407869    1.2167503539
     43  H        -6.0617936908   -3.4291120519   -0.2274236037
     44  H        -6.5314897000   -2.1468542055   -1.3879250766
     45  H        -4.0650338160   -3.8033738432   -1.4773408030
     46  H        -4.4153916899   -2.4143472363   -2.5508451659
     47  H        -2.3206242658   -2.2120101498   -0.6478993635
     48  H        -5.1407315817    3.8710599013    0.7351345361
     49  H        -3.3558056228    4.0152665541    0.4528874684
     50  H         1.3598930187   -0.5574275173    4.1755777477
     51  H         1.8445008074   -2.0499424037    3.2744350037
     52  H         0.7201061643   -0.8689373552    2.5147468341
     53  H         0.8368306265    2.1253834675   -0.4613531469
     54  H         0.3233987453    0.6966263503    0.5207370651
     55  H        -0.0927680240    1.0565178206   -2.5471992421
     56  H        -0.5302581600   -0.4223382105   -1.6199824417
   Point Group: c1    Number of degrees of freedom:   162


   Energy is  -1510.244376331

 Hessian Updated using BFGS Update

148 Hessian modes will be used to form the next step
  Hessian Eigenvalues:
     0.001617    0.002032    0.002696    0.002745    0.003083    0.003744
     0.004212    0.004706    0.004765    0.004898    0.005151    0.005499
     0.006697    0.006796    0.006848    0.010483    0.011093    0.018677
     0.021609    0.022868    0.025716    0.029774    0.030676    0.030899
     0.034962    0.035218    0.037937    0.039473    0.042132    0.042425
     0.042739    0.045264    0.046802    0.047918    0.048131    0.048968
     0.051064    0.051281    0.053440    0.054664    0.055365    0.055907
     0.056210    0.056481    0.058291    0.058423    0.059487    0.060294
     0.060450    0.062476    0.063112    0.063367    0.064398    0.064491
     0.069890    0.070180    0.073168    0.073632    0.091510    0.091887
     0.092967    0.093489    0.096387    0.096676    0.097382    0.098496
     0.102428    0.103020    0.110384    0.110926    0.111150    0.113818
     0.122382    0.126735    0.136202    0.137901    0.157723    0.159959
     0.159998    0.161030    0.163848    0.169461    0.217474    0.218219
     0.220581    0.220950    0.228741    0.229507    0.238357    0.238792
     0.238962    0.239374    0.240445    0.244788    0.248471    0.248598
     0.249465    0.249887    0.250004    0.252947    0.253057    0.254571
     0.255919    0.257796    0.262298    0.292428    0.293699    0.306899
     0.307644    0.322331    0.324272    0.325045    0.326268    0.326593
     0.326977    0.327016    0.327054    0.328627    0.328731    0.328911
     0.328914    0.329178    0.330481    0.330755    0.330889    0.330964
     0.332932    0.333233    0.334693    0.334702    0.334715    0.334815
     0.334871    0.335094    0.335278    0.335448    0.343044    0.344540
     0.345078    0.346563    0.356357    0.399645    0.403295    0.406280
     0.824044    0.836823    0.837360    0.839546

 Minimum Search - Taking Simple RFO Step
 Searching for Lamda that Minimizes Along All modes
 Value Taken    Lamda =  -0.01691602
 Calculated Step too Large.  Step scaled by  0.329383
 Step Taken.  Stepsize is  0.300000

                             Maximum     Tolerance    Cnvgd?
         Gradient           0.006765      0.000300      NO
         Displacement       0.078957      0.001200      NO
         Energy change     -0.005552      0.000001      NO


 New Cartesian Coordinates Obtained by Inverse Iteration

 Displacement from previous Coordinates is:  2.517674
 Adding empirical dispersion correction 
 ----------------------------------------------------------------
 Doing -D3(op) with
 s6 =   1.00000
 s8 =   0.78311
 a1 =   0.30000
 a2 =   4.25000
 n  =  10.00000
 -D3 energy without 3body term =     -0.0664622591 hartrees
 ----------------------------------------------------------------
             Standard Nuclear Orientation (Angstroms)
    I     Atom           X                Y                Z
 ----------------------------------------------------------------
    1      O      -6.0823947372     1.5536678875     1.0875855634
    2      C      -5.1659152402     1.2484548101     0.2962961304
    3      C      -4.9825895008    -0.0997913355    -0.4816812153
    4      C      -3.5220863643    -0.3597804208    -1.0322014933
    5      C      -2.4127115693     0.5353246618    -0.3434123760
    6      O      -1.6925261496     1.3795201766    -1.3094357392
    7      C      -0.3790393060     0.7396566796    -1.5510563015
    8      C       0.6423014352     1.1506372548    -0.4211947887
    9      O       1.9357677421     0.4474457027    -0.5938553623
   10      C       2.9954304630     1.3642647725    -0.9000928851
   11      C       4.3909427222     0.9059255855    -0.3388676710
   12      C       4.4501937988     0.0441713842     0.9889923498
   13      C       3.1656790719    -0.7761781147     1.3772937172
   14      O       2.5871091355    -1.6780982168     0.7371483528
   15      O      -4.1398807637     2.1550566878    -0.1307701338
   16      O       2.7685336677    -0.3528310945     2.6919967120
   17      O       2.8289578123     2.4143379644    -1.5619260504
   18      C       1.5711779929    -1.1092839289     3.1260921059
   19      C       5.2720731597     0.0067653622    -1.3285574189
   20      C       6.7829799547     0.3610415507    -1.0436192246
   21      C       6.9637999425    -0.2791899213     0.3839480101
   22      C       5.5733785690    -1.0079931949     0.5793123476
   23      O       5.1536222443    -1.3670202724    -0.7953307181
   24      H       4.9284127381     1.8561676699    -0.1647953106
   25      H       4.7306753566     0.6719960374     1.8525676690
   26      H       4.9631434191     0.0425802676    -2.3912310024
   27      H       7.4362707178    -0.1233618460    -1.7871888410
   28      H       6.9717508978     1.4462316154    -1.0572871196
   29      H       7.7884254993    -1.0090470575     0.4022255056
   30      H       7.1438845188     0.4751050466     1.1666951653
   31      H       5.6051193008    -1.9101275213     1.2207259680
   32      O      -2.0991392353     0.4908027390     0.8643502845
   33      C      -4.2126347275     3.4301929153     0.6159622476
   34      C      -5.2290648310    -1.4092017069     0.3885085326
   35      C      -5.6507653109    -2.5578868819    -0.6080166295
   36      C      -4.2878489708    -2.8146766811    -1.3528204513
   37      C      -3.3112045637    -1.8618623592    -0.5532213803
   38      O      -3.8745995988    -1.8280896856     0.8160328266
   39      H      -5.7085839721    -0.0749537684    -1.3169445360
   40      H      -3.4643494711    -0.2306914850    -2.1264617761
   41      H      -4.0106700628     3.2763101590     1.6956382426
   42      H      -5.8908740000    -1.2614749473     1.2641847720
   43      H      -5.9754348074    -3.4493385332    -0.0477675158
   44      H      -6.4613986366    -2.2506682631    -1.2877004757
   45      H      -3.9648449274    -3.8638045156    -1.2627303830
   46      H      -4.3335620867    -2.5500569891    -2.4215235672
   47      H      -2.2546061991    -2.1920812934    -0.5245643932
   48      H      -5.2076363371     3.9068249788     0.5030519068
   49      H      -3.4321247950     4.0812041954     0.1813487535
   50      H       1.3520675105    -0.7719847273     4.1557681208
   51      H       1.7536175333    -2.2031965153     3.1235513740
   52      H       0.6961010369    -0.8994586531     2.4767654136
   53      H       0.7618741673     2.2534834332    -0.4219890738
   54      H       0.2294192321     0.8305147177     0.5607500241
   55      H      -0.0186308564     1.0978880642    -2.5384608306
   56      H      -0.4435202873    -0.3694432521    -1.5868919191
 ----------------------------------------------------------------
 Molecular Point Group                 C1    NOp =  1
 Largest Abelian Subgroup              C1    NOp =  1
 Nuclear Repulsion Energy =  3075.1419108620 hartrees
 There are      113 alpha and      113 beta electrons
 Applying Cartesian multipole field
    Component          Value
    ---------          -----
     (2,0,0)        1.00000E-12
     (0,2,0)        2.00000E-11
     (0,0,2)       -3.00000E-11
 Nucleus-field energy     =     0.0000000159 hartrees
 Requested basis set is STO-3G
 There are 86 shells and 176 basis functions
 A cutoff of  1.0D-12 yielded   2082 shell pairs
 There are      9675 function pairs
 Smallest overlap matrix eigenvalue = 2.13E-01
 Guess MOs from SCF MO coefficient file
 Reading MOs from coefficient file
 Reading MOs from coefficient file
 A restricted hybrid HF-DFT SCF calculation will be
 performed using Pulay DIIS extrapolation
 Exchange:     0.2000 Hartree-Fock + 0.0800 Slater + 0.7200 B88
 Correlation:  0.1900 VWN1RPA + 0.8100 LYP
 Using SG-1 standard quadrature grid
 Dispersion:   Grimme D3
 SCF converges when DIIS error is below 1.0E-08
 Geometry optimization detected.  Setting ReadMinima to 0
 Setting SaveMinima to 0
 using 48 threads for integral computing
 -------------------------------------------------------
 OpenMP Integral computing Module                
 Release: version 1.0, May 2013, Q-Chem Inc. Pittsburgh 
 -------------------------------------------------------
 -------------------------------------------------------
 OpenMP BLAS3 based DFT computing Module                
 Release: version 1.0, May 2013, Q-Chem Inc. Pittsburgh 
 -------------------------------------------------------
 ---------------------------------------
  Cycle       Energy         DIIS Error
 ---------------------------------------
    1   -1510.1404658648      4.69E-03
    2   -1510.2481164060      4.12E-04
    3   -1510.2483397736      4.76E-04
    4   -1510.2491962661      2.23E-04
    5   -1510.2493870688      7.84E-05
    6   -1510.2494130275      2.22E-05
    7   -1510.2494152462      7.03E-06
    8   -1510.2494154251      3.23E-06
    9   -1510.2494154725      5.03E-07
   10   -1510.2494154738      3.03E-07
   11   -1510.2494154742      1.54E-07
   12   -1510.2494154743      4.01E-08
   13   -1510.2494154743      1.09E-08
   14   -1510.2494154744      3.98E-09 Convergence criterion met
 ---------------------------------------
 SCF time:  CPU 101.41 s  wall 2.12 s
 SCF   energy in the final basis set = -1510.24941547
 Total energy in the final basis set = -1510.24941547
 
 --------------------------------------------------------------
 
                    Orbital Energies (a.u.)
 --------------------------------------------------------------
 
 Alpha MOs
 -- Occupied --
-18.947 -18.926 -18.924 -18.894 -18.891 -18.888 -18.888 -18.884
-18.875 -18.866 -10.107 -10.104 -10.100 -10.090 -10.069 -10.065
-10.064 -10.062 -10.061 -10.060 -10.059 -10.056 -10.042 -10.037
-10.037 -10.034 -10.023 -10.022 -10.020 -10.019  -1.020  -1.009
 -1.000  -0.998  -0.973  -0.970  -0.944  -0.936  -0.928  -0.924
 -0.766  -0.761  -0.726  -0.722  -0.708  -0.705  -0.691  -0.666
 -0.657  -0.608  -0.598  -0.583  -0.549  -0.544  -0.540  -0.537
 -0.515  -0.511  -0.485  -0.474  -0.461  -0.457  -0.452  -0.441
 -0.437  -0.432  -0.425  -0.417  -0.413  -0.405  -0.404  -0.393
 -0.389  -0.381  -0.379  -0.365  -0.362  -0.357  -0.353  -0.349
 -0.338  -0.336  -0.334  -0.333  -0.329  -0.327  -0.324  -0.316
 -0.309  -0.309  -0.306  -0.301  -0.297  -0.293  -0.284  -0.278
 -0.270  -0.260  -0.248  -0.242  -0.237  -0.234  -0.232  -0.183
 -0.177  -0.168  -0.163  -0.154  -0.152  -0.146  -0.144  -0.142
 -0.139
 -- Virtual --
  0.081   0.091   0.098   0.110   0.215   0.232   0.245   0.252
  0.263   0.276   0.279   0.282   0.302   0.316   0.324   0.325
  0.335   0.340   0.344   0.352   0.354   0.362   0.371   0.372
  0.377   0.380   0.381   0.394   0.396   0.398   0.401   0.406
  0.414   0.417   0.418   0.419   0.421   0.422   0.428   0.432
  0.436   0.437   0.440   0.442   0.443   0.448   0.452   0.465
  0.467   0.472   0.486   0.491   0.493   0.504   0.507   0.537
  0.540   0.549   0.552   0.629   0.634   0.637   0.665
 --------------------------------------------------------------
 
          Ground-State Mulliken Net Atomic Charges

     Atom                 Charge (a.u.)
  ----------------------------------------
      1 O                    -0.208135
      2 C                     0.213501
      3 C                    -0.079588
      4 C                    -0.080624
      5 C                     0.226387
      6 O                    -0.193916
      7 C                    -0.050706
      8 C                    -0.053775
      9 O                    -0.173784
     10 C                     0.208186
     11 C                    -0.080453
     12 C                    -0.079431
     13 C                     0.212198
     14 O                    -0.205440
     15 O                    -0.164559
     16 O                    -0.174246
     17 O                    -0.211298
     18 C                    -0.129745
     19 C                     0.026673
     20 C                    -0.141928
     21 C                    -0.145516
     22 C                     0.026159
     23 O                    -0.184359
     24 H                     0.085191
     25 H                     0.085231
     26 H                     0.084650
     27 H                     0.078132
     28 H                     0.074550
     29 H                     0.078175
     30 H                     0.073983
     31 H                     0.082871
     32 O                    -0.196759
     33 C                    -0.126189
     34 C                     0.025040
     35 C                    -0.142241
     36 C                    -0.144996
     37 C                     0.024381
     38 O                    -0.185519
     39 H                     0.086241
     40 H                     0.085417
     41 H                     0.092920
     42 H                     0.089582
     43 H                     0.079238
     44 H                     0.073969
     45 H                     0.079528
     46 H                     0.074192
     47 H                     0.082787
     48 H                     0.092486
     49 H                     0.097082
     50 H                     0.088904
     51 H                     0.087855
     52 H                     0.089621
     53 H                     0.091741
     54 H                     0.091134
     55 H                     0.087867
     56 H                     0.077339
  ----------------------------------------
  Sum of atomic charges =    -0.000000

 -----------------------------------------------------------------
                    Cartesian Multipole Moments
 -----------------------------------------------------------------
    Charge (ESU x 10^10)
                 0.0000
    Dipole Moment (Debye)
         X       0.0491      Y       0.2227      Z      -0.5000
       Tot       0.5495
    Quadrupole Moments (Debye-Ang)
        XX    -144.1828     XY       6.0428     YY    -160.1365
        XZ      13.7409     YZ       3.1001     ZZ    -158.8564
    Octopole Moments (Debye-Ang^2)
       XXX      99.3448    XXY      -6.3144    XYY     -44.9105
       YYY      10.7539    XXZ     -34.1910    XYZ     -12.1195
       YYZ      22.0029    XZZ       2.6299    YZZ     -15.3994
       ZZZ       9.3303
    Hexadecapole Moments (Debye-Ang^3)
      XXXX  -16704.4574   XXXY     188.7182   XXYY   -3223.2465
      XYYY    -172.3823   YYYY   -2318.9188   XXXZ     225.2647
      XXYZ      -1.4786   XYYZ       9.9129   YYYZ     123.3715
      XXZZ   -3158.0674   XYZZ     -39.6621   YYZZ    -680.5153
      XZZZ    -137.8643   YZZZ      73.9060   ZZZZ   -1505.9804
 -----------------------------------------------------------------
 Calculating analytic gradient of the SCF energy
 Gradient of SCF Energy
            1           2           3           4           5           6
    1  -0.0014913   0.0010657   0.0003964   0.0001892  -0.0019531   0.0050868
    2   0.0011048  -0.0008133  -0.0017626  -0.0001955  -0.0027271   0.0051776
    3  -0.0020560   0.0005616   0.0020685  -0.0023777  -0.0011284   0.0056361
            7           8           9          10          11          12
    1  -0.0032185   0.0020640  -0.0049006   0.0010875   0.0020648  -0.0030109
    2  -0.0028180   0.0015492  -0.0031557   0.0009160   0.0005500   0.0043659
    3  -0.0036445   0.0046522  -0.0083814   0.0034171   0.0012660   0.0002383
           13          14          15          16          17          18
    1   0.0032666  -0.0026651   0.0000189   0.0007618   0.0013612   0.0002591
    2  -0.0043443   0.0034208   0.0006147  -0.0009133  -0.0018704  -0.0002400
    3   0.0010390  -0.0019558   0.0007244   0.0006360  -0.0030539   0.0001927
           19          20          21          22          23          24
    1   0.0003356   0.0003670   0.0000243   0.0004850   0.0002299  -0.0000156
    2   0.0000477  -0.0000001  -0.0001361  -0.0004363  -0.0000600  -0.0000063
    3  -0.0000081  -0.0002581   0.0001610   0.0002742   0.0008110   0.0000823
           25          26          27          28          29          30
    1  -0.0005602  -0.0000673   0.0000643  -0.0001722  -0.0000875   0.0002340
    2   0.0007180   0.0000076   0.0000668   0.0000415  -0.0000026  -0.0000638
    3  -0.0005258   0.0000928  -0.0000303  -0.0000214  -0.0000162   0.0000670
           31          32          33          34          35          36
    1   0.0002369  -0.0010337   0.0002322   0.0006976  -0.0001980   0.0000316
    2  -0.0000864   0.0017188  -0.0000094   0.0004464  -0.0003487  -0.0000967
    3   0.0001264  -0.0003819  -0.0000170  -0.0002082  -0.0001974  -0.0001340
           37          38          39          40          41          42
    1   0.0002081   0.0004826  -0.0009527  -0.0006302  -0.0000071   0.0000898
    2   0.0000129  -0.0002918   0.0000674   0.0003594   0.0000538  -0.0000519
    3   0.0000344  -0.0004257   0.0005643   0.0001064  -0.0000335   0.0000479
           43          44          45          46          47          48
    1   0.0000364   0.0000755   0.0000259  -0.0000591  -0.0001046  -0.0000626
    2  -0.0000651   0.0001220  -0.0000335   0.0000902  -0.0002121  -0.0000391
    3  -0.0000807   0.0001881   0.0000264  -0.0000191   0.0002309  -0.0000663
           49          50          51          52          53          54
    1  -0.0000096  -0.0000284  -0.0000267  -0.0000950  -0.0019078   0.0007980
    2   0.0000070   0.0000352   0.0000126  -0.0000451   0.0001652  -0.0000967
    3  -0.0000081  -0.0000342   0.0000489   0.0000646   0.0009534   0.0001653
           55          56
    1   0.0005466   0.0004347
    2  -0.0012501   0.0005005
    3  -0.0008102   0.0013963
 Max gradient component =       8.381E-03
 RMS gradient           =       1.588E-03
 Gradient time:  CPU 30.29 s  wall 0.64 s
 Geometry Optimization Parameters
   NAtoms,    NIC,     NZ,  NCons,   NDum,   NFix, NCnnct, MaxDiis
       56     458       0       0       0       0       0       0

 Cartesian Hessian Update
 Hessian Updated using BFGS Update


** GEOMETRY OPTIMIZATION IN DELOCALIZED INTERNAL COORDINATES **
   Searching for a Minimum

   Optimization Cycle:   3

                       Coordinates (Angstroms)
     ATOM                X               Y               Z
      1  O        -6.0823947372    1.5536678875    1.0875855634
      2  C        -5.1659152402    1.2484548101    0.2962961304
      3  C        -4.9825895008   -0.0997913355   -0.4816812153
      4  C        -3.5220863643   -0.3597804208   -1.0322014933
      5  C        -2.4127115693    0.5353246618   -0.3434123760
      6  O        -1.6925261496    1.3795201766   -1.3094357392
      7  C        -0.3790393060    0.7396566796   -1.5510563015
      8  C         0.6423014352    1.1506372548   -0.4211947887
      9  O         1.9357677421    0.4474457027   -0.5938553623
     10  C         2.9954304630    1.3642647725   -0.9000928851
     11  C         4.3909427222    0.9059255855   -0.3388676710
     12  C         4.4501937988    0.0441713842    0.9889923498
     13  C         3.1656790719   -0.7761781147    1.3772937172
     14  O         2.5871091355   -1.6780982168    0.7371483528
     15  O        -4.1398807637    2.1550566878   -0.1307701338
     16  O         2.7685336677   -0.3528310945    2.6919967120
     17  O         2.8289578123    2.4143379644   -1.5619260504
     18  C         1.5711779929   -1.1092839289    3.1260921059
     19  C         5.2720731597    0.0067653622   -1.3285574189
     20  C         6.7829799547    0.3610415507   -1.0436192246
     21  C         6.9637999425   -0.2791899213    0.3839480101
     22  C         5.5733785690   -1.0079931949    0.5793123476
     23  O         5.1536222443   -1.3670202724   -0.7953307181
     24  H         4.9284127381    1.8561676699   -0.1647953106
     25  H         4.7306753566    0.6719960374    1.8525676690
     26  H         4.9631434191    0.0425802676   -2.3912310024
     27  H         7.4362707178   -0.1233618460   -1.7871888410
     28  H         6.9717508978    1.4462316154   -1.0572871196
     29  H         7.7884254993   -1.0090470575    0.4022255056
     30  H         7.1438845188    0.4751050466    1.1666951653
     31  H         5.6051193008   -1.9101275213    1.2207259680
     32  O        -2.0991392353    0.4908027390    0.8643502845
     33  C        -4.2126347275    3.4301929153    0.6159622476
     34  C        -5.2290648310   -1.4092017069    0.3885085326
     35  C        -5.6507653109   -2.5578868819   -0.6080166295
     36  C        -4.2878489708   -2.8146766811   -1.3528204513
     37  C        -3.3112045637   -1.8618623592   -0.5532213803
     38  O        -3.8745995988   -1.8280896856    0.8160328266
     39  H        -5.7085839721   -0.0749537684   -1.3169445360
     40  H        -3.4643494711   -0.2306914850   -2.1264617761
     41  H        -4.0106700628    3.2763101590    1.6956382426
     42  H        -5.8908740000   -1.2614749473    1.2641847720
     43  H        -5.9754348074   -3.4493385332   -0.0477675158
     44  H        -6.4613986366   -2.2506682631   -1.2877004757
     45  H        -3.9648449274   -3.8638045156   -1.2627303830
     46  H        -4.3335620867   -2.5500569891   -2.4215235672
     47  H        -2.2546061991   -2.1920812934   -0.5245643932
     48  H        -5.2076363371    3.9068249788    0.5030519068
     49  H        -3.4321247950    4.0812041954    0.1813487535
     50  H         1.3520675105   -0.7719847273    4.1557681208
     51  H         1.7536175333   -2.2031965153    3.1235513740
     52  H         0.6961010369   -0.8994586531    2.4767654136
     53  H         0.7618741673    2.2534834332   -0.4219890738
     54  H         0.2294192321    0.8305147177    0.5607500241
     55  H        -0.0186308564    1.0978880642   -2.5384608306
     56  H        -0.4435202873   -0.3694432521   -1.5868919191
   Point Group: c1    Number of degrees of freedom:   162


   Energy is  -1510.249415474

 Hessian Updated using BFGS Update

151 Hessian modes will be used to form the next step
  Hessian Eigenvalues:
     0.001279    0.002013    0.002191    0.002653    0.002809    0.003524
     0.003734    0.004457    0.004748    0.004898    0.004945    0.005151
     0.005590    0.006767    0.006811    0.010084    0.011086    0.012163
     0.021460    0.022075    0.023759    0.025741    0.028960    0.030671
     0.031145    0.034819    0.035650    0.038768    0.039421    0.042141
     0.042475    0.043503    0.045138    0.047793    0.048000    0.048626
     0.050875    0.051231    0.052037    0.054413    0.054794    0.055412
     0.055907    0.056209    0.056540    0.058239    0.059083    0.059748
     0.060256    0.062141    0.062308    0.063189    0.063367    0.064406
     0.064507    0.069894    0.070187    0.073405    0.073699    0.091707
     0.092110    0.093174    0.093489    0.096389    0.097025    0.097386
     0.099284    0.102429    0.103021    0.110320    0.111149    0.112653
     0.114067    0.122379    0.131337    0.136202    0.140485    0.157722
     0.159993    0.159997    0.160018    0.161939    0.165821    0.174797
     0.217198    0.219053    0.220842    0.221170    0.229051    0.232215
     0.238351    0.238916    0.239355    0.239510    0.241897    0.244782
     0.248473    0.248622    0.249325    0.249833    0.250003    0.252946
     0.252981    0.254485    0.255786    0.257338    0.259191    0.262890
     0.292993    0.294362    0.305066    0.307470    0.323330    0.324791
     0.325311    0.326268    0.326559    0.326982    0.327017    0.327058
     0.328708    0.328873    0.328913    0.328931    0.329166    0.330451
     0.330872    0.330890    0.331966    0.332744    0.333217    0.334701
     0.334711    0.334727    0.334798    0.334815    0.335186    0.335238
     0.335382    0.343657    0.344536    0.345543    0.346759    0.355508
     0.399651    0.404154    0.409947    0.824036    0.836820    0.838012
     0.839520

 Minimum Search - Taking Simple RFO Step
 Searching for Lamda that Minimizes Along All modes
 Value Taken    Lamda =  -0.01426340
 Calculated Step too Large.  Step scaled by  0.327719
 Step Taken.  Stepsize is  0.300000

                             Maximum     Tolerance    Cnvgd?
         Gradient           0.004698      0.000300      NO
         Displacement       0.088600      0.001200      NO
         Energy change     -0.005039      0.000001      NO


 New Cartesian Coordinates Obtained by Inverse Iteration

 Displacement from previous Coordinates is:  1.505636
 Adding empirical dispersion correction 
 ----------------------------------------------------------------
 Doing -D3(op) with
 s6 =   1.00000
 s8 =   0.78311
 a1 =   0.30000
 a2 =   4.25000
 n  =  10.00000
 -D3 energy without 3body term =     -0.0663254331 hartrees
 ----------------------------------------------------------------
             Standard Nuclear Orientation (Angstroms)
    I     Atom           X                Y                Z
 ----------------------------------------------------------------
    1      O      -5.9993589119     1.5998981178     1.0628886899
    2      C      -5.1162655089     1.2628461748     0.2470247816
    3      C      -4.9801534144    -0.1035123073    -0.5077943661
    4      C      -3.5307906496    -0.4145466923    -1.0606076442
    5      C      -2.4001665726     0.4828550718    -0.4133569093
    6      O      -1.6848852835     1.2869700368    -1.4150716188
    7      C      -0.3315382207     0.7023728962    -1.5551967228
    8      C       0.6095619653     1.2061794196    -0.3937339688
    9      O       1.9302922341     0.5372940694    -0.4583416640
   10      C       2.9800817160     1.4653553562    -0.7499769539
   11      C       4.3816269527     0.9586540270    -0.2556414309
   12      C       4.4626279404     0.0172455167     1.0157110313
   13      C       3.1727777579    -0.8017624181     1.3892747475
   14      O       2.5965950057    -1.6972025900     0.7377446746
   15      O      -4.0728529647     2.1319989266    -0.2133464788
   16      O       2.7803545865    -0.4037755755     2.7130172960
   17      O       2.7986796492     2.5568514100    -1.3367573975
   18      C       1.5765382645    -1.1598390103     3.1293117982
   19      C       5.2232568779     0.1083214232    -1.3197038609
   20      C       6.7452692145     0.4266742772    -1.0535593684
   21      C       6.9534723022    -0.2977464922     0.3295014592
   22      C       5.5595920119    -1.0218670926     0.5176850221
   23      O       5.0999805414    -1.2932327496    -0.8651574579
   24      H       4.9376438479     1.8894854458    -0.0401356471
   25      H       4.7699687977     0.5936884736     1.9056895502
   26      H       4.8877637305     0.2104064794    -2.3700095985
   27      H       7.3731121988    -0.0215629195    -1.8404366176
   28      H       6.9488633519     1.5083199975    -1.0089059390
   29      H       7.7695653274    -1.0360421216     0.2847947472
   30      H       7.1612645092     0.4079936586     1.1497062174
   31      H       5.5946714074    -1.9605473294     1.1038971256
   32      O      -2.0782802857     0.4773841165     0.7932776692
   33      C      -4.0890715607     3.4152430108     0.5229526664
   34      C      -5.2496952646    -1.3830582391     0.4004184985
   35      C      -5.7017338825    -2.5511080522    -0.5593816106
   36      C      -4.3487471258    -2.8602858859    -1.3023449522
   37      C      -3.3474990331    -1.9047853369    -0.5374768044
   38      O      -3.9021466847    -1.8178439547     0.8332810439
   39      H      -5.7132165928    -0.0825414539    -1.3367080588
   40      H      -3.4792335468    -0.3202520916    -2.1588288086
   41      H      -3.8666283689     3.2640047640     1.5990297987
   42      H      -5.9023316146    -1.1952882358     1.2753560022
   43      H      -6.0425855772    -3.4178321446     0.0293195815
   44      H      -6.5092369585    -2.2474718470    -1.2444522971
   45      H      -4.0476556204    -3.9128662728    -1.1818724237
   46      H      -4.3946979224    -2.6277366379    -2.3784380250
   47      H      -2.2974604890    -2.2552395629    -0.5059040477
   48      H      -5.0711146425     3.9218630629     0.4291225451
   49      H      -3.2991406620     4.0379183872     0.0645287115
   50      H       1.3600434998    -0.8453989818     4.1667630015
   51      H       1.7496034726    -2.2549179801     3.1004330993
   52      H       0.7039685570    -0.9268149790     2.4846085360
   53      H       0.7016748877     2.3104673935    -0.4451759503
   54      H       0.1484610075     0.9200718168     0.5774362830
   55      H       0.0624084039     1.0282665507    -2.5403957618
   56      H      -0.3491603290    -0.4095517886    -1.5388666799
 ----------------------------------------------------------------
 Molecular Point Group                 C1    NOp =  1
 Largest Abelian Subgroup              C1    NOp =  1
 Nuclear Repulsion Energy =  3078.8577963779 hartrees
 There are      113 alpha and      113 beta electrons
 Applying Cartesian multipole field
    Component          Value
    ---------          -----
     (2,0,0)        1.00000E-12
     (0,2,0)        2.00000E-11
     (0,0,2)       -3.00000E-11
 Nucleus-field energy     =     0.0000000173 hartrees
 Requested basis set is STO-3G
 There are 86 shells and 176 basis functions
 A cutoff of  1.0D-12 yielded   2088 shell pairs
 There are      9714 function pairs
 Smallest overlap matrix eigenvalue = 2.13E-01
 Guess MOs from SCF MO coefficient file
 Reading MOs from coefficient file
 Reading MOs from coefficient file
 A restricted hybrid HF-DFT SCF calculation will be
 performed using Pulay DIIS extrapolation
[...]
      7  C         0.3032496956   -1.2277104289   -1.6518497350
      8  C         0.6069878701    0.2970734805   -1.4394936421
      9  O         1.9782054389    0.3888958134   -0.8885723109
     10  C         2.2241225121    1.6534261920   -0.2727032183
     11  C         3.7027582120    1.6380975901    0.2369080497
     12  C         4.0558676613    0.3253965781    1.0542287741
     13  C         2.8232231374   -0.6155288797    1.3180758244
     14  O         2.7217454348   -1.8321132318    1.0522646200
     15  O        -2.0696042893    1.3769958036    0.0717394701
     16  O         1.8341887106    0.1567476539    2.0043762453
     17  O         1.3961482876    2.5901549561   -0.2009127118
     18  C         0.6811759815   -0.6926283830    2.3919584545
     19  C         4.7169495129    1.4957171817   -0.9825932972
     20  C         6.1819499106    1.7683749392   -0.4552470964
     21  C         6.4966673273    0.4178998151    0.2907210097
     22  C         5.1308750357   -0.3507809024    0.1080000845
     23  O         4.7032125792    0.0421084021   -1.2557259328
     24  H         3.8770258007    2.5561637056    0.8246272109
     25  H         4.4946199452    0.5912220985    2.0335947063
     26  H         4.4284583378    2.0646273557   -1.8878739885
     27  H         6.8694789928    1.9359575143   -1.2994489905
     28  H         6.2245247907    2.6437329699    0.2126082933
     29  H         7.3164745410   -0.1304482719   -0.2003996478
     30  H         6.7553353471    0.5660880583    1.3511257840
     31  H         5.1743684954   -1.4539121194    0.1959774218
     32  O        -1.4118882989   -1.4376295229    0.4243947533
     33  C        -1.3011301459    2.2174110902    1.0277139813
     34  C        -5.2428659659   -0.7693019969    0.4838731707
     35  C        -6.3695082617   -1.1575689264   -0.5507973540
     36  C        -5.6823923981   -2.3504742824   -1.3155491034
     37  C        -4.2847009953   -2.4157031883   -0.5813602265
     38  O        -4.6074762401   -2.0656259738    0.8176567869
     39  H        -4.5031992553    0.7559752513   -0.9875268504
     40  H        -3.4910219300   -1.0401740023   -2.1730174282
     41  H        -1.1089976164    1.6705537851    1.9709316340
     42  H        -5.5817852094   -0.2593882142    1.4063059302
     43  H        -7.2809438114   -1.4852576318   -0.0262221777
     44  H        -6.6263639484   -0.3176813765   -1.2158161993
     45  H        -6.2346177446   -3.2933475761   -1.1740144432
     46  H        -5.5760664029   -2.1611064339   -2.3956255699
     47  H        -3.7695915213   -3.3948102220   -0.6292576193
     48  H        -1.8593541687    3.1450856638    1.2656497508
     49  H        -0.3377272866    2.4653949916    0.5283069349
     50  H         0.1162525520   -0.1099808066    3.1424951672
     51  H         1.0225619995   -1.6441095282    2.8451439593
     52  H         0.0135485266   -0.9259825346    1.5294935482
     53  H         0.5399109470    0.8463615827   -2.4035096404
     54  H        -0.1529495645    0.7215089882   -0.7474894398
     55  H         0.8434897563   -1.6286144591   -2.5315663676
     56  H         0.5979343503   -1.7952370457   -0.7427706031
   Point Group: c1    Number of degrees of freedom:   162


   Energy is  -1510.298768651

 Hessian Updated using BFGS Update

162 Hessian modes will be used to form the next step
  Hessian Eigenvalues:
     0.001372    0.002810    0.002935    0.004168    0.005156    0.005425
     0.006201    0.006643    0.008661    0.010396    0.012546    0.015704
     0.018896    0.021640    0.022014    0.022249    0.026568    0.026772
     0.029162    0.030091    0.031671    0.031822    0.033369    0.035732
     0.036191    0.039678    0.041130    0.042100    0.042811    0.043000
     0.045137    0.047096    0.048725    0.050315    0.051375    0.051880
     0.052649    0.054953    0.055786    0.055930    0.056442    0.057034
     0.057388    0.058237    0.059026    0.059945    0.062050    0.062631
     0.063474    0.063654    0.064265    0.064586    0.066505    0.068791
     0.070190    0.071848    0.073377    0.074001    0.081087    0.089053
     0.092732    0.092967    0.095032    0.097289    0.100390    0.101909
     0.103746    0.106777    0.107889    0.108406    0.112155    0.113715
     0.117135    0.129134    0.137577    0.142806    0.148029    0.156330
     0.159952    0.160428    0.160869    0.162662    0.163773    0.164984
     0.170488    0.175222    0.179276    0.205287    0.217425    0.221049
     0.229777    0.233187    0.237062    0.237510    0.238546    0.239720
     0.241941    0.242964    0.245796    0.247118    0.248883    0.249661
     0.252816    0.252966    0.253914    0.255352    0.258467    0.259394
     0.262375    0.268258    0.280214    0.289376    0.291614    0.294751
     0.303138    0.304447    0.307329    0.315365    0.322226    0.325048
     0.326342    0.326709    0.326979    0.327213    0.327417    0.327944
     0.328751    0.328890    0.328986    0.329179    0.329450    0.330454
     0.330774    0.332516    0.333298    0.333799    0.334737    0.334793
     0.334910    0.334986    0.335048    0.335166    0.335272    0.335972
     0.343993    0.349136    0.357136    0.366246    0.382332    0.408126
     0.414791    0.425456    0.436346    0.503320    0.653519    0.829113
     0.834885    0.838272    0.857977    1.140456    2.047182    2.557331

 Minimum Search - Taking Simple RFO Step
 Searching for Lamda that Minimizes Along All modes
 Value Taken    Lamda =   0.00000000
 Step Taken.  Stepsize is  0.006575

                             Maximum     Tolerance    Cnvgd?
         Gradient           0.000181      0.000300     YES
         Displacement       0.002253      0.001200      NO
         Energy change     -0.000000      0.000001     YES

 Final energy is   -1510.29876865087     


 ******************************
 **  OPTIMIZATION CONVERGED  **
 ******************************

                       Coordinates (Angstroms)
     ATOM                X               Y               Z
      1  O        -3.3847054475    0.8685158814    1.9769588553
      2  C        -3.1728578827    0.7591563163    0.7503904303
      3  C        -4.0941183479    0.0070030292   -0.2842490457
      4  C        -3.4086928111   -1.1828642115   -1.0815168983
      5  C        -1.8998602974   -1.3478651424   -0.7252414111
      6  O        -1.1448195168   -1.3758022575   -1.9399743888
      7  C         0.3032496956   -1.2277104289   -1.6518497350
      8  C         0.6069878701    0.2970734805   -1.4394936421
      9  O         1.9782054389    0.3888958134   -0.8885723109
     10  C         2.2241225121    1.6534261920   -0.2727032183
     11  C         3.7027582120    1.6380975901    0.2369080497
     12  C         4.0558676613    0.3253965781    1.0542287741
     13  C         2.8232231374   -0.6155288797    1.3180758244
     14  O         2.7217454348   -1.8321132318    1.0522646200
     15  O        -2.0696042893    1.3769958036    0.0717394701
     16  O         1.8341887106    0.1567476539    2.0043762453
     17  O         1.3961482876    2.5901549561   -0.2009127118
     18  C         0.6811759815   -0.6926283830    2.3919584545
     19  C         4.7169495129    1.4957171817   -0.9825932972
     20  C         6.1819499106    1.7683749392   -0.4552470964
     21  C         6.4966673273    0.4178998151    0.2907210097
     22  C         5.1308750357   -0.3507809024    0.1080000845
     23  O         4.7032125792    0.0421084021   -1.2557259328
     24  H         3.8770258007    2.5561637056    0.8246272109
     25  H         4.4946199452    0.5912220985    2.0335947063
     26  H         4.4284583378    2.0646273557   -1.8878739885
     27  H         6.8694789928    1.9359575143   -1.2994489905
     28  H         6.2245247907    2.6437329699    0.2126082933
     29  H         7.3164745410   -0.1304482719   -0.2003996478
     30  H         6.7553353471    0.5660880583    1.3511257840
     31  H         5.1743684954   -1.4539121194    0.1959774218
     32  O        -1.4118882989   -1.4376295229    0.4243947533
     33  C        -1.3011301459    2.2174110902    1.0277139813
     34  C        -5.2428659659   -0.7693019969    0.4838731707
     35  C        -6.3695082617   -1.1575689264   -0.5507973540
     36  C        -5.6823923981   -2.3504742824   -1.3155491034
     37  C        -4.2847009953   -2.4157031883   -0.5813602265
     38  O        -4.6074762401   -2.0656259738    0.8176567869
     39  H        -4.5031992553    0.7559752513   -0.9875268504
     40  H        -3.4910219300   -1.0401740023   -2.1730174282
     41  H        -1.1089976164    1.6705537851    1.9709316340
     42  H        -5.5817852094   -0.2593882142    1.4063059302
     43  H        -7.2809438114   -1.4852576318   -0.0262221777
     44  H        -6.6263639484   -0.3176813765   -1.2158161993
     45  H        -6.2346177446   -3.2933475761   -1.1740144432
     46  H        -5.5760664029   -2.1611064339   -2.3956255699
     47  H        -3.7695915213   -3.3948102220   -0.6292576193
     48  H        -1.8593541687    3.1450856638    1.2656497508
     49  H        -0.3377272866    2.4653949916    0.5283069349
     50  H         0.1162525520   -0.1099808066    3.1424951672
     51  H         1.0225619995   -1.6441095282    2.8451439593
     52  H         0.0135485266   -0.9259825346    1.5294935482
     53  H         0.5399109470    0.8463615827   -2.4035096404
     54  H        -0.1529495645    0.7215089882   -0.7474894398
     55  H         0.8434897563   -1.6286144591   -2.5315663676
     56  H         0.5979343503   -1.7952370457   -0.7427706031

Z-matrix Print:
$molecule
0 1
O 
C  1 1.427868
O  2 1.252260 1 124.981696
C  1 1.480602 2 112.019170 3 -0.321923 0
H  4 1.111550 1 110.361744 2 77.803245 0
H  4 1.111989 1 112.190404 2 -42.749463 0
C  2 1.564066 1 107.138062 3 -178.436250 0
H  7 1.103915 2 108.334111 1 -173.163646 0
C  4 1.569177 1 106.850915 2 -161.948031 0
H  9 1.107468 4 111.397377 1 -74.407964 0
H  9 1.111463 4 109.521369 1 47.009645 0
O  9 1.483864 4 108.188917 1 168.738338 0
C  12 1.430540 9 110.379748 4 -80.927337 0
O  13 1.252133 12 124.927768 9 -12.333390 0
C  13 1.559081 12 108.591236 9 167.435407 0
H  15 1.103862 13 108.168744 12 -4.983903 0
C  7 1.586154 2 112.734637 1 -48.307501 0
H  17 1.105588 7 110.231621 2 -127.581456 0
C  17 1.573013 7 114.018075 2 -6.147263 0
O  19 1.249412 17 127.619294 7 126.434880 0
O  19 1.430248 17 107.420560 7 -56.941237 0
C  21 1.483610 19 110.710544 17 -175.243252 0
H  22 1.105406 21 105.830304 19 164.539193 0
H  22 1.107808 21 111.044529 19 45.896995 0
H  22 1.115359 21 112.517386 19 -76.239662 0
C  17 1.583732 7 101.337612 2 114.516418 0
H  26 1.107488 17 113.857768 7 -152.378303 0
O  26 1.482230 17 103.926883 7 -32.232347 0
C  28 1.479111 26 95.043964 17 55.704751 0
H  29 1.107438 28 110.578449 26 179.478409 0
C  26 1.577861 17 108.081294 7 76.864092 0
H  31 1.101511 26 112.351585 17 47.741291 0
H  31 1.101803 26 110.486321 17 169.377134 0
C  31 1.574579 26 100.950269 17 -72.686155 0
H  34 1.101570 31 111.641609 26 -119.946908 0
H  34 1.101860 31 112.736440 26 117.437855 0
C  15 1.587838 13 112.477856 12 -128.645533 0
H  37 1.105851 15 110.358560 13 120.677799 0
C  37 1.576367 15 115.774622 13 -2.475954 0
O  39 1.249524 37 125.941741 15 -121.085253 0
O  39 1.435082 37 110.140515 15 62.038669 0
C  41 1.486855 39 109.671780 37 173.199925 0
H  42 1.107081 41 110.994616 39 46.714589 0
H  42 1.108516 41 110.533370 39 -73.772343 0
H  42 1.113126 41 106.546144 39 166.466779 0
C  37 1.585018 15 100.904034 13 -120.939558 0
H  46 1.107141 37 113.581382 15 155.658027 0
O  46 1.481751 37 103.112852 15 36.324335 0
C  48 1.477832 46 95.028387 37 -57.524385 0
H  49 1.107376 48 110.609068 46 179.767869 0
C  46 1.578169 37 108.673355 15 -73.388045 0
H  51 1.101487 46 110.589867 37 -166.855480 0
H  51 1.101651 46 112.002532 37 -45.384485 0
C  51 1.574801 46 101.142830 37 74.881259 0
H  54 1.101694 51 112.829772 46 -120.325163 0
H  54 1.101814 51 111.540705 46 116.918184 0
$end

 
 --------------------------------------------------------------
 
                    Orbital Energies (a.u.)
 --------------------------------------------------------------
 
 Alpha MOs
 -- Occupied --
-18.944 -18.942 -18.928 -18.922 -18.889 -18.888 -18.887 -18.885
-18.874 -18.866 -10.111 -10.109 -10.097 -10.094 -10.075 -10.071
-10.063 -10.063 -10.058 -10.057 -10.042 -10.041 -10.040 -10.039
-10.038 -10.035 -10.022 -10.022 -10.021 -10.020  -1.023  -1.018
 -1.006  -1.000  -0.972  -0.970  -0.948  -0.943  -0.932  -0.928
 -0.766  -0.764  -0.731  -0.724  -0.712  -0.706  -0.698  -0.653
 -0.649  -0.618  -0.598  -0.583  -0.547  -0.546  -0.538  -0.537
 -0.518  -0.509  -0.486  -0.478  -0.462  -0.461  -0.454  -0.447
 -0.436  -0.432  -0.430  -0.414  -0.409  -0.407  -0.401  -0.399
 -0.394  -0.379  -0.373  -0.368  -0.360  -0.359  -0.356  -0.352
 -0.342  -0.336  -0.334  -0.332  -0.330  -0.328  -0.325  -0.312
 -0.310  -0.306  -0.305  -0.299  -0.295  -0.290  -0.284  -0.279
 -0.271  -0.258  -0.255  -0.245  -0.243  -0.235  -0.235  -0.187
 -0.181  -0.173  -0.172  -0.162  -0.160  -0.150  -0.146  -0.146
 -0.144
 -- Virtual --
  0.083   0.087   0.107   0.114   0.208   0.235   0.239   0.261
  0.266   0.277   0.282   0.288   0.304   0.315   0.327   0.330
  0.334   0.337   0.344   0.349   0.352   0.360   0.360   0.369
  0.381   0.384   0.385   0.387   0.394   0.399   0.409   0.409
  0.415   0.417   0.420   0.422   0.428   0.429   0.431   0.435
  0.437   0.441   0.447   0.449   0.451   0.465   0.467   0.473
  0.477   0.486   0.489   0.498   0.501   0.505   0.507   0.538
  0.540   0.550   0.552   0.639   0.646   0.651   0.654
 --------------------------------------------------------------
 
          Ground-State Mulliken Net Atomic Charges

     Atom                 Charge (a.u.)
  ----------------------------------------
      1 O                    -0.208661
      2 C                     0.211017
      3 C                    -0.078430
      4 C                    -0.079808
      5 C                     0.218159
      6 O                    -0.168458
      7 C                    -0.050121
      8 C                    -0.054325
      9 O                    -0.166926
     10 C                     0.221214
     11 C                    -0.077776
     12 C                    -0.078290
     13 C                     0.213628
     14 O                    -0.217648
     15 O                    -0.180521
     16 O                    -0.180161
     17 O                    -0.215564
     18 C                    -0.146424
     19 C                     0.025705
     20 C                    -0.144030
     21 C                    -0.143552
     22 C                     0.024434
     23 O                    -0.186687
     24 H                     0.086524
     25 H                     0.083945
     26 H                     0.081576
     27 H                     0.078109
     28 H                     0.074002
     29 H                     0.078077
     30 H                     0.073569
     31 H                     0.090822
     32 O                    -0.212399
     33 C                    -0.146524
     34 C                     0.024822
     35 C                    -0.144446
     36 C                    -0.143405
     37 C                     0.026457
     38 O                    -0.185817
     39 H                     0.084581
     40 H                     0.087720
     41 H                     0.089001
     42 H                     0.092003
     43 H                     0.078863
     44 H                     0.073364
     45 H                     0.078837
     46 H                     0.073948
     47 H                     0.083927
     48 H                     0.079792
     49 H                     0.110729
     50 H                     0.083447
     51 H                     0.084903
     52 H                     0.108556
     53 H                     0.085318
     54 H                     0.103068
     55 H                     0.095316
     56 H                     0.104543
  ----------------------------------------
  Sum of atomic charges =     0.000000

 -----------------------------------------------------------------
                    Cartesian Multipole Moments
 -----------------------------------------------------------------
    Charge (ESU x 10^10)
                 0.0000
    Dipole Moment (Debye)
         X       0.3471      Y       1.1903      Z      -1.9442
       Tot       2.3059
    Quadrupole Moments (Debye-Ang)
        XX    -140.1453     XY       6.7937     YY    -162.7059
        XZ      13.6037     YZ       2.5031     ZZ    -161.3231
    Octopole Moments (Debye-Ang^2)
       XXX     -12.0598    XXY      43.9097    XYY     -10.7376
       YYY      33.0440    XXZ     -20.3717    XYZ     -14.0819
       YYZ     -10.3739    XZZ       7.2137    YZZ      16.1266
       ZZZ      -6.4966
    Hexadecapole Moments (Debye-Ang^3)
      XXXX  -13181.5394   XXXY   -1042.2742   XXYY   -2640.4019
      XYYY   -1190.6681   YYYY   -2079.4059   XXXZ      72.0790
      XXYZ     -10.3868   XYYZ     -43.5060   YYYZ     -93.9776
      XXZZ   -2624.1062   XYZZ    -398.5529   YYZZ    -583.6696
      XZZZ    -135.7624   YZZZ    -156.6863   ZZZZ   -1426.2081
 -----------------------------------------------------------------
Archival summary:
1\1\vega02.cac.cornell.edu\OPT\ProcedureUnspecified\STO-3G\102026\jj585\WedJan1708:41:332018WedJan1708:41:332018\0\\#,OPT,ProcedureUnspecified,STO-3G,\\0,1\O\C,1,1.42787\O,2,1.25226,1,124.982\C,1,1.4806,2,112.019,3,-0.321923,0\H,4,1.11155,1,110.362,2,77.8032,0\H,4,1.11199,1,112.19,2,-42.7495,0\C,2,1.56407,1,107.138,3,-178.436,0\H,7,1.10392,2,108.334,1,-173.164,0\C,4,1.56918,1,106.851,2,-161.948,0\H,9,1.10747,4,111.397,1,-74.408,0\H,9,1.11146,4,109.521,1,47.0096,0\O,9,1.48386,4,108.189,1,168.738,0\C,12,1.43054,9,110.38,4,-80.9273,0\O,13,1.25213,12,124.928,9,-12.3334,0\C,13,1.55908,12,108.591,9,167.435,0\H,15,1.10386,13,108.169,12,-4.9839,0\C,7,1.58615,2,112.735,1,-48.3075,0\H,17,1.10559,7,110.232,2,-127.581,0\C,17,1.57301,7,114.018,2,-6.14726,0\O,19,1.24941,17,127.619,7,126.435,0\O,19,1.43025,17,107.421,7,-56.9412,0\C,21,1.48361,19,110.711,17,-175.243,0\H,22,1.10541,21,105.83,19,164.539,0\H,22,1.10781,21,111.045,19,45.897,0\H,22,1.11536,21,112.517,19,-76.2397,0\C,17,1.58373,7,101.338,2,114.516,0\H,26,1.10749,17,113.858,7,-152.378,0\O,26,1.48223,17,103.927,7,-32.2323,0\C,28,1.47911,26,95.044,17,55.7048,0\H,29,1.10744,28,110.578,26,179.478,0\C,26,1.57786,17,108.081,7,76.8641,0\H,31,1.10151,26,112.352,17,47.7413,0\H,31,1.1018,26,110.486,17,169.377,0\C,31,1.57458,26,100.95,17,-72.6862,0\H,34,1.10157,31,111.642,26,-119.947,0\H,34,1.10186,31,112.736,26,117.438,0\C,15,1.58784,13,112.478,12,-128.646,0\H,37,1.10585,15,110.359,13,120.678,0\C,37,1.57637,15,115.775,13,-2.47595,0\O,39,1.24952,37,125.942,15,-121.085,0\O,39,1.43508,37,110.141,15,62.0387,0\C,41,1.48685,39,109.672,37,173.2,0\H,42,1.10708,41,110.995,39,46.7146,0\H,42,1.10852,41,110.533,39,-73.7723,0\H,42,1.11313,41,106.546,39,166.467,0\C,37,1.58502,15,100.904,13,-120.94,0\H,46,1.10714,37,113.581,15,155.658,0\O,46,1.48175,37,103.113,15,36.3243,0\C,48,1.47783,46,95.0284,37,-57.5244,0\H,49,1.10738,48,110.609,46,179.768,0\C,46,1.57817,37,108.673,15,-73.388,0\H,51,1.10149,46,110.59,37,-166.855,0\H,51,1.10165,46,112.003,37,-45.3845,0\C,51,1.5748,46,101.143,37,74.8813,0\H,54,1.10169,51,112.83,46,-120.325,0\H,54,1.10181,51,111.541,46,116.918,0\\\@

 Total job time:  126.92s(wall), 6047.91s(cpu) 
 Wed Jan 17 08:41:33 2018

        *************************************************************
        *                                                           *
        *  Thank you very much for using Q-Chem.  Have a nice day.  *
        *                                                           *
        *************************************************************


0 sent ACK to 0 
now end server 0 ... 
