mFile = /opt/software/qchem/qchem-5.0.1//bin/mpi/machines
Process 0 of 1 is on vega02.cac.cornell.edu - thread support 0
initial socket setup ...start
initial socket setup ...done 
now start server 0 ... 
vega02.cac.cornell.edu 10.84.3
Q-Chem Developer Version! Running on 10.84.3.*
                  Welcome to Q-Chem
     A Quantum Leap Into The Future Of Chemistry


 Q-Chem 5.0, Q-Chem, Inc., Pleasanton, CA (2017)

 Yihan Shao,  Zhengting Gan,  E. Epifanovsky,  A. T. B. Gilbert,  M. Wormit,  
 J. Kussmann,  A. W. Lange,  A. Behn,  Jia Deng,  Xintian Feng,  D. Ghosh,  
 M. Goldey,  P. R. Horn,  L. D. Jacobson,  I. Kaliman,  T. Kus,  A. Landau,  
 Jie Liu,  E. I. Proynov,  R. M. Richard,  R. P. Steele,  E. J. Sundstrom,  
 H. L. Woodcock III,  P. M. Zimmerman,  D. Zuev,  B. Albrecht,  E. Alguire,  
 S. A. Baeppler,  Z. Benda,  Y. A. Bernard,  E. J. Berquist,  K. B. Bravaya,  
 D. Casanova,  Chun-Min Chang,  Yunqing Chen,  A. Chien,  K. D. Closser,  
 M. P. Coons,  S. Dasgupta,  M. Diedenhofen,  Hainam Do,  R. G. Edgar,  
 Po-Tung Fang,  S. Fatehi,  Qingguo Feng,  Qinghui Ge,  A. Ghysels,  
 J. Gomes,  J. Gonthier,  A. Gunina,  M. W. D. Hanson-Heine,  
 P. H. P. Harbach,  A. W. Hauser,  J. E. Herr,  E. G. Hohenstein,  
 Z. C. Holden,  Kerwin Hui,  T.-C. Jagau,  Hyunjun Ji,  B. Kaduk,  
 K. Khistyaev,  Jaehoon Kim,  P. Klunzinger,  K. Koh,  D. Kosenkov,  
 T. Kowalczyk,  C. M. Krauter,  A. Kunitsa,  Ka Un Lao,  A. Laurent,  
 K. V. Lawler,  Joonho Lee,  D. Lefrancois,  S. Lehtola,  D. S. Levine,  
 Yi-Pei Li,  You-Sheng Lin,  Fenglai Liu,  E. Livshits,  A. Luenser,  
 P. Manohar,  E. Mansoor,  S. F. Manzer,  Shan-Ping Mao,  Yuezhi Mao,  
 N. Mardirossian,  A. V. Marenich,  L. A. Martinez-Martinez,  S. A. Maurer,  
 N. J. Mayhall,  S. C. McKenzie,  J.-M. Mewes,  A. F. Morrison,  K. Nanda,  
 T. S. Nguyen-Beck,  R. Olivares-Amaya,  J. A. Parkhill,  T. M. Perrine,  
 F. Plasser,  S. Prager,  A. Prociuk,  D. R. Rehn,  F. Rob,  M. Schneider,  
 N. Sergueev,  S. M. Sharada,  S. Sharma,  D. W. Small,  T. Stauch,  
 T. Stein,  Yu-Chuan Su,  A. J. W. Thom,  T. Tsuchimochi,  L. Vogt,  
 O. Vydrov,  M. A. Watson,  J. Wenzel,  M. de Wergifosse,  T. A. Wesolowski,  
 A. White,  J. Witte,  A. Yamada,  Jun Yang,  K. Yao,  S. Yeganeh,  
 S. R. Yost,  Zhi-Qiang You,  A. Zech,  Igor Ying Zhang,  Xing Zhang,  
 Yan Zhao,  Ying Zhu,  B. R. Brooks,  G. K. L. Chan,  C. J. Cramer,  
 M. S. Gordon,  W. J. Hehre,  A. Klamt,  M. W. Schmidt,  C. D. Sherrill,  
 D. G. Truhlar,  A. Aspuru-Guzik,  R. Baer,  A. T. Bell,  N. A. Besley,  
 Jeng-Da Chai,  A. Dreuw,  B. D. Dunietz,  T. R. Furlani,  Chao-Ping Hsu,  
 Yousung Jung,  Jing Kong,  D. S. Lambrecht,  WanZhen Liang,  C. Ochsenfeld,  
 V. A. Rassolov,  L. V. Slipchenko,  J. E. Subotnik,  T. Van Voorhis,  
 J. M. Herbert,  A. I. Krylov,  P. M. W. Gill,  M. Head-Gordon

 Contributors to earlier versions of Q-Chem not listed above: 
 R. D. Adamson,  B. Austin,  J. Baker,  G. J. O. Beran,  K. Brandhorst,  
 S. T. Brown,  E. F. C. Byrd,  A. K. Chakraborty,  C.-L. Cheng,  
 Siu Hung Chien,  D. M. Chipman,  D. L. Crittenden,  H. Dachsel,  
 R. A. DiStasio Jr.,  R. J. Doerksen,  A. D. Dutoi,  L. Fusti-Molnar,  
 W. A. Goddard III,  A. Golubeva-Zadorozhnaya,  S. R. Gwaltney,  G. Hawkins,  
 A. Heyden,  S. Hirata,  G. Kedziora,  F. J. Keil,  C. Kelley,  Jihan Kim,  
 R. A. King,  R. Z. Khaliullin,  P. P. Korambath,  W. Kurlancheek,  
 A. M. Lee,  M. S. Lee,  S. V. Levchenko,  Ching Yeh Lin,  D. Liotard,  
 R. C. Lochan,  I. Lotan,  P. E. Maslen,  N. Nair,  D. P. O'Neill,  
 D. Neuhauser,  E. Neuscamman,  C. M. Oana,  R. Olson,  B. Peters,  
 R. Peverati,  P. A. Pieniazek,  Y. M. Rhee,  J. Ritchie,  M. A. Rohrdanz,  
 E. Rosta,  N. J. Russ,  H. F. Schaefer III,  N. E. Schultz,  N. Shenvi,  
 A. C. Simmonett,  A. Sodt,  D. Stuck,  K. S. Thanthiriwatte,  V. Vanovschi,  
 Tao Wang,  A. Warshel,  C. F. Williams,  Q. Wu,  X. Xu,  W. Zhang

 Please cite Q-Chem as follows:
 Y. Shao et al., Mol. Phys. 113, 184-215 (2015)
 DOI: 10.1080/00268976.2014.952696

 Q-Chem 5.0.1 for Intel X86 EM64T Linux

 Parts of Q-Chem use Armadillo 5.200.1 (Boston Tea Smuggler).
 http://arma.sourceforge.net/

 Q-Chem begins on Wed Jan 17 08:43:01 2018  

Host: vega02.cac.cornell.edu
0

     Scratch files written to /scratch/jj585/SOT1001/1441r.save//
 Parallel job on  1  processors

Checking the input file for inconsistencies... 	...done.

--------------------------------------------------------------
User input:
--------------------------------------------------------------
$molecule
0  1
O -4.0658752454 2.5373364999 0.7092622613
C -3.8062228764 1.7058413324 -0.1858012255
C -4.5948315457 0.3867341823 -0.5046990374
C -3.7378288427 -0.8985003375 -0.8298302684
C -2.2530188775 -0.8941267597 -0.3023449739
O -2.0902346561 0.1949854962 0.6020591069
C -0.7212007779 0.4869184937 1.1055944729
C 0.4908463034 -0.4126921181 0.6641040713
O 1.6704957214 0.2718415271 1.2585374914
C 2.7391790382 -0.6865568281 1.463318279
C 3.46106377 -1.2321787465 0.1581511908
C 4.0966162348 -0.1213349824 -0.7818265731
C 3.5789055447 1.3489681027 -0.6101858239
O 4.2467950748 2.3614325454 -0.3098228637
O -2.8869995392 1.9534752964 -1.2663635187
O 2.2222079007 1.3928356845 -1.0718660152
O 3.1396081452 -0.9225410387 2.6222037001
C 1.6826480494 2.7629907838 -0.933894789
C 4.7781461637 -1.9794024168 0.6250942417
C 5.4461940207 -2.7200069263 -0.6009944184
C 6.1510765332 -1.5220823747 -1.341672195
C 5.6436852452 -0.3045220286 -0.4767935895
O 5.6877426957 -0.841177492 0.9024384848
H 2.7679414627 -1.8816468373 -0.4073333495
H 3.8828290019 -0.3920476951 -1.8330003236
H 4.6406901775 -2.590902417 1.5376694089
H 6.1749358638 -3.468608292 -0.2520638169
H 4.6976774366 -3.2258922767 -1.2320164479
H 7.2482236511 -1.6030459178 -1.2801174426
H 5.8605124618 -1.4405846616 -2.4011999901
H 6.2329044738 0.6302214824 -0.5526842317
O -1.3891074714 -1.7441276368 -0.6053760459
C -2.2568740104 3.2793172128 -1.0868574777
C -5.5164254047 -0.1299798259 0.6796726602
C -6.7240443316 -0.9044267093 0.0245670723
C -5.9836676712 -2.1800600278 -0.5260636559
C -4.5258719307 -1.970487715 0.0492990455
O -4.7356122503 -1.2211525737 1.3103125563
H -5.2221055284 0.6226638991 -1.3854805824
H -3.7270038511 -1.1491664728 -1.9050301168
H -1.6781590429 3.3386880526 -0.1425817243
H -5.7755740233 0.6489115532 1.4232543492
H -7.4692449778 -1.1721161374 0.7908954011
H -7.2219231903 -0.3217065684 -0.7667746826
H -6.423761668 -3.1095611031 -0.1316347314
H -5.987343538 -2.2300388651 -1.6269826451
H -3.9587203015 -2.9032068793 0.2375065054
H -3.0092699145 4.0947294445 -1.0831508858
H -1.5754184853 3.4134826932 -1.9472289173
H 0.6947675908 2.7543358508 -1.4290011583
H 2.3390727561 3.5135570445 -1.4190458808
H 1.5591155635 3.0388258182 0.1336021079
H 0.371493045 -1.4460629133 1.0489994861
H 0.5818343173 -0.4455294954 -0.4432103743
H -0.7858764321 0.4688793568 2.2152313646
H -0.4963336573 1.5312431291 0.7994980215
$end

$rem
JOBTYPE                   OPT
METHOD                    B3LYP
DFT_D                     d3_op
BASIS                     STO-3G
GEOM_OPT_MAX_CYCLES       100
GEOM_OPT_TOL_GRADIENT     300
GEOM_OPT_TOL_DISPLACEMENT 1200
GEOM_OPT_TOL_ENERGY       100
SYMMETRY                  False
THRESH                    12
SCF_CONVERGENCE           8
MAX_SUB_FILE_NUM          128
MEM_STATIC                400
MEM_TOTAL                 4000
$end
--------------------------------------------------------------
 Adding empirical dispersion correction 
 ----------------------------------------------------------------
 Doing -D3(op) with
 s6 =   1.00000
 s8 =   0.78311
 a1 =   0.30000
 a2 =   4.25000
 n  =  10.00000
 -D3 energy without 3body term =     -0.0704612678 hartrees
 ----------------------------------------------------------------
             Standard Nuclear Orientation (Angstroms)
    I     Atom           X                Y                Z
 ----------------------------------------------------------------
    1      O      -4.1564364744     2.2150263313     1.1409852522
    2      C      -3.8597876511     1.5794829488     0.1075316750
    3      C      -4.5896901688     0.3119370201    -0.4618651590
    4      C      -3.6770264440    -0.8509263857    -1.0157472278
    5      C      -2.1943684444    -0.8828926118    -0.4831836978
    6      O      -2.0802477121     0.0216632151     0.6119720740
    7      C      -0.7257925270     0.2713909216     1.1742119904
    8      C       0.5248502888    -0.4760057451     0.5821292894
    9      O       1.6728577433     0.1336246762     1.3059661395
   10      C       2.7821769783    -0.7996758651     1.3360916133
   11      C       3.5285502761    -1.0575359923    -0.0418478002
   12      C       4.1159358297     0.2370089507    -0.7493720770
   13      C       3.5343132804     1.6249253565    -0.3081472725
   14      O       4.1570266338     2.5899834285     0.1840616031
   15      O      -2.9511484687     2.0658438704    -0.8983196478
   16      O       2.1774701328     1.6972565816    -0.7658003372
   17      O       3.1913402631    -1.2330521212     2.4332779528
   18      C       1.5784288672     2.9923503964    -0.3767406224
   19      C       4.8765365099    -1.8225873957     0.2878710522
   20      C       5.5775607600    -2.2889772532    -1.0497095558
   21      C       6.2302010023    -0.9436962737    -1.5444478269
   22      C       5.6692157967     0.0657237790    -0.4700731836
   23      O       5.7352558660    -0.7194798469     0.7834479511
   24      H       2.8650436086    -1.6174581548    -0.7261329551
   25      H       3.9152602447     0.1609045342    -1.8346803442
   26      H       4.7649861721    -2.6007984009     1.0673349626
   27      H       6.3379499986    -3.0582071331    -0.8415873776
   28      H       4.8525077793    -2.6980190116    -1.7717683353
   29      H       7.3297737088    -0.9879043122    -1.4891179648
   30      H       5.9374442948    -0.6759615786    -2.5722027338
   31      H       6.2171162947     1.0222634055    -0.3627367618
   32      O      -1.2938384106    -1.6226465801    -0.9331636572
   33      C      -2.3797285158     3.3595660760    -0.4660009226
   34      C      -5.4890497212    -0.4581225365     0.5951237719
   35      C      -6.6610097158    -1.1456940953    -0.2055196579
   36      C      -5.8650480707    -2.2615123056    -0.9801078986
   37      C      -4.4183917974    -2.1023660245    -0.3620550679
   38      O      -4.6619635940    -1.6144382203     1.0157143134
   39      H      -5.2257653857     0.6830273355    -1.2880684674
   40      H      -3.6541553570    -0.8932326174    -2.1187850793
   41      H      -1.8051313759     3.2641128009     0.4778313759
   42      H      -5.7827414505     0.1544561150     1.4699015031
   43      H      -7.3945930288    -1.5849273695     0.4895849344
   44      H      -7.1830548586    -0.4457550174    -0.8772502957
   45      H      -6.2645224994    -3.2667256894    -0.7722729028
   46      H      -5.8654044997    -2.1026922089    -2.0706628338
   47      H      -3.8112299434    -3.0287596289    -0.3480040663
   48      H      -3.1670306256     4.1267034689    -0.3154484356
   49      H      -1.7038997303     3.6828509215    -1.2792434352
   50      H       0.5923794443     3.0352193696    -0.8737132696
   51      H       2.2019374257     3.8483974074    -0.7054278317
   52      H       1.4418663683     3.0559911917     0.7224387984
   53      H       0.4503575663    -1.5676233969     0.7639715767
   54      H       0.6183250809    -0.2951179924    -0.5105941329
   55      H      -0.7907599552     0.0412751164     2.2598584943
   56      H      -0.5464463083     1.3633723807     1.0727938931
 ----------------------------------------------------------------
 Molecular Point Group                 C1    NOp =  1
 Largest Abelian Subgroup              C1    NOp =  1
 Nuclear Repulsion Energy =  3130.5431455689 hartrees
 There are      113 alpha and      113 beta electrons
 Requested basis set is STO-3G
 There are 86 shells and 176 basis functions

 Total QAlloc Memory Limit   4000 MB
 Mega-Array Size       392 MB
 MEM_STATIC part       400 MB
 A cutoff of  1.0D-12 yielded   2161 shell pairs
 There are     10087 function pairs
 
 -------------------------------------------------------
 OpenMP Integral Computing Module                       
 Release: version 1.0, May 2013, Q-Chem Inc. Pittsburgh 
 -------------------------------------------------------
 Integral Job Info:
 Integral job number is                      11
 Integral operator is                         1
 short-range coefficients                     0
 long-range coefficients              100000000
 Omega coefficients                           0
 if combine SR and LR in K                    0
 Integral screening is                        0
 Integral computing path is                   2
 max size of driver memory is            800000
 size of driver memory is                 45569
 size of scratch memory is              1046100
 max col of scratch BK array                289
 max len of scratch array in speh3           22
 max len of scratch index in speh4            8
 max int batch size is                      520
 min int batch size is                       52
 fixed nKL is                                52
 max L of basis functions is                  1
 order of int derivative is                   0
 number of shells is                         86
 number of basis is                         176
 number of cartesian basis is               176
 number of contracted shell pairs          2161
 number of primitive shell pairs          11191
 maxK2 (contraction) of shell pair            9
 max number of K2 of shell pair               1
 max number of CS2 of shell pair            329
 max number of PS2 of shell pair           1266
 mem total for path MDJ                   49782
 -------------------------------------------------------
 Smallest overlap matrix eigenvalue = 2.13E-01

 Scale SEOQF with 1.000000e-02/1.000000e-01/1.000000e-01

 Standard Electronic Orientation quadrupole field applied
 Nucleus-field energy     =     0.0000000359 hartrees
 Guess from superposition of atomic densities
 Warning:  Energy on first SCF cycle will be non-variational
 A restricted hybrid HF-DFT SCF calculation will be
 performed using Pulay DIIS extrapolation
 Exchange:     0.2000 Hartree-Fock + 0.0800 Slater + 0.7200 B88
 Correlation:  0.1900 VWN1RPA + 0.8100 LYP
 Using SG-1 standard quadrature grid
 Dispersion:   Grimme D3
 SCF converges when DIIS error is below 1.0E-08
 using 48 threads for integral computing
 -------------------------------------------------------
 OpenMP Integral computing Module                
 Release: version 1.0, May 2013, Q-Chem Inc. Pittsburgh 
 -------------------------------------------------------
 -------------------------------------------------------
 OpenMP BLAS3 based DFT computing Module                
 Release: version 1.0, May 2013, Q-Chem Inc. Pittsburgh 
 -------------------------------------------------------
 ---------------------------------------
  Cycle       Energy         DIIS Error
 ---------------------------------------
    1   -1507.6011733785      7.45E-02
    2   -1509.6937585218      1.06E-02
    3   -1507.2548199528      2.76E-02
    4   -1510.1609083585      4.44E-03
    5   -1510.2405112042      1.54E-03
    6   -1510.2488036212      7.08E-04
    7   -1510.2509235930      1.38E-04
    8   -1510.2509997227      4.73E-05
    9   -1510.2510043525      3.43E-05
   10   -1510.2510095841      3.54E-06
   11   -1510.2510096376      1.27E-06
   12   -1510.2510096449      2.68E-07
   13   -1510.2510096451      1.44E-07
   14   -1510.2510096452      6.28E-08
   15   -1510.2510096452      1.08E-08
   16   -1510.2510096452      3.63E-09 Convergence criterion met
 ---------------------------------------
 SCF time:  CPU 121.82 s  wall 2.59 s
 SCF   energy in the final basis set = -1510.25100965
 Total energy in the final basis set = -1510.25100965
 
 --------------------------------------------------------------
 
                    Orbital Energies (a.u.)
 --------------------------------------------------------------
 
 Alpha MOs
 -- Occupied --
-18.948 -18.935 -18.927 -18.907 -18.901 -18.889 -18.885 -18.881
-18.878 -18.869 -10.112 -10.106 -10.102 -10.100 -10.081 -10.075
-10.067 -10.066 -10.063 -10.059 -10.058 -10.057 -10.043 -10.040
-10.038 -10.038 -10.023 -10.021 -10.020 -10.019  -1.020  -1.014
 -1.006  -1.005  -0.972  -0.969  -0.948  -0.940  -0.936  -0.933
 -0.766  -0.763  -0.730  -0.722  -0.710  -0.704  -0.702  -0.667
 -0.663  -0.614  -0.601  -0.594  -0.548  -0.547  -0.540  -0.538
 -0.515  -0.509  -0.486  -0.474  -0.466  -0.463  -0.457  -0.444
 -0.440  -0.433  -0.430  -0.415  -0.415  -0.413  -0.408  -0.406
 -0.399  -0.383  -0.377  -0.371  -0.368  -0.361  -0.356  -0.349
 -0.345  -0.344  -0.337  -0.334  -0.331  -0.327  -0.326  -0.313
 -0.311  -0.310  -0.308  -0.305  -0.302  -0.295  -0.285  -0.276
 -0.274  -0.257  -0.254  -0.249  -0.240  -0.236  -0.233  -0.185
 -0.181  -0.172  -0.167  -0.160  -0.156  -0.152  -0.149  -0.147
 -0.143
 -- Virtual --
  0.075   0.090   0.097   0.110   0.198   0.233   0.240   0.257
  0.259   0.264   0.281   0.285   0.297   0.307   0.315   0.325
  0.328   0.331   0.342   0.344   0.347   0.350   0.360   0.361
  0.374   0.379   0.380   0.394   0.400   0.401   0.403   0.406
  0.410   0.412   0.414   0.419   0.422   0.424   0.432   0.433
  0.434   0.438   0.439   0.441   0.446   0.450   0.464   0.464
  0.467   0.470   0.487   0.489   0.490   0.502   0.506   0.537
  0.541   0.551   0.553   0.611   0.635   0.645   0.649
 --------------------------------------------------------------
 
          Ground-State Mulliken Net Atomic Charges

     Atom                 Charge (a.u.)
  ----------------------------------------
      1 O                    -0.219139
      2 C                     0.220386
      3 C                    -0.079618
      4 C                    -0.076042
      5 C                     0.218454
      6 O                    -0.165270
      7 C                    -0.044997
      8 C                    -0.045852
      9 O                    -0.193530
     10 C                     0.217250
     11 C                    -0.081942
     12 C                    -0.081237
     13 C                     0.211519
     14 O                    -0.209471
     15 O                    -0.178032
     16 O                    -0.171350
     17 O                    -0.176459
     18 C                    -0.129344
     19 C                     0.024060
     20 C                    -0.145616
     21 C                    -0.142532
     22 C                     0.023260
     23 O                    -0.188182
     24 H                     0.082420
     25 H                     0.084457
     26 H                     0.089396
     27 H                     0.078629
     28 H                     0.072466
     29 H                     0.078522
     30 H                     0.072404
     31 H                     0.090160
     32 O                    -0.217927
     33 C                    -0.128664
     34 C                     0.023905
     35 C                    -0.142233
     36 C                    -0.145079
     37 C                     0.024279
     38 O                    -0.190899
     39 H                     0.082914
     40 H                     0.087693
     41 H                     0.084701
     42 H                     0.091681
     43 H                     0.078537
     44 H                     0.073393
     45 H                     0.078751
     46 H                     0.073690
     47 H                     0.083682
     48 H                     0.088574
     49 H                     0.085131
     50 H                     0.086253
     51 H                     0.091446
     52 H                     0.089603
     53 H                     0.088914
     54 H                     0.093005
     55 H                     0.095500
     56 H                     0.088383
  ----------------------------------------
  Sum of atomic charges =    -0.000000

 -----------------------------------------------------------------
                    Cartesian Multipole Moments
 -----------------------------------------------------------------
    Charge (ESU x 10^10)
                -0.0000
    Dipole Moment (Debye)
         X      -2.1273      Y      -0.2983      Z      -4.5305
       Tot       5.0139
    Quadrupole Moments (Debye-Ang)
        XX    -160.9594     XY      -2.9161     YY    -155.6554
        XZ      -4.9546     YZ      -0.7055     ZZ    -167.0625
    Octopole Moments (Debye-Ang^2)
       XXX     -99.1321    XXY     -45.9547    XYY      -2.6329
       YYY      27.6037    XXZ    -107.5385    XYZ       5.1806
       YYZ      -6.0537    XZZ      -6.8821    YZZ      11.2723
       ZZZ       3.7228
    Hexadecapole Moments (Debye-Ang^3)
      XXXX  -15945.0082   XXXY      -9.9794   XXYY   -3205.4770
      XYYY     -59.2812   YYYY   -2715.4698   XXXZ    -121.7296
      XXYZ       5.1399   XYYZ      35.3360   YYYZ     -62.9221
      XXZZ   -2961.9034   XYZZ      34.2750   YYZZ    -658.5575
      XZZZ      -7.2749   YZZZ       3.5091   ZZZZ   -1006.0230
 -----------------------------------------------------------------
 Calculating analytic gradient of the SCF energy
 Gradient of SCF Energy
            1           2           3           4           5           6
    1  -0.0035385   0.0047284  -0.0019119   0.0011458  -0.0016781   0.0004976
    2   0.0026666  -0.0038294  -0.0019954   0.0054825  -0.0047455   0.0012282
    3  -0.0026569   0.0027181   0.0056366  -0.0079512   0.0044987  -0.0008902
            7           8           9          10          11          12
    1   0.0000563  -0.0019796   0.0038201  -0.0048930  -0.0007860   0.0055771
    2   0.0008396  -0.0020998   0.0044244  -0.0059949   0.0047107   0.0006092
    3  -0.0007188   0.0049797  -0.0067602   0.0006450  -0.0025854   0.0021348
           13          14          15          16          17          18
    1  -0.0029205   0.0010771   0.0001040   0.0000653  -0.0001025  -0.0000636
    2  -0.0030370   0.0020429   0.0002652   0.0000022  -0.0000950  -0.0000013
    3   0.0065315  -0.0053737  -0.0000902  -0.0000129  -0.0000482   0.0000220
           19          20          21          22          23          24
    1   0.0000035   0.0002424  -0.0004531   0.0001912   0.0000441  -0.0000418
    2   0.0006460  -0.0004259   0.0001658  -0.0000282  -0.0003106  -0.0000563
    3   0.0002605  -0.0000022   0.0000335   0.0001720  -0.0001316   0.0000038
           25          26          27          28          29          30
    1   0.0001727  -0.0000605   0.0000451   0.0000282   0.0000268  -0.0000130
    2   0.0001010  -0.0001363  -0.0001757   0.0000220   0.0000056  -0.0000642
    3  -0.0001068  -0.0000339  -0.0000958   0.0001108  -0.0000074   0.0000435
           31          32          33          34          35          36
    1  -0.0000001   0.0000994   0.0000125  -0.0001651   0.0002039   0.0001416
    2   0.0000391   0.0000428  -0.0000708  -0.0002851  -0.0004367   0.0003603
    3  -0.0000944  -0.0001766   0.0001440  -0.0000010  -0.0006927   0.0003012
           37          38          39          40          41          42
    1   0.0004124   0.0001046   0.0000334   0.0000102  -0.0001388   0.0001420
    2   0.0002177   0.0000435   0.0000129   0.0000254   0.0000152   0.0000770
    3   0.0005595  -0.0001102  -0.0001365   0.0000131  -0.0000496  -0.0000434
           43          44          45          46          47          48
    1  -0.0000727  -0.0002150  -0.0000586  -0.0000639   0.0000144   0.0000258
    2   0.0001193  -0.0001068  -0.0000691  -0.0001264  -0.0000663   0.0000989
    3   0.0000916   0.0000065  -0.0001349  -0.0000325  -0.0000311  -0.0000294
           49          50          51          52          53          54
    1  -0.0000189   0.0000665   0.0000149   0.0000214  -0.0000008  -0.0000495
    2  -0.0000663   0.0000236  -0.0000319  -0.0000047  -0.0000145  -0.0000416
    3   0.0000104   0.0000304   0.0000019  -0.0000210   0.0000037   0.0000379
           55          56
    1  -0.0000165   0.0001132
    2   0.0000068   0.0000214
    3   0.0000018   0.0000263
 Max gradient component =       7.951E-03
 RMS gradient           =       1.876E-03
 Gradient time:  CPU 32.23 s  wall 0.69 s
 Geometry Optimization Parameters
   NAtoms,    NIC,     NZ,  NCons,   NDum,   NFix, NCnnct, MaxDiis
       56     458       0       0       0       0       0       0


** GEOMETRY OPTIMIZATION IN DELOCALIZED INTERNAL COORDINATES **
   Searching for a Minimum

   Optimization Cycle:   1

                       Coordinates (Angstroms)
     ATOM                X               Y               Z
      1  O        -4.1564364744    2.2150263313    1.1409852522
      2  C        -3.8597876511    1.5794829488    0.1075316750
      3  C        -4.5896901688    0.3119370201   -0.4618651590
      4  C        -3.6770264440   -0.8509263857   -1.0157472278
      5  C        -2.1943684444   -0.8828926118   -0.4831836978
      6  O        -2.0802477121    0.0216632151    0.6119720740
      7  C        -0.7257925270    0.2713909216    1.1742119904
      8  C         0.5248502888   -0.4760057451    0.5821292894
      9  O         1.6728577433    0.1336246762    1.3059661395
     10  C         2.7821769783   -0.7996758651    1.3360916133
     11  C         3.5285502761   -1.0575359923   -0.0418478002
     12  C         4.1159358297    0.2370089507   -0.7493720770
     13  C         3.5343132804    1.6249253565   -0.3081472725
     14  O         4.1570266338    2.5899834285    0.1840616031
     15  O        -2.9511484687    2.0658438704   -0.8983196478
     16  O         2.1774701328    1.6972565816   -0.7658003372
     17  O         3.1913402631   -1.2330521212    2.4332779528
     18  C         1.5784288672    2.9923503964   -0.3767406224
     19  C         4.8765365099   -1.8225873957    0.2878710522
     20  C         5.5775607600   -2.2889772532   -1.0497095558
     21  C         6.2302010023   -0.9436962737   -1.5444478269
     22  C         5.6692157967    0.0657237790   -0.4700731836
     23  O         5.7352558660   -0.7194798469    0.7834479511
     24  H         2.8650436086   -1.6174581548   -0.7261329551
     25  H         3.9152602447    0.1609045342   -1.8346803442
     26  H         4.7649861721   -2.6007984009    1.0673349626
     27  H         6.3379499986   -3.0582071331   -0.8415873776
     28  H         4.8525077793   -2.6980190116   -1.7717683353
     29  H         7.3297737088   -0.9879043122   -1.4891179648
     30  H         5.9374442948   -0.6759615786   -2.5722027338
     31  H         6.2171162947    1.0222634055   -0.3627367618
     32  O        -1.2938384106   -1.6226465801   -0.9331636572
     33  C        -2.3797285158    3.3595660760   -0.4660009226
     34  C        -5.4890497212   -0.4581225365    0.5951237719
     35  C        -6.6610097158   -1.1456940953   -0.2055196579
     36  C        -5.8650480707   -2.2615123056   -0.9801078986
     37  C        -4.4183917974   -2.1023660245   -0.3620550679
     38  O        -4.6619635940   -1.6144382203    1.0157143134
     39  H        -5.2257653857    0.6830273355   -1.2880684674
     40  H        -3.6541553570   -0.8932326174   -2.1187850793
     41  H        -1.8051313759    3.2641128009    0.4778313759
     42  H        -5.7827414505    0.1544561150    1.4699015031
     43  H        -7.3945930288   -1.5849273695    0.4895849344
     44  H        -7.1830548586   -0.4457550174   -0.8772502957
     45  H        -6.2645224994   -3.2667256894   -0.7722729028
     46  H        -5.8654044997   -2.1026922089   -2.0706628338
     47  H        -3.8112299434   -3.0287596289   -0.3480040663
     48  H        -3.1670306256    4.1267034689   -0.3154484356
     49  H        -1.7038997303    3.6828509215   -1.2792434352
     50  H         0.5923794443    3.0352193696   -0.8737132696
     51  H         2.2019374257    3.8483974074   -0.7054278317
     52  H         1.4418663683    3.0559911917    0.7224387984
     53  H         0.4503575663   -1.5676233969    0.7639715767
     54  H         0.6183250809   -0.2951179924   -0.5105941329
     55  H        -0.7907599552    0.0412751164    2.2598584943
     56  H        -0.5464463083    1.3633723807    1.0727938931
   Point Group: c1    Number of degrees of freedom:   162


   Energy is  -1510.251009645


 Attempting to Generate Delocalized Internal Coordinates

162 Hessian modes will be used to form the next step
  Hessian Eigenvalues:
     0.002000    0.002000    0.002000    0.002000    0.002000    0.002762
     0.002779    0.004033    0.004054    0.004286    0.004734    0.005066
     0.005193    0.005209    0.005418    0.006781    0.006823    0.009029
     0.010340    0.011178    0.012339    0.021548    0.021569    0.025679
     0.025768    0.030555    0.030628    0.034892    0.035282    0.037938
     0.038698    0.038855    0.042040    0.042079    0.043943    0.044224
     0.047420    0.047518    0.051126    0.051172    0.054076    0.054253
     0.055220    0.055593    0.055730    0.055851    0.056179    0.056354
     0.056902    0.059221    0.059335    0.060520    0.060595    0.063123
     0.063331    0.064413    0.064558    0.069986    0.070267    0.073208
     0.073323    0.091726    0.091840    0.092928    0.092958    0.096331
     0.096512    0.097033    0.097048    0.102437    0.102765    0.103758
     0.111357    0.111504    0.121421    0.121612    0.122414    0.131281
     0.143712    0.157654    0.157842    0.160000    0.160000    0.160000
     0.160000    0.160000    0.160000    0.164073    0.164127    0.218578
     0.219147    0.221189    0.221756    0.226914    0.230932    0.238223
     0.238617    0.239734    0.239753    0.244920    0.246406    0.246447
     0.247531    0.247656    0.248658    0.249853    0.250000    0.250000
     0.250000    0.250000    0.250000    0.250000    0.250000    0.250000
     0.253370    0.253482    0.255745    0.258107    0.260498    0.261594
     0.291625    0.291736    0.306429    0.306817    0.324242    0.324384
     0.324681    0.326521    0.326576    0.326887    0.326960    0.327189
     0.328424    0.328571    0.328600    0.329114    0.329458    0.329922
     0.330572    0.330875    0.331309    0.332343    0.334554    0.334628
     0.334700    0.334782    0.334985    0.334986    0.335204    0.335208
     0.336932    0.337112    0.346826    0.346961    0.382428    0.395707
     0.404521    0.417169    0.834028    0.835076    0.836162    0.837495

 Minimum Search - Taking Simple RFO Step
 Searching for Lamda that Minimizes Along All modes
 Value Taken    Lamda =  -0.01301601
 Calculated Step too Large.  Step scaled by  0.362397
 Step Taken.  Stepsize is  0.300000

                             Maximum     Tolerance    Cnvgd?
         Gradient           0.005968      0.000300      NO
         Displacement       0.085582      0.001200      NO
         Energy change     *********      0.000001      NO


 New Cartesian Coordinates Obtained by Inverse Iteration

 Displacement from previous Coordinates is:  1.789846
 Adding empirical dispersion correction 
 ----------------------------------------------------------------
 Doing -D3(op) with
 s6 =   1.00000
 s8 =   0.78311
 a1 =   0.30000
 a2 =   4.25000
 n  =  10.00000
 -D3 energy without 3body term =     -0.0714535427 hartrees
 ----------------------------------------------------------------
             Standard Nuclear Orientation (Angstroms)
    I     Atom           X                Y                Z
 ----------------------------------------------------------------
    1      O      -4.0317824286     2.2312949804     1.0922187008
    2      C      -3.7877185630     1.6157909977     0.0331977305
    3      C      -4.5206521114     0.3390892150    -0.5115644063
    4      C      -3.6070876753    -0.8293953308    -1.0512268877
    5      C      -2.1210144484    -0.8409060518    -0.5274037050
    6      O      -2.0379880778     0.0043108053     0.6168820123
    7      C      -0.7041099557     0.2237005727     1.2379986745
    8      C       0.5740836976    -0.4735103441     0.6437254688
    9      O       1.6859672445     0.1001325045     1.4489147028
   10      C       2.8194043089    -0.8041743306     1.4404667164
   11      C       3.4927665885    -1.0823104289     0.0294487742
   12      C       4.0007663286     0.2092545752    -0.7429890887
   13      C       3.4087893757     1.5911628125    -0.2968813833
   14      O       4.0204754122     2.5579252275     0.2057038250
   15      O      -2.9041565549     2.1028111290    -0.9944026367
   16      O       2.0323243109     1.6310226363    -0.6964078037
   17      O       3.2752466641    -1.2315322712     2.5215061086
   18      C       1.4150969892     2.9050621915    -0.2681825266
   19      C       4.8768466224    -1.8039656805     0.2996499567
   20      C       5.5159936392    -2.2826481386    -1.0642362023
   21      C       6.1028706758    -0.9326484721    -1.6241570557
   22      C       5.5714047969     0.0864899989    -0.5439699949
   23      O       5.7288286148    -0.6657535895     0.7215688014
   24      H       2.8056550029    -1.6748924926    -0.6019401352
   25      H       3.7457407415     0.1037853137    -1.8142988851
   26      H       4.8307442225    -2.5653393331     1.1019671855
   27      H       6.3081098010    -3.0256461276    -0.8810268263
   28      H       4.7645563185    -2.7283257491    -1.7359535630
   29      H       7.2046277045    -0.9456026137    -1.6276288216
   30      H       5.7478371235    -0.6976267067    -2.6402449176
   31      H       6.0967287885     1.0599242028    -0.4881066138
   32      O      -1.2148915716    -1.5738311718    -0.9772635842
   33      C      -2.3080742625     3.3874430786    -0.5682922573
   34      C      -5.4047560746    -0.4198319193     0.5668959034
   35      C      -6.5824120876    -1.1221686899    -0.2117929711
   36      C      -5.7905662842    -2.2461969401    -0.9795636320
   37      C      -4.3385972868    -2.0751830069    -0.3771167394
   38      O      -4.5708884937    -1.5684611978     0.9957674137
   39      H      -5.1687643973     0.6958706884    -1.3346479014
   40      H      -3.5902336909    -0.8831028954    -2.1538867656
   41      H      -1.7052541565     3.2782323340     0.3563180335
   42      H      -5.6919414290     0.2038846778     1.4359601787
   43      H      -7.3075997696    -1.5543969215     0.4963363790
   44      H      -7.1129762471    -0.4327697803    -0.8877090232
   45      H      -6.1850862423    -3.2496266569    -0.7545161886
   46      H      -5.8016046654    -2.1015572722    -2.0720278617
   47      H      -3.7281678276    -2.9992455548    -0.3556649821
   48      H      -3.0836684185     4.1596469339    -0.3863423330
   49      H      -1.6549492411     3.7127022028    -1.3991412874
   50      H       0.4081591104     2.9253832831    -0.7230124497
   51      H       2.0004775477     3.7814173506    -0.6130996902
   52      H       1.3231602941     2.9539040418     0.8363906497
   53      H       0.5070527142    -1.5755292038     0.7499560990
   54      H       0.7040963110    -0.2185039500    -0.4303460819
   55      H      -0.8036183412    -0.0750319109     2.3041389566
   56      H      -0.5308451658     1.3210388127     1.2123343130
 ----------------------------------------------------------------
 Molecular Point Group                 C1    NOp =  1
 Largest Abelian Subgroup              C1    NOp =  1
 Nuclear Repulsion Energy =  3147.7826774001 hartrees
 There are      113 alpha and      113 beta electrons
 Applying Cartesian multipole field
    Component          Value
    ---------          -----
     (2,0,0)        1.00000E-12
     (0,2,0)        2.00000E-11
     (0,0,2)       -3.00000E-11
 Nucleus-field energy     =     0.0000000332 hartrees
 Requested basis set is STO-3G
 There are 86 shells and 176 basis functions
 A cutoff of  1.0D-12 yielded   2187 shell pairs
 There are     10206 function pairs
 Smallest overlap matrix eigenvalue = 2.13E-01
 Guess MOs from SCF MO coefficient file
 Reading MOs from coefficient file
 Reading MOs from coefficient file
 A restricted hybrid HF-DFT SCF calculation will be
 performed using Pulay DIIS extrapolation
 Exchange:     0.2000 Hartree-Fock + 0.0800 Slater + 0.7200 B88
 Correlation:  0.1900 VWN1RPA + 0.8100 LYP
 Using SG-1 standard quadrature grid
 Dispersion:   Grimme D3
 SCF converges when DIIS error is below 1.0E-08
 Geometry optimization detected.  Setting ReadMinima to 0
 Setting SaveMinima to 0
 using 48 threads for integral computing
 -------------------------------------------------------
 OpenMP Integral computing Module                
 Release: version 1.0, May 2013, Q-Chem Inc. Pittsburgh 
 -------------------------------------------------------
 -------------------------------------------------------
 OpenMP BLAS3 based DFT computing Module                
 Release: version 1.0, May 2013, Q-Chem Inc. Pittsburgh 
 -------------------------------------------------------
 ---------------------------------------
  Cycle       Energy         DIIS Error
 ---------------------------------------
    1   -1510.2243771873      2.51E-03
    2   -1510.2538937810      2.06E-04
    3   -1510.2537751678      3.15E-04
    4   -1510.2541773645      1.00E-04
    5   -1510.2542161431      3.61E-05
    6   -1510.2542217844      1.07E-05
    7   -1510.2542222959      4.29E-06
    8   -1510.2542223753      1.13E-06
    9   -1510.2542223816      3.74E-07
   10   -1510.2542223821      2.66E-07
   11   -1510.2542223824      7.84E-08
   12   -1510.2542223824      2.10E-08
   13   -1510.2542223825      8.57E-09 Convergence criterion met
 ---------------------------------------
 SCF time:  CPU 93.45 s  wall 1.95 s
 SCF   energy in the final basis set = -1510.25422238
 Total energy in the final basis set = -1510.25422238
 
 --------------------------------------------------------------
 
                    Orbital Energies (a.u.)
 --------------------------------------------------------------
 
 Alpha MOs
 -- Occupied --
-18.947 -18.936 -18.929 -18.910 -18.899 -18.889 -18.885 -18.880
-18.880 -18.871 -10.111 -10.105 -10.103 -10.101 -10.080 -10.073
-10.068 -10.067 -10.064 -10.059 -10.058 -10.057 -10.043 -10.040
-10.039 -10.038 -10.024 -10.021 -10.020 -10.019  -1.020  -1.015
 -1.007  -1.005  -0.972  -0.969  -0.948  -0.941  -0.937  -0.934
 -0.766  -0.763  -0.730  -0.723  -0.710  -0.704  -0.702  -0.669
 -0.663  -0.614  -0.601  -0.594  -0.549  -0.547  -0.540  -0.538
 -0.515  -0.510  -0.486  -0.474  -0.468  -0.463  -0.458  -0.444
 -0.440  -0.434  -0.430  -0.419  -0.415  -0.413  -0.407  -0.406
 -0.398  -0.384  -0.377  -0.370  -0.369  -0.361  -0.355  -0.350
 -0.346  -0.344  -0.337  -0.334  -0.331  -0.327  -0.326  -0.313
 -0.311  -0.309  -0.308  -0.305  -0.302  -0.294  -0.285  -0.276
 -0.275  -0.257  -0.255  -0.250  -0.241  -0.236  -0.233  -0.184
 -0.180  -0.174  -0.168  -0.160  -0.158  -0.152  -0.149  -0.147
 -0.143
 -- Virtual --
  0.078   0.090   0.097   0.109   0.198   0.233   0.239   0.255
  0.258   0.265   0.281   0.285   0.295   0.306   0.316   0.325
  0.327   0.330   0.342   0.344   0.347   0.350   0.359   0.362
  0.374   0.378   0.380   0.394   0.399   0.401   0.403   0.406
  0.410   0.412   0.414   0.419   0.421   0.423   0.432   0.432
  0.433   0.437   0.439   0.443   0.447   0.452   0.463   0.464
  0.467   0.473   0.487   0.488   0.490   0.501   0.506   0.537
  0.541   0.551   0.553   0.612   0.636   0.645   0.649
 --------------------------------------------------------------
 
          Ground-State Mulliken Net Atomic Charges

     Atom                 Charge (a.u.)
  ----------------------------------------
      1 O                    -0.217837
      2 C                     0.219160
      3 C                    -0.079548
      4 C                    -0.075783
      5 C                     0.217469
      6 O                    -0.165926
      7 C                    -0.045245
      8 C                    -0.047917
      9 O                    -0.191349
     10 C                     0.216370
     11 C                    -0.082519
     12 C                    -0.081885
     13 C                     0.211409
     14 O                    -0.208543
     15 O                    -0.177661
     16 O                    -0.172497
     17 O                    -0.178379
     18 C                    -0.130198
     19 C                     0.024143
     20 C                    -0.145629
     21 C                    -0.142513
     22 C                     0.023399
     23 O                    -0.188102
     24 H                     0.082913
     25 H                     0.084068
     26 H                     0.089978
     27 H                     0.078711
     28 H                     0.072625
     29 H                     0.078545
     30 H                     0.072375
     31 H                     0.089739
     32 O                    -0.218151
     33 C                    -0.129013
     34 C                     0.024101
     35 C                    -0.142220
     36 C                    -0.144987
     37 C                     0.024275
     38 O                    -0.190302
     39 H                     0.082696
     40 H                     0.087274
     41 H                     0.084882
     42 H                     0.091606
     43 H                     0.078561
     44 H                     0.073313
     45 H                     0.078908
     46 H                     0.073889
     47 H                     0.083794
     48 H                     0.089182
     49 H                     0.086195
     50 H                     0.087405
     51 H                     0.091535
     52 H                     0.089943
     53 H                     0.088097
     54 H                     0.096181
     55 H                     0.095592
     56 H                     0.087874
  ----------------------------------------
  Sum of atomic charges =    -0.000000

 -----------------------------------------------------------------
                    Cartesian Multipole Moments
 -----------------------------------------------------------------
    Charge (ESU x 10^10)
                -0.0000
    Dipole Moment (Debye)
         X      -2.3095      Y      -0.3010      Z      -4.5470
       Tot       5.1088
    Quadrupole Moments (Debye-Ang)
        XX    -161.3008     XY      -3.0795     YY    -155.2468
        XZ      -5.3594     YZ      -0.8865     ZZ    -167.4668
    Octopole Moments (Debye-Ang^2)
       XXX    -109.6839    XXY     -44.4333    XYY      -4.4253
       YYY      25.5505    XXZ    -105.3234    XYZ       4.8027
       YYZ      -5.7185    XZZ      -9.4831    YZZ      10.7576
       ZZZ       3.1230
    Hexadecapole Moments (Debye-Ang^3)
      XXXX  -15483.9713   XXXY      28.9458   XXYY   -3101.4980
      XYYY     -14.0355   YYYY   -2669.3795   XXXZ    -176.5205
      XXYZ       6.5505   XYYZ      20.5263   YYYZ     -58.5398
      XXZZ   -2885.0614   XYZZ      50.0521   YYZZ    -659.9664
      XZZZ     -56.7957   YZZZ       9.3800   ZZZZ   -1069.2843
 -----------------------------------------------------------------
 Calculating analytic gradient of the SCF energy
 Gradient of SCF Energy
            1           2           3           4           5           6
    1  -0.0022291   0.0019803  -0.0008471   0.0001805  -0.0002597   0.0010061
    2   0.0013446  -0.0010362  -0.0023958   0.0026642   0.0009240  -0.0015389
    3  -0.0009698  -0.0004484   0.0047650  -0.0043911  -0.0000756   0.0009835
            7           8           9          10          11          12
    1   0.0001158   0.0002131   0.0016690  -0.0012798  -0.0009697   0.0040397
    2   0.0005919  -0.0007482   0.0052126  -0.0033174   0.0033087   0.0003207
    3  -0.0003485   0.0056434  -0.0072594   0.0019474  -0.0016762   0.0027355
           13          14          15          16          17          18
    1  -0.0022831   0.0011562   0.0004185  -0.0011944  -0.0005296  -0.0001334
    2  -0.0009634   0.0017569   0.0012269  -0.0020131  -0.0021398  -0.0002456
    3   0.0013393  -0.0031281  -0.0007081   0.0019530   0.0000458   0.0005446
           19          20          21          22          23          24
    1   0.0002208   0.0000658  -0.0002149  -0.0001299  -0.0000708  -0.0002967
    2  -0.0002328  -0.0001670   0.0000884  -0.0004489  -0.0002620   0.0002491
    3   0.0002057   0.0000972   0.0000309   0.0004480  -0.0001151  -0.0002734
           25          26          27          28          29          30
    1   0.0004787   0.0000845   0.0000604   0.0000329   0.0000052   0.0000480
    2   0.0005534   0.0000031  -0.0000622  -0.0000638  -0.0000289   0.0000078
    3  -0.0002923  -0.0000854  -0.0000668   0.0000275   0.0000197   0.0000163
           31          32          33          34          35          36
    1  -0.0001489  -0.0014678   0.0005131   0.0000490   0.0002186   0.0000696
    2   0.0001356  -0.0018876  -0.0002530  -0.0005216  -0.0003285   0.0001109
    3  -0.0000914   0.0013471  -0.0000408  -0.0001486  -0.0004017   0.0002613
           37          38          39          40          41          42
    1  -0.0001125   0.0002854  -0.0002888   0.0000955   0.0003629   0.0000695
    2  -0.0004705  -0.0000960   0.0004299   0.0004843   0.0000983   0.0001524
    3  -0.0001540  -0.0003036   0.0002247   0.0000357  -0.0001442  -0.0001111
           43          44          45          46          47          48
    1  -0.0000658  -0.0001105  -0.0000544  -0.0000378   0.0000435  -0.0000110
    2   0.0001178  -0.0000474  -0.0000209  -0.0001233  -0.0000374   0.0000592
    3   0.0000581   0.0000376  -0.0001151   0.0000144   0.0000086  -0.0000309
           49          50          51          52          53          54
    1   0.0003015  -0.0012529   0.0000316  -0.0001834   0.0000596  -0.0001433
    2  -0.0001747   0.0001483   0.0000739   0.0000036  -0.0001506  -0.0005479
    3   0.0001101   0.0000184  -0.0000476   0.0000146  -0.0006057  -0.0005737
           55          56
    1   0.0001180   0.0003219
    2   0.0000427   0.0002141
    3   0.0000273  -0.0003542
 Max gradient component =       7.259E-03
 RMS gradient           =       1.332E-03
 Gradient time:  CPU 30.55 s  wall 0.65 s
 Geometry Optimization Parameters
   NAtoms,    NIC,     NZ,  NCons,   NDum,   NFix, NCnnct, MaxDiis
       56     458       0       0       0       0       0       0

 Cartesian Hessian Update
 Hessian Updated using BFGS Update


** GEOMETRY OPTIMIZATION IN DELOCALIZED INTERNAL COORDINATES **
   Searching for a Minimum

   Optimization Cycle:   2

                       Coordinates (Angstroms)
     ATOM                X               Y               Z
      1  O        -4.0317824286    2.2312949804    1.0922187008
      2  C        -3.7877185630    1.6157909977    0.0331977305
      3  C        -4.5206521114    0.3390892150   -0.5115644063
      4  C        -3.6070876753   -0.8293953308   -1.0512268877
      5  C        -2.1210144484   -0.8409060518   -0.5274037050
      6  O        -2.0379880778    0.0043108053    0.6168820123
      7  C        -0.7041099557    0.2237005727    1.2379986745
      8  C         0.5740836976   -0.4735103441    0.6437254688
      9  O         1.6859672445    0.1001325045    1.4489147028
     10  C         2.8194043089   -0.8041743306    1.4404667164
     11  C         3.4927665885   -1.0823104289    0.0294487742
     12  C         4.0007663286    0.2092545752   -0.7429890887
     13  C         3.4087893757    1.5911628125   -0.2968813833
     14  O         4.0204754122    2.5579252275    0.2057038250
     15  O        -2.9041565549    2.1028111290   -0.9944026367
     16  O         2.0323243109    1.6310226363   -0.6964078037
     17  O         3.2752466641   -1.2315322712    2.5215061086
     18  C         1.4150969892    2.9050621915   -0.2681825266
     19  C         4.8768466224   -1.8039656805    0.2996499567
     20  C         5.5159936392   -2.2826481386   -1.0642362023
     21  C         6.1028706758   -0.9326484721   -1.6241570557
     22  C         5.5714047969    0.0864899989   -0.5439699949
     23  O         5.7288286148   -0.6657535895    0.7215688014
     24  H         2.8056550029   -1.6748924926   -0.6019401352
     25  H         3.7457407415    0.1037853137   -1.8142988851
     26  H         4.8307442225   -2.5653393331    1.1019671855
     27  H         6.3081098010   -3.0256461276   -0.8810268263
     28  H         4.7645563185   -2.7283257491   -1.7359535630
     29  H         7.2046277045   -0.9456026137   -1.6276288216
     30  H         5.7478371235   -0.6976267067   -2.6402449176
     31  H         6.0967287885    1.0599242028   -0.4881066138
     32  O        -1.2148915716   -1.5738311718   -0.9772635842
     33  C        -2.3080742625    3.3874430786   -0.5682922573
     34  C        -5.4047560746   -0.4198319193    0.5668959034
     35  C        -6.5824120876   -1.1221686899   -0.2117929711
     36  C        -5.7905662842   -2.2461969401   -0.9795636320
     37  C        -4.3385972868   -2.0751830069   -0.3771167394
     38  O        -4.5708884937   -1.5684611978    0.9957674137
     39  H        -5.1687643973    0.6958706884   -1.3346479014
     40  H        -3.5902336909   -0.8831028954   -2.1538867656
     41  H        -1.7052541565    3.2782323340    0.3563180335
     42  H        -5.6919414290    0.2038846778    1.4359601787
     43  H        -7.3075997696   -1.5543969215    0.4963363790
     44  H        -7.1129762471   -0.4327697803   -0.8877090232
     45  H        -6.1850862423   -3.2496266569   -0.7545161886
     46  H        -5.8016046654   -2.1015572722   -2.0720278617
     47  H        -3.7281678276   -2.9992455548   -0.3556649821
     48  H        -3.0836684185    4.1596469339   -0.3863423330
     49  H        -1.6549492411    3.7127022028   -1.3991412874
     50  H         0.4081591104    2.9253832831   -0.7230124497
     51  H         2.0004775477    3.7814173506   -0.6130996902
     52  H         1.3231602941    2.9539040418    0.8363906497
     53  H         0.5070527142   -1.5755292038    0.7499560990
     54  H         0.7040963110   -0.2185039500   -0.4303460819
     55  H        -0.8036183412   -0.0750319109    2.3041389566
     56  H        -0.5308451658    1.3210388127    1.2123343130
   Point Group: c1    Number of degrees of freedom:   162


   Energy is  -1510.254222382

 Hessian Updated using BFGS Update

149 Hessian modes will be used to form the next step
  Hessian Eigenvalues:
     0.000960    0.002556    0.002765    0.002795    0.003564    0.004050
     0.004273    0.004874    0.005191    0.005208    0.005265    0.006311
     0.006764    0.006819    0.009700    0.010693    0.011332    0.021470
     0.021563    0.025253    0.025719    0.028771    0.030574    0.030916
     0.035001    0.035522    0.037913    0.038771    0.040413    0.042032
     0.042048    0.043571    0.045168    0.047399    0.050964    0.051132
     0.051569    0.054173    0.054472    0.055218    0.055542    0.055850
     0.056148    0.056334    0.056834    0.059129    0.059316    0.060447
     0.060576    0.063120    0.063331    0.064413    0.064557    0.068747
     0.069994    0.070270    0.073271    0.073341    0.091720    0.091888
     0.092903    0.093138    0.096332    0.096939    0.097047    0.099125
     0.102480    0.102832    0.103758    0.111341    0.111592    0.121228
     0.122407    0.129219    0.137404    0.144125    0.157394    0.159952
     0.159993    0.163591    0.163978    0.166490    0.218517    0.220044
     0.221049    0.222527    0.228342    0.230980    0.238335    0.238606
     0.239695    0.239758    0.244915    0.245648    0.246491    0.247001
     0.247607    0.247664    0.248732    0.249854    0.253360    0.253482
     0.255745    0.258070    0.260450    0.261578    0.291578    0.291711
     0.306295    0.306793    0.324242    0.324288    0.324661    0.326520
     0.326574    0.326883    0.326946    0.327184    0.328423    0.328571
     0.328599    0.329103    0.329451    0.329915    0.330503    0.330597
     0.330894    0.332342    0.334553    0.334623    0.334700    0.334782
     0.334984    0.334985    0.335200    0.335206    0.335512    0.337109
     0.346523    0.346952    0.382360    0.389850    0.401281    0.416615
     0.455861    0.834232    0.835264    0.836213    0.837768

 Minimum Search - Taking Simple RFO Step
 Searching for Lamda that Minimizes Along All modes
 Value Taken    Lamda =  -0.01272823
 Calculated Step too Large.  Step scaled by  0.332200
 Step Taken.  Stepsize is  0.300000

                             Maximum     Tolerance    Cnvgd?
         Gradient           0.014657      0.000300      NO
         Displacement       0.069103      0.001200      NO
         Energy change     -0.003213      0.000001      NO


 New Cartesian Coordinates Obtained by Inverse Iteration

 Displacement from previous Coordinates is:  2.617895
 Adding empirical dispersion correction 
 ----------------------------------------------------------------
 Doing -D3(op) with
 s6 =   1.00000
 s8 =   0.78311
 a1 =   0.30000
 a2 =   4.25000
 n  =  10.00000
 -D3 energy without 3body term =     -0.0706612447 hartrees
 ----------------------------------------------------------------
             Standard Nuclear Orientation (Angstroms)
    I     Atom           X                Y                Z
 ----------------------------------------------------------------
    1      O      -4.0802957394     2.1470425608     1.1985856713
    2      C      -3.8645101336     1.6205430494     0.0868003553
    3      C      -4.5308570826     0.3260212617    -0.4989733288
    4      C      -3.5577082070    -0.7590674355    -1.1047639420
    5      C      -2.0602823427    -0.6864953444    -0.6195678636
    6      O      -2.0191536229     0.0705722269     0.5868332523
    7      C      -0.7049454669     0.2734412824     1.2538394261
    8      C       0.6038708468    -0.3556371838     0.6493994720
    9      O       1.6773708345     0.1725792252     1.5350894216
   10      C       2.8197080901    -0.7202553323     1.5202580113
   11      C       3.4322071107    -1.0794704157     0.0990308655
   12      C       3.9659319528     0.1585716626    -0.7454853672
   13      C       3.4618317654     1.5852206403    -0.3346701467
   14      O       4.1269068183     2.5133013890     0.1727662667
   15      O      -3.0598330102     2.2201093552    -0.9452822385
   16      O       2.0980282953     1.7129743567    -0.7568808508
   17      O       3.2900480642    -1.1323326035     2.6009399204
   18      C       1.5692636275     3.0376507328    -0.3664292202
   19      C       4.7926523985    -1.8481877994     0.3553561879
   20      C       5.3677379430    -2.4070309568    -1.0063590032
   21      C       5.9927461690    -1.1069874946    -1.6377601925
   22      C       5.5359542378    -0.0248859541    -0.5850896301
   23      O       5.7023541129    -0.7310241209     0.7052354453
   24      H       2.7015517736    -1.6691638898    -0.4841354514
   25      H       3.6787340558     0.0259551242    -1.8054837218
   26      H       4.7409845794    -2.5740247083     1.1896031778
   27      H       6.1338083494    -3.1749226496    -0.8158392236
   28      H       4.5780486895    -2.8466446495    -1.6370251932
   29      H       7.0924109737    -1.1667107340    -1.6721990068
   30      H       5.6169779192    -0.8972425411    -2.6519570191
   31      H       6.1028511408     0.9265506491    -0.5837356896
   32      O      -1.1178101942    -1.3344977328    -1.1220994453
   33      C      -2.5332075581     3.5176872575    -0.4699836420
   34      C      -5.3312636970    -0.5338565497     0.5701504050
   35      C      -6.4827735281    -1.2795764437    -0.2066245469
   36      C      -5.6421762859    -2.3175684220    -1.0418349393
   37      C      -4.1879829191    -2.0773101125    -0.4688488219
   38      O      -4.4144927268    -1.6426263197     0.9293698084
   39      H      -5.2266781611     0.6736737042    -1.2860920795
   40      H      -3.5670781769    -0.7634251912    -2.2088438920
   41      H      -1.8853902116     3.4000123190     0.4226502665
   42      H      -5.6335735271     0.0333096899     1.4722259640
   43      H      -7.1584123257    -1.7872662712     0.5003521266
   44      H      -7.0748302994    -0.5989243109    -0.8388967127
   45      H      -5.9649767197    -3.3529320065    -0.8497253928
   46      H      -5.6927071002    -2.1289130668    -2.1264474889
   47      H      -3.5186321957    -2.9592156163    -0.5015547621
   48      H      -3.3506147890     4.2225788074    -0.2134282940
   49      H      -1.9402774539     3.9330077522    -1.3058371554
   50      H       0.5744209406     3.1205199544    -0.8395764960
   51      H       2.2224263290     3.8611225939    -0.7197915854
   52      H       1.4637208695     3.1179369049     0.7350860275
   53      H       0.5539620123    -1.4633794795     0.6727289754
   54      H       0.7635577907    -0.0187530019    -0.3976497046
   55      H      -0.8255751557    -0.1034156195     2.2926925217
   56      H      -0.5556235788     1.3729272922     1.3121798610
 ----------------------------------------------------------------
 Molecular Point Group                 C1    NOp =  1
 Largest Abelian Subgroup              C1    NOp =  1
 Nuclear Repulsion Energy =  3142.9857489876 hartrees
 There are      113 alpha and      113 beta electrons
 Applying Cartesian multipole field
    Component          Value
    ---------          -----
     (2,0,0)        1.00000E-12
     (0,2,0)        2.00000E-11
     (0,0,2)       -3.00000E-11
 Nucleus-field energy     =     0.0000000334 hartrees
 Requested basis set is STO-3G
 There are 86 shells and 176 basis functions
 A cutoff of  1.0D-12 yielded   2177 shell pairs
 There are     10193 function pairs
 Smallest overlap matrix eigenvalue = 2.13E-01
 Guess MOs from SCF MO coefficient file
 Reading MOs from coefficient file
 Reading MOs from coefficient file
 A restricted hybrid HF-DFT SCF calculation will be
 performed using Pulay DIIS extrapolation
 Exchange:     0.2000 Hartree-Fock + 0.0800 Slater + 0.7200 B88
 Correlation:  0.1900 VWN1RPA + 0.8100 LYP
 Using SG-1 standard quadrature grid
 Dispersion:   Grimme D3
 SCF converges when DIIS error is below 1.0E-08
 Geometry optimization detected.  Setting ReadMinima to 0
 Setting SaveMinima to 0
 using 48 threads for integral computing
 -------------------------------------------------------
 OpenMP Integral computing Module                
 Release: version 1.0, May 2013, Q-Chem Inc. Pittsburgh 
 -------------------------------------------------------
 -------------------------------------------------------
 OpenMP BLAS3 based DFT computing Module                
 Release: version 1.0, May 2013, Q-Chem Inc. Pittsburgh 
 -------------------------------------------------------
 ---------------------------------------
  Cycle       Energy         DIIS Error
 ---------------------------------------
    1   -1510.1768599056      4.18E-03
    2   -1510.2558045779      3.51E-04
    3   -1510.2554603516      5.43E-04
    4   -1510.2566061698      1.70E-04
    5   -1510.2567229309      5.76E-05
    6   -1510.2567380679      1.47E-05
    7   -1510.2567390656      5.89E-06
    8   -1510.2567392022      2.68E-06
    9   -1510.2567392353      5.53E-07
   10   -1510.2567392365      4.06E-07
   11   -1510.2567392372      1.36E-07
   12   -1510.2567392373      3.30E-08
   13   -1510.2567392373      1.60E-08
   14   -1510.2567392374      6.57E-09 Convergence criterion met
 ---------------------------------------
 SCF time:  CPU 98.58 s  wall 2.06 s
 SCF   energy in the final basis set = -1510.25673924
 Total energy in the final basis set = -1510.25673924
 
 --------------------------------------------------------------
 
                    Orbital Energies (a.u.)
 --------------------------------------------------------------
 
 Alpha MOs
 -- Occupied --
-18.947 -18.939 -18.929 -18.913 -18.896 -18.889 -18.885 -18.881
-18.880 -18.871 -10.111 -10.104 -10.103 -10.100 -10.080 -10.072
-10.069 -10.067 -10.064 -10.059 -10.058 -10.057 -10.043 -10.040
-10.039 -10.038 -10.024 -10.021 -10.020 -10.019  -1.019  -1.016
 -1.007  -1.005  -0.972  -0.969  -0.947  -0.942  -0.938  -0.934
 -0.766  -0.763  -0.730  -0.722  -0.710  -0.705  -0.702  -0.668
 -0.664  -0.614  -0.602  -0.594  -0.549  -0.547  -0.540  -0.538
 -0.515  -0.509  -0.486  -0.474  -0.467  -0.463  -0.458  -0.444
 -0.440  -0.434  -0.430  -0.417  -0.416  -0.413  -0.409  -0.406
 -0.398  -0.384  -0.377  -0.371  -0.368  -0.360  -0.356  -0.350
 -0.346  -0.343  -0.338  -0.334  -0.330  -0.326  -0.326  -0.313
 -0.311  -0.309  -0.308  -0.305  -0.302  -0.294  -0.286  -0.276
 -0.275  -0.259  -0.255  -0.250  -0.242  -0.236  -0.233  -0.183
 -0.180  -0.175  -0.170  -0.160  -0.158  -0.152  -0.149  -0.146
 -0.143
 -- Virtual --
  0.081   0.090   0.096   0.109   0.199   0.233   0.239   0.255
  0.258   0.266   0.281   0.285   0.293   0.306   0.316   0.325
  0.328   0.329   0.342   0.344   0.347   0.350   0.359   0.365
  0.374   0.377   0.381   0.394   0.401   0.404   0.405   0.408
  0.413   0.413   0.414   0.419   0.420   0.425   0.431   0.431
  0.432   0.437   0.439   0.445   0.449   0.452   0.459   0.461
  0.464   0.467   0.483   0.488   0.489   0.501   0.507   0.537
  0.542   0.551   0.553   0.614   0.637   0.644   0.649
 --------------------------------------------------------------
 
          Ground-State Mulliken Net Atomic Charges

     Atom                 Charge (a.u.)
  ----------------------------------------
      1 O                    -0.217232
      2 C                     0.218578
      3 C                    -0.079631
      4 C                    -0.075495
      5 C                     0.216650
      6 O                    -0.165792
      7 C                    -0.045509
      8 C                    -0.050128
      9 O                    -0.188588
     10 C                     0.214848
     11 C                    -0.082838
     12 C                    -0.082218
     13 C                     0.210550
     14 O                    -0.207692
     15 O                    -0.177363
     16 O                    -0.172702
     17 O                    -0.180759
     18 C                    -0.129441
     19 C                     0.024254
     20 C                    -0.145700
     21 C                    -0.142607
     22 C                     0.023601
     23 O                    -0.187815
     24 H                     0.083334
     25 H                     0.084310
     26 H                     0.090211
     27 H                     0.078711
     28 H                     0.072728
     29 H                     0.078528
     30 H                     0.072349
     31 H                     0.089179
     32 O                    -0.218711
     33 C                    -0.128768
     34 C                     0.024172
     35 C                    -0.142236
     36 C                    -0.144902
     37 C                     0.024230
     38 O                    -0.190144
     39 H                     0.082594
     40 H                     0.086864
     41 H                     0.085143
     42 H                     0.091448
     43 H                     0.078505
     44 H                     0.073227
     45 H                     0.078957
     46 H                     0.074042
     47 H                     0.083666
     48 H                     0.088537
     49 H                     0.086298
     50 H                     0.087693
     51 H                     0.092408
     52 H                     0.090599
     53 H                     0.086713
     54 H                     0.099381
     55 H                     0.095883
     56 H                     0.088085
  ----------------------------------------
  Sum of atomic charges =     0.000000

 -----------------------------------------------------------------
                    Cartesian Multipole Moments
 -----------------------------------------------------------------
    Charge (ESU x 10^10)
                 0.0000
    Dipole Moment (Debye)
         X      -2.4958      Y      -0.2443      Z      -4.5424
       Tot       5.1886
    Quadrupole Moments (Debye-Ang)
        XX    -162.2129     XY      -3.2857     YY    -153.3337
        XZ      -5.6254     YZ      -0.7702     ZZ    -168.3233
    Octopole Moments (Debye-Ang^2)
       XXX    -122.5908    XXY     -44.1852    XYY      -6.2568
       YYY      27.6276    XXZ    -104.3179    XYZ       3.8296
       YYZ      -5.3419    XZZ     -11.2068    YZZ       8.6748
       ZZZ       2.4422
    Hexadecapole Moments (Debye-Ang^3)
      XXXX  -15289.3116   XXXY      54.4497   XXYY   -3062.3545
      XYYY      13.7426   YYYY   -2751.0038   XXXZ    -205.9369
      XXYZ      -0.7234   XYYZ      12.7664   YYYZ     -67.7701
      XXZZ   -2851.7102   XYZZ      66.8906   YYZZ    -686.4284
      XZZZ     -81.8693   YZZZ      -9.4329   ZZZZ   -1127.4825
 -----------------------------------------------------------------
 Calculating analytic gradient of the SCF energy
 Gradient of SCF Energy
            1           2           3           4           5           6
    1  -0.0009098   0.0000715   0.0001516  -0.0003543   0.0007342   0.0008368
    2   0.0005167   0.0005180  -0.0019709   0.0001177   0.0051930  -0.0019612
    3  -0.0000528  -0.0018238   0.0023005  -0.0005107  -0.0032044   0.0014235
            7           8           9          10          11          12
    1   0.0000765   0.0015721  -0.0008055   0.0028193  -0.0012883   0.0023102
    2   0.0001454  -0.0005792   0.0041983   0.0003795   0.0015442   0.0006286
    3   0.0000939   0.0053770  -0.0049286   0.0029810  -0.0008869   0.0016950
           13          14          15          16          17          18
    1  -0.0022722   0.0012502   0.0009337  -0.0007971  -0.0018024   0.0006057
    2   0.0004230   0.0012894   0.0011412  -0.0009637  -0.0042252  -0.0003932
    3  -0.0001635  -0.0025019  -0.0007364   0.0012313  -0.0003520  -0.0001571
           19          20          21          22          23          24
    1   0.0001862   0.0000205   0.0001397  -0.0010487  -0.0002695  -0.0005079
    2  -0.0006683   0.0001746  -0.0000077  -0.0008563  -0.0001416   0.0001605
    3  -0.0003136   0.0002553   0.0000448   0.0007698   0.0003118  -0.0003474
           25          26          27          28          29          30
    1   0.0012851   0.0001744   0.0000077  -0.0000141  -0.0000063   0.0000867
    2   0.0008919   0.0000386   0.0000243  -0.0001755  -0.0000218   0.0000893
    3  -0.0007827   0.0000558   0.0000027  -0.0000685   0.0000053  -0.0000031
           31          32          33          34          35          36
    1  -0.0002069  -0.0020454  -0.0006767   0.0006687  -0.0000215  -0.0000074
    2   0.0001477  -0.0033244  -0.0004322  -0.0002300   0.0000579  -0.0000964
    3   0.0000327   0.0024651  -0.0000429  -0.0005396   0.0001935   0.0001368
           37          38          39          40          41          42
    1  -0.0006808   0.0003543  -0.0008077   0.0001254  -0.0002359  -0.0001143
    2  -0.0012171  -0.0003773   0.0004227   0.0009652   0.0002803   0.0001388
    3  -0.0010223  -0.0003791   0.0007808   0.0001309   0.0000153  -0.0000374
           43          44          45          46          47          48
    1  -0.0000029   0.0001180   0.0000008   0.0000403   0.0000383  -0.0000355
    2   0.0000456   0.0000521   0.0000616  -0.0000938  -0.0000556   0.0000529
    3  -0.0000024   0.0000264  -0.0000157   0.0000222   0.0000783   0.0000181
           49          50          51          52          53          54
    1  -0.0001918   0.0006845   0.0000065  -0.0000298   0.0003962  -0.0006541
    2   0.0000927  -0.0000898   0.0001896  -0.0000280  -0.0003458  -0.0010179
    3  -0.0000370   0.0000836  -0.0000081  -0.0000764  -0.0005105  -0.0008478
           55          56
    1   0.0001873  -0.0000958
    2  -0.0001509  -0.0005578
    3  -0.0000344  -0.0001446
 Max gradient component =       5.377E-03
 RMS gradient           =       1.208E-03
 Gradient time:  CPU 31.32 s  wall 0.67 s
 Geometry Optimization Parameters
   NAtoms,    NIC,     NZ,  NCons,   NDum,   NFix, NCnnct, MaxDiis
       56     458       0       0       0       0       0       0

 Cartesian Hessian Update
 Hessian Updated using BFGS Update


** GEOMETRY OPTIMIZATION IN DELOCALIZED INTERNAL COORDINATES **
   Searching for a Minimum

   Optimization Cycle:   3

                       Coordinates (Angstroms)
     ATOM                X               Y               Z
      1  O        -4.0802957394    2.1470425608    1.1985856713
      2  C        -3.8645101336    1.6205430494    0.0868003553
      3  C        -4.5308570826    0.3260212617   -0.4989733288
      4  C        -3.5577082070   -0.7590674355   -1.1047639420
      5  C        -2.0602823427   -0.6864953444   -0.6195678636
      6  O        -2.0191536229    0.0705722269    0.5868332523
      7  C        -0.7049454669    0.2734412824    1.2538394261
      8  C         0.6038708468   -0.3556371838    0.6493994720
      9  O         1.6773708345    0.1725792252    1.5350894216
     10  C         2.8197080901   -0.7202553323    1.5202580113
     11  C         3.4322071107   -1.0794704157    0.0990308655
     12  C         3.9659319528    0.1585716626   -0.7454853672
     13  C         3.4618317654    1.5852206403   -0.3346701467
     14  O         4.1269068183    2.5133013890    0.1727662667
     15  O        -3.0598330102    2.2201093552   -0.9452822385
     16  O         2.0980282953    1.7129743567   -0.7568808508
     17  O         3.2900480642   -1.1323326035    2.6009399204
     18  C         1.5692636275    3.0376507328   -0.3664292202
     19  C         4.7926523985   -1.8481877994    0.3553561879
     20  C         5.3677379430   -2.4070309568   -1.0063590032
     21  C         5.9927461690   -1.1069874946   -1.6377601925
     22  C         5.5359542378   -0.0248859541   -0.5850896301
     23  O         5.7023541129   -0.7310241209    0.7052354453
     24  H         2.7015517736   -1.6691638898   -0.4841354514
     25  H         3.6787340558    0.0259551242   -1.8054837218
     26  H         4.7409845794   -2.5740247083    1.1896031778
     27  H         6.1338083494   -3.1749226496   -0.8158392236
     28  H         4.5780486895   -2.8466446495   -1.6370251932
     29  H         7.0924109737   -1.1667107340   -1.6721990068
     30  H         5.6169779192   -0.8972425411   -2.6519570191
     31  H         6.1028511408    0.9265506491   -0.5837356896
     32  O        -1.1178101942   -1.3344977328   -1.1220994453
     33  C        -2.5332075581    3.5176872575   -0.4699836420
     34  C        -5.3312636970   -0.5338565497    0.5701504050
     35  C        -6.4827735281   -1.2795764437   -0.2066245469
     36  C        -5.6421762859   -2.3175684220   -1.0418349393
     37  C        -4.1879829191   -2.0773101125   -0.4688488219
     38  O        -4.4144927268   -1.6426263197    0.9293698084
     39  H        -5.2266781611    0.6736737042   -1.2860920795
     40  H        -3.5670781769   -0.7634251912   -2.2088438920
     41  H        -1.8853902116    3.4000123190    0.4226502665
     42  H        -5.6335735271    0.0333096899    1.4722259640
     43  H        -7.1584123257   -1.7872662712    0.5003521266
     44  H        -7.0748302994   -0.5989243109   -0.8388967127
     45  H        -5.9649767197   -3.3529320065   -0.8497253928
     46  H        -5.6927071002   -2.1289130668   -2.1264474889
     47  H        -3.5186321957   -2.9592156163   -0.5015547621
     48  H        -3.3506147890    4.2225788074   -0.2134282940
     49  H        -1.9402774539    3.9330077522   -1.3058371554
     50  H         0.5744209406    3.1205199544   -0.8395764960
     51  H         2.2224263290    3.8611225939   -0.7197915854
     52  H         1.4637208695    3.1179369049    0.7350860275
     53  H         0.5539620123   -1.4633794795    0.6727289754
     54  H         0.7635577907   -0.0187530019   -0.3976497046
     55  H        -0.8255751557   -0.1034156195    2.2926925217
     56  H        -0.5556235788    1.3729272922    1.3121798610
   Point Group: c1    Number of degrees of freedom:   162


   Energy is  -1510.256739237

 Hessian Updated using BFGS Update

152 Hessian modes will be used to form the next step
  Hessian Eigenvalues:
     0.001489    0.002244    0.002607    0.002757    0.002769    0.003508
     0.004050    0.004270    0.004919    0.005192    0.005209    0.005582
     0.006686    0.006819    0.007743    0.010539    0.011259    0.021399
     0.021512    0.024736    0.025219    0.026298    0.028861    0.030577
     0.031267    0.035252    0.035886    0.037492    0.038940    0.040395
     0.042041    0.042143    0.043087    0.045336    0.047984    0.051122
     0.051201    0.052140    0.054206    0.054526    0.055290    0.055815
     0.055862    0.056164    0.056535    0.056922    0.059136    0.059432
     0.060565    0.061306    0.063145    0.063330    0.064413    0.064561
     0.069957    0.070270    0.073159    0.073327    0.075377    0.091801
     0.091889    0.092973    0.093169    0.096327    0.096795    0.097053
     0.101153    0.102615    0.103038    0.103776    0.111359    0.113069
     0.120980    0.122401    0.130807    0.141012    0.144784    0.156880
     0.159953    0.159993    0.160023    0.163942    0.164779    0.181658
     0.218671    0.219883    0.220828    0.226981    0.227758    0.232209
     0.237947    0.238405    0.239434    0.239758    0.240526    0.244927
     0.246483    0.246641    0.247588    0.247667    0.248747    0.249859
     0.253338    0.253482    0.255350    0.257908    0.260362    0.261574
     0.265154    0.291700    0.291785    0.306254    0.306786    0.324242
     0.324379    0.324637    0.326519    0.326573    0.326885    0.326946
     0.327192    0.328422    0.328572    0.328599    0.329111    0.329451
     0.329910    0.330547    0.330647    0.330872    0.332342    0.334555
     0.334634    0.334700    0.334782    0.334985    0.334986    0.335204
     0.335206    0.336142    0.337356    0.346379    0.346947    0.381889
     0.394809    0.401852    0.417195    0.597223    0.834023    0.835179
     0.836158    0.837548

 Minimum Search - Taking Simple RFO Step
 Searching for Lamda that Minimizes Along All modes
 Value Taken    Lamda =  -0.01044123
 Calculated Step too Large.  Step scaled by  0.344105
 Step Taken.  Stepsize is  0.300000

                             Maximum     Tolerance    Cnvgd?
         Gradient           0.011990      0.000300      NO
         Displacement       0.086625      0.001200      NO
         Energy change     -0.002517      0.000001      NO


 New Cartesian Coordinates Obtained by Inverse Iteration

 Displacement from previous Coordinates is:  2.653261
 Adding empirical dispersion correction 
 ----------------------------------------------------------------
 Doing -D3(op) with
 s6 =   1.00000
 s8 =   0.78311
 a1 =   0.30000
 a2 =   4.25000
 n  =  10.00000
 -D3 energy without 3body term =     -0.0714729137 hartrees
 ----------------------------------------------------------------
             Standard Nuclear Orientation (Angstroms)
    I     Atom           X                Y                Z
 ----------------------------------------------------------------
    1      O      -4.0583158272     2.0302618264     1.3441692906
    2      C      -3.8387811033     1.5915610103     0.1957372876
    3      C      -4.4805261883     0.3335733826    -0.4871659273
    4      C      -3.4760948255    -0.7000999948    -1.1297750811
    5      C      -1.9886635963    -0.6017304983    -0.6219112378
    6      O      -1.9919032175     0.1143574603     0.6094196690
    7      C      -0.6960697193     0.3257244367     1.3072582458
    8      C       0.6360695011    -0.2557182619     0.7061419283
    9      O       1.6813656711     0.2612042656     1.6333853947
   10      C       2.8447108746    -0.6027158636     1.6171627512
   11      C       3.3824079057    -1.0765249637     0.1983280659
   12      C       3.8442268764     0.0903383792    -0.7828966778
   13      C       3.3592444632     1.5450238123    -0.4580464299
   14      O       4.0379949565     2.4935535295    -0.0106392844
   15      O      -3.0099464456     2.2540285190    -0.7754865019
   16      O       1.9941539725     1.6656356710    -0.8768625948
   17      O       3.3912610239    -0.9029311840     2.6986590120
   18      C       1.4893677385     3.0215544499    -0.5713360782
   19      C       4.7675311623    -1.8023768538     0.4419078460
   20      C       5.2732583739    -2.4732188539    -0.8964059172
   21      C       5.8397016214    -1.2275734042    -1.6748589446
   22      C       5.4246591951    -0.0623746588    -0.6962389072
   23      O       5.6762148676    -0.6482389779     0.6391892082
   24      H       2.6319428366    -1.7269686311    -0.2861506692
   25      H       3.5030946432    -0.1317214766    -1.8112382056
   26      H       4.7750997793    -2.4514766346     1.3386129434
   27      H       6.0616382993    -3.2118915637    -0.6832711553
   28      H       4.4565189788    -2.9761780986    -1.4391359554
   29      H       6.9364989944    -1.2771883577    -1.7674330648
   30      H       5.4035384746    -1.1128394964    -2.6800678522
   31      H       5.9759348923     0.8913959561    -0.8100224517
   32      O      -1.0066852560    -1.1549623107    -1.1612057827
   33      C      -2.4780767207     3.5068791400    -0.1970805241
   34      C      -5.2824924836    -0.5996122895     0.5188548145
   35      C      -6.4010328713    -1.3294413351    -0.3184900364
   36      C      -5.5204236547    -2.3058937490    -1.1870699015
   37      C      -4.0834843845    -2.0627727441    -0.5727609487
   38      O      -4.3480223757    -1.7050530617     0.8404619572
   39      H      -5.1685598775     0.7158830683    -1.2648052508
   40      H      -3.4698629689    -0.6464503533    -2.2326763012
   41      H      -1.8478456869     3.3152247774     0.6954129442
   42      H      -5.6144880905    -0.0880796824     1.4434552750
   43      H      -7.0787140771    -1.8876663372     0.3471610593
   44      H      -6.9955127256    -0.6302966290    -0.9279005193
   45      H      -5.8227455789    -3.3565334371    -1.0535377940
   46      H      -5.5540056725    -2.0633995481    -2.2616190375
   47      H      -3.3925079457    -2.9260010415    -0.6366042312
   48      H      -3.2926358726     4.2001648414     0.0970802192
   49      H      -1.8661577185     3.9759311470    -0.9897393358
   50      H       0.4920649360     3.0879838381    -1.0413191417
   51      H       2.1517810614     3.8088935419    -0.9844864944
   52      H       1.3954446141     3.1769968557     0.5231882047
   53      H       0.6073093501    -1.3641767241     0.6913598825
   54      H       0.8105381039     0.1230555666    -0.3237320742
   55      H      -0.8283228716    -0.0910608052     2.3293026757
   56      H      -0.5732899311     1.4255081806     1.4080230168
 ----------------------------------------------------------------
 Molecular Point Group                 C1    NOp =  1
 Largest Abelian Subgroup              C1    NOp =  1
 Nuclear Repulsion Energy =  3160.6484835899 hartrees
 There are      113 alpha and      113 beta electrons
 Applying Cartesian multipole field
    Component          Value
    ---------          -----
     (2,0,0)        1.00000E-12
     (0,2,0)        2.00000E-11
     (0,0,2)       -3.00000E-11
 Nucleus-field energy     =     0.0000000302 hartrees
 Requested basis set is STO-3G
 There are 86 shells and 176 basis functions
 A cutoff of  1.0D-12 yielded   2200 shell pairs
 There are     10327 function pairs
 Smallest overlap matrix eigenvalue = 2.13E-01
 Guess MOs from SCF MO coefficient file
 Reading MOs from coefficient file
 Reading MOs from coefficient file
 A restricted hybrid HF-DFT SCF calculation will be
 performed using Pulay DIIS extrapolation
[...]
      7  C        -0.3406733130    1.8709615584    1.6966469446
      8  C         0.7934938545    0.9032275132    1.2090060988
      9  O         2.1093507952    1.4948442633    1.5467879825
     10  C         3.2339660396    0.7380883407    1.0612013760
     11  C         2.9957702650   -0.7382833802    0.5356907419
     12  C         2.4864212439   -0.8858086310   -0.9674773007
     13  C         2.3747310101    0.4686484190   -1.7433435068
     14  O         3.2858646452    1.1269344750   -2.2831333308
     15  O        -4.2638578634    2.0430200390    1.2703203482
     16  O         0.9902038731    0.8816694891   -1.7392423499
     17  O         4.3623089805    1.2677867382    1.1569744225
     18  C         0.8193342373    2.2007100110   -2.4008029604
     19  C         4.3746637647   -1.5237935948    0.4568544875
     20  C         4.0559997699   -3.0705837981    0.4420797713
     21  C         3.5009910334   -3.2487077441   -1.0200765938
     22  C         3.6464721696   -1.7797904718   -1.5831397167
     23  O         4.8592250644   -1.2596503298   -0.9164079807
     24  H         2.2986559588   -1.2546466760    1.2181327381
     25  H         1.5045383702   -1.3904814566   -0.9990275550
     26  H         5.1248869370   -1.1898552488    1.1993808951
     27  H         4.9777185024   -3.6535286494    0.5980457944
     28  H         3.3221223976   -3.3538506852    1.2136331100
     29  H         4.1188140951   -3.9472847252   -1.6063296258
     30  H         2.4562694777   -3.5986189972   -1.0403036114
     31  H         3.7448677200   -1.7001923318   -2.6831084974
     32  O        -1.3514389757    2.9611704878   -0.5683362283
     33  C        -4.3568633517    2.5917564781    2.6410280133
     34  C        -3.2710321602   -1.3608072019   -0.2009158920
     35  C        -3.5911009857   -1.9603914917   -1.6247485772
     36  C        -2.5681424903   -1.1663079678   -2.5206242842
     37  C        -1.8012538936   -0.3122240642   -1.4356272045
     38  O        -1.8002983387   -1.1790625065   -0.2367217278
     39  H        -4.8178949818    0.1905831781   -0.6522198883
     40  H        -3.1693082324    1.4411346301   -1.8421286977
     41  H        -3.3961107829    2.4789467551    3.1844251605
     42  H        -3.5645929045   -1.9826397252    0.6673056465
     43  H        -3.3844509373   -3.0424808185   -1.6413536079
     44  H        -4.6384720439   -1.7965567796   -1.9246917495
     45  H        -1.8717111897   -1.8443861401   -3.0389420557
     46  H        -3.0653093252   -0.5313049510   -3.2711047005
     47  H        -0.7615721314   -0.0085902669   -1.6959436397
     48  H        -5.1550325835    2.0946381281    3.2292103926
     49  H        -4.5928370540    3.6657784883    2.5271312202
     50  H        -0.0303639284    2.6974950476   -1.8808813941
     51  H         0.5842530482    2.0561240162   -3.4742102624
     52  H         1.7470875209    2.7975607590   -2.3123734358
     53  H         0.6461749862   -0.0877947623    1.6876767792
     54  H         0.6969501765    0.7991640625    0.1012194285
     55  H        -0.4438337442    1.8713446347    2.7995583316
     56  H        -0.1652153831    2.9030965189    1.3257295398
   Point Group: c1    Number of degrees of freedom:   162


   Energy is  -1510.285121424

 Hessian Updated using BFGS Update

162 Hessian modes will be used to form the next step
  Hessian Eigenvalues:
     0.001287    0.002569    0.002976    0.003200    0.004074    0.004215
     0.005424    0.006891    0.007724    0.011095    0.011812    0.017020
     0.021011    0.021423    0.022446    0.022802    0.026577    0.027100
     0.027850    0.030423    0.032029    0.033152    0.033754    0.035202
     0.037173    0.040415    0.041704    0.042632    0.043401    0.044899
     0.045857    0.047311    0.049648    0.049951    0.051147    0.052270
     0.052844    0.054121    0.055017    0.055856    0.056435    0.056766
     0.057022    0.058994    0.060053    0.060412    0.061728    0.063280
     0.063671    0.064600    0.065129    0.065629    0.066957    0.069743
     0.070359    0.071761    0.073035    0.073745    0.074479    0.092510
     0.092800    0.095158    0.096458    0.099046    0.099842    0.102107
     0.106079    0.106837    0.111123    0.112245    0.113422    0.122474
     0.123918    0.125721    0.139670    0.143341    0.150805    0.152154
     0.159793    0.160168    0.160999    0.161549    0.163878    0.166137
     0.172189    0.183325    0.187075    0.203338    0.219248    0.224378
     0.225451    0.234785    0.237016    0.237359    0.239411    0.240698
     0.241625    0.243889    0.244527    0.246077    0.246515    0.249625
     0.250936    0.252101    0.253455    0.255713    0.259321    0.261874
     0.263879    0.265217    0.270139    0.271729    0.281363    0.291705
     0.293596    0.298917    0.305692    0.309045    0.314412    0.324333
     0.325576    0.326508    0.327181    0.327322    0.327607    0.328425
     0.328696    0.328845    0.329278    0.329590    0.330320    0.330525
     0.331668    0.332497    0.332737    0.334129    0.334736    0.334834
     0.334861    0.335025    0.335260    0.335466    0.335979    0.336156
     0.341453    0.346987    0.349687    0.355134    0.358614    0.375932
     0.390763    0.401533    0.428278    0.444623    0.604632    0.759257
     0.834356    0.835568    0.842013    0.860536    1.222401    2.623418

 Minimum Search - Taking Simple RFO Step
 Searching for Lamda that Minimizes Along All modes
 Value Taken    Lamda =  -0.00000194
 Step Taken.  Stepsize is  0.017939

                             Maximum     Tolerance    Cnvgd?
         Gradient           0.000151      0.000300     YES
         Displacement       0.005792      0.001200      NO
         Energy change     -0.000001      0.000001     YES

 Final energy is   -1510.28512142380     


 ******************************
 **  OPTIMIZATION CONVERGED  **
 ******************************

                       Coordinates (Angstroms)
     ATOM                X               Y               Z
      1  O        -3.9864744303   -0.0435291932    2.3752547976
      2  C        -4.0073370846    0.6322077275    1.3258334573
      3  C        -3.8359380724    0.1197134348   -0.1488771931
      4  C        -2.7399906351    0.8999631359   -0.9811881833
      5  C        -1.8619443313    1.8928661892   -0.1553534354
      6  O        -1.5996793078    1.3232839046    1.1318090904
      7  C        -0.3406733130    1.8709615584    1.6966469446
      8  C         0.7934938545    0.9032275132    1.2090060988
      9  O         2.1093507952    1.4948442633    1.5467879825
     10  C         3.2339660396    0.7380883407    1.0612013760
     11  C         2.9957702650   -0.7382833802    0.5356907419
     12  C         2.4864212439   -0.8858086310   -0.9674773007
     13  C         2.3747310101    0.4686484190   -1.7433435068
     14  O         3.2858646452    1.1269344750   -2.2831333308
     15  O        -4.2638578634    2.0430200390    1.2703203482
     16  O         0.9902038731    0.8816694891   -1.7392423499
     17  O         4.3623089805    1.2677867382    1.1569744225
     18  C         0.8193342373    2.2007100110   -2.4008029604
     19  C         4.3746637647   -1.5237935948    0.4568544875
     20  C         4.0559997699   -3.0705837981    0.4420797713
     21  C         3.5009910334   -3.2487077441   -1.0200765938
     22  C         3.6464721696   -1.7797904718   -1.5831397167
     23  O         4.8592250644   -1.2596503298   -0.9164079807
     24  H         2.2986559588   -1.2546466760    1.2181327381
     25  H         1.5045383702   -1.3904814566   -0.9990275550
     26  H         5.1248869370   -1.1898552488    1.1993808951
     27  H         4.9777185024   -3.6535286494    0.5980457944
     28  H         3.3221223976   -3.3538506852    1.2136331100
     29  H         4.1188140951   -3.9472847252   -1.6063296258
     30  H         2.4562694777   -3.5986189972   -1.0403036114
     31  H         3.7448677200   -1.7001923318   -2.6831084974
     32  O        -1.3514389757    2.9611704878   -0.5683362283
     33  C        -4.3568633517    2.5917564781    2.6410280133
     34  C        -3.2710321602   -1.3608072019   -0.2009158920
     35  C        -3.5911009857   -1.9603914917   -1.6247485772
     36  C        -2.5681424903   -1.1663079678   -2.5206242842
     37  C        -1.8012538936   -0.3122240642   -1.4356272045
     38  O        -1.8002983387   -1.1790625065   -0.2367217278
     39  H        -4.8178949818    0.1905831781   -0.6522198883
     40  H        -3.1693082324    1.4411346301   -1.8421286977
     41  H        -3.3961107829    2.4789467551    3.1844251605
     42  H        -3.5645929045   -1.9826397252    0.6673056465
     43  H        -3.3844509373   -3.0424808185   -1.6413536079
     44  H        -4.6384720439   -1.7965567796   -1.9246917495
     45  H        -1.8717111897   -1.8443861401   -3.0389420557
     46  H        -3.0653093252   -0.5313049510   -3.2711047005
     47  H        -0.7615721314   -0.0085902669   -1.6959436397
     48  H        -5.1550325835    2.0946381281    3.2292103926
     49  H        -4.5928370540    3.6657784883    2.5271312202
     50  H        -0.0303639284    2.6974950476   -1.8808813941
     51  H         0.5842530482    2.0561240162   -3.4742102624
     52  H         1.7470875209    2.7975607590   -2.3123734358
     53  H         0.6461749862   -0.0877947623    1.6876767792
     54  H         0.6969501765    0.7991640625    0.1012194285
     55  H        -0.4438337442    1.8713446347    2.7995583316
     56  H        -0.1652153831    2.9030965189    1.3257295398

Z-matrix Print:
$molecule
0 1
O 
C  1 1.431780
O  2 1.253972 1 124.084501
C  1 1.484617 2 110.524954 3 -19.595693 0
H  4 1.107725 1 107.455111 2 149.874357 0
H  4 1.110706 1 110.469918 2 29.508842 0
C  2 1.561674 1 108.993568 3 173.970269 0
H  7 1.103811 2 108.628226 1 164.519201 0
C  4 1.568642 1 105.503200 2 -90.296831 0
H  9 1.110384 4 108.703475 1 -66.533516 0
H  9 1.116844 4 107.657669 1 51.934884 0
O  9 1.481751 4 108.959013 1 171.060152 0
C  12 1.439873 9 114.009257 4 -175.798292 0
O  13 1.250164 12 117.156403 9 170.846798 0
C  7 1.581971 2 115.142505 1 37.336352 0
H  15 1.105720 7 110.128056 2 130.595309 0
C  15 1.570605 7 114.120967 2 8.901184 0
O  17 1.248335 15 127.652758 7 -128.320109 0
O  17 1.435018 15 107.697098 7 54.441805 0
C  19 1.479392 17 109.880471 15 -176.777744 0
H  20 1.105522 19 106.159600 17 -177.857787 0
H  20 1.109125 19 111.736877 17 -58.343027 0
H  20 1.109528 19 111.200012 17 63.100751 0
C  13 1.585109 12 118.943968 9 -13.338843 0
H  24 1.103778 13 109.005064 12 -42.138685 0
C  15 1.585487 7 101.329943 2 -111.635378 0
H  26 1.107548 15 113.835454 7 152.229404 0
O  26 1.482353 15 103.875301 7 31.957124 0
C  28 1.479454 26 95.207918 15 -55.864591 0
H  29 1.113955 28 110.394071 26 179.768653 0
C  26 1.577734 15 108.192384 7 -77.087083 0
H  31 1.101723 26 112.459927 15 -47.959756 0
H  31 1.101770 26 110.413415 15 -169.534781 0
C  31 1.574676 26 100.952785 15 72.525041 0
H  34 1.101572 31 111.591550 26 120.285751 0
H  34 1.101646 31 112.648322 26 -117.196714 0
C  24 1.588895 13 110.273440 12 -163.405965 0
H  37 1.107111 24 113.933844 13 29.573862 0
O  37 1.480007 24 104.000909 13 -90.526031 0
C  39 1.478461 37 94.995918 24 -56.277467 0
H  40 1.107226 39 110.476328 37 -179.887000 0
C  37 1.579343 24 108.031929 13 160.034248 0
H  42 1.101688 37 110.371019 24 -168.296017 0
H  42 1.101867 37 112.309814 24 -46.714091 0
C  42 1.574060 37 100.991481 24 73.636419 0
H  45 1.101548 42 111.615558 37 119.016849 0
H  45 1.101948 42 112.784731 37 -118.267200 0
C  40 1.588698 39 103.075273 37 57.742323 0
H  48 1.104438 40 112.393222 39 -155.071767 0
C  48 1.564927 40 110.305022 39 83.660216 0
O  50 1.246948 48 128.271365 40 -32.762363 0
O  50 1.444825 48 108.324671 40 147.704275 0
C  52 1.485506 50 111.271569 48 177.072879 0
H  53 1.106696 52 110.295560 50 -27.570337 0
H  53 1.108319 52 109.869346 50 92.610038 0
H  53 1.113149 52 106.025834 50 -148.079716 0
$end

 
 --------------------------------------------------------------
 
                    Orbital Energies (a.u.)
 --------------------------------------------------------------
 
 Alpha MOs
 -- Occupied --
-18.951 -18.942 -18.932 -18.929 -18.896 -18.891 -18.890 -18.889
-18.875 -18.874 -10.112 -10.112 -10.102 -10.098 -10.076 -10.065
-10.064 -10.062 -10.061 -10.060 -10.057 -10.057 -10.047 -10.043
-10.041 -10.040 -10.024 -10.023 -10.023 -10.021  -1.025  -1.023
 -1.009  -1.003  -0.973  -0.973  -0.951  -0.948  -0.937  -0.934
 -0.768  -0.767  -0.730  -0.726  -0.711  -0.708  -0.702  -0.665
 -0.663  -0.612  -0.603  -0.589  -0.553  -0.549  -0.542  -0.540
 -0.518  -0.511  -0.493  -0.480  -0.467  -0.463  -0.461  -0.454
 -0.440  -0.434  -0.432  -0.422  -0.417  -0.416  -0.409  -0.406
 -0.400  -0.390  -0.381  -0.371  -0.366  -0.364  -0.362  -0.351
 -0.347  -0.343  -0.340  -0.334  -0.333  -0.326  -0.318  -0.317
 -0.313  -0.310  -0.309  -0.303  -0.299  -0.298  -0.284  -0.281
 -0.274  -0.262  -0.256  -0.252  -0.243  -0.237  -0.236  -0.196
 -0.184  -0.177  -0.170  -0.168  -0.164  -0.153  -0.148  -0.147
 -0.145
 -- Virtual --
  0.079   0.085   0.099   0.105   0.208   0.223   0.236   0.250
  0.259   0.269   0.278   0.285   0.289   0.310   0.321   0.323
  0.328   0.332   0.344   0.345   0.349   0.353   0.356   0.367
  0.369   0.376   0.380   0.390   0.396   0.405   0.405   0.407
  0.411   0.414   0.418   0.421   0.425   0.429   0.430   0.432
  0.433   0.437   0.442   0.444   0.446   0.458   0.461   0.464
  0.473   0.475   0.485   0.487   0.494   0.504   0.510   0.535
  0.545   0.549   0.555   0.620   0.631   0.643   0.647
 --------------------------------------------------------------
 
          Ground-State Mulliken Net Atomic Charges

     Atom                 Charge (a.u.)
  ----------------------------------------
      1 O                    -0.213502
      2 C                     0.218002
      3 C                    -0.078965
      4 C                    -0.078866
      5 C                     0.220776
      6 O                    -0.170698
      7 C                    -0.048964
      8 C                    -0.064892
      9 O                    -0.173147
     10 C                     0.203256
     11 C                    -0.083979
     12 C                    -0.081537
     13 C                     0.210689
     14 O                    -0.192899
     15 O                    -0.175083
     16 O                    -0.178466
     17 O                    -0.196134
     18 C                    -0.146477
     19 C                     0.026225
     20 C                    -0.143937
     21 C                    -0.144511
     22 C                     0.026845
     23 O                    -0.182846
     24 H                     0.081751
     25 H                     0.087999
     26 H                     0.091917
     27 H                     0.079390
     28 H                     0.073336
     29 H                     0.079046
     30 H                     0.073735
     31 H                     0.085184
     32 O                    -0.217200
     33 C                    -0.128034
     34 C                     0.024529
     35 C                    -0.143669
     36 C                    -0.145059
     37 C                     0.011626
     38 O                    -0.194158
     39 H                     0.084718
     40 H                     0.085664
     41 H                     0.087824
     42 H                     0.089917
     43 H                     0.077295
     44 H                     0.073581
     45 H                     0.076209
     46 H                     0.073634
     47 H                     0.095924
     48 H                     0.089212
     49 H                     0.090339
     50 H                     0.110952
     51 H                     0.082478
     52 H                     0.098900
     53 H                     0.080009
     54 H                     0.099095
     55 H                     0.091095
     56 H                     0.101872
  ----------------------------------------
  Sum of atomic charges =     0.000000

 -----------------------------------------------------------------
                    Cartesian Multipole Moments
 -----------------------------------------------------------------
    Charge (ESU x 10^10)
                 0.0000
    Dipole Moment (Debye)
         X      -4.2279      Y      -2.3620      Z      -1.0631
       Tot       4.9583
    Quadrupole Moments (Debye-Ang)
        XX    -176.0573     XY     -13.4552     YY    -159.1621
        XZ       5.5209     YZ       4.2294     ZZ    -155.9867
    Octopole Moments (Debye-Ang^2)
       XXX    -184.1169    XXY     -55.3454    XYY      -9.8834
       YYY     -71.4307    XXZ      31.3568    XYZ     -25.5469
       YYZ      31.1776    XZZ     -19.4135    YZZ      -7.3005
       ZZZ      63.4306
    Hexadecapole Moments (Debye-Ang^3)
      XXXX   -9826.5154   XXXY     600.6716   XXYY   -2007.9106
      XYYY     780.3348   YYYY   -2934.1085   XXXZ     521.3551
      XXYZ     -63.8045   XYYZ      57.5186   YYYZ    -311.5851
      XXZZ   -1964.9576   XYZZ     175.8455   YYZZ    -832.0371
      XZZZ     404.9734   YZZZ    -321.1664   ZZZZ   -2288.4317
 -----------------------------------------------------------------
Archival summary:
1\1\vega02.cac.cornell.edu\OPT\ProcedureUnspecified\STO-3G\102026\jj585\WedJan1708:46:192018WedJan1708:46:192018\0\\#,OPT,ProcedureUnspecified,STO-3G,\\0,1\O\C,1,1.43178\O,2,1.25397,1,124.085\C,1,1.48462,2,110.525,3,-19.5957,0\H,4,1.10773,1,107.455,2,149.874,0\H,4,1.11071,1,110.47,2,29.5088,0\C,2,1.56167,1,108.994,3,173.97,0\H,7,1.10381,2,108.628,1,164.519,0\C,4,1.56864,1,105.503,2,-90.2968,0\H,9,1.11038,4,108.703,1,-66.5335,0\H,9,1.11684,4,107.658,1,51.9349,0\O,9,1.48175,4,108.959,1,171.06,0\C,12,1.43987,9,114.009,4,-175.798,0\O,13,1.25016,12,117.156,9,170.847,0\C,7,1.58197,2,115.143,1,37.3364,0\H,15,1.10572,7,110.128,2,130.595,0\C,15,1.5706,7,114.121,2,8.90118,0\O,17,1.24834,15,127.653,7,-128.32,0\O,17,1.43502,15,107.697,7,54.4418,0\C,19,1.47939,17,109.88,15,-176.778,0\H,20,1.10552,19,106.16,17,-177.858,0\H,20,1.10913,19,111.737,17,-58.343,0\H,20,1.10953,19,111.2,17,63.1008,0\C,13,1.58511,12,118.944,9,-13.3388,0\H,24,1.10378,13,109.005,12,-42.1387,0\C,15,1.58549,7,101.33,2,-111.635,0\H,26,1.10755,15,113.835,7,152.229,0\O,26,1.48235,15,103.875,7,31.9571,0\C,28,1.47945,26,95.2079,15,-55.8646,0\H,29,1.11396,28,110.394,26,179.769,0\C,26,1.57773,15,108.192,7,-77.0871,0\H,31,1.10172,26,112.46,15,-47.9598,0\H,31,1.10177,26,110.413,15,-169.535,0\C,31,1.57468,26,100.953,15,72.525,0\H,34,1.10157,31,111.592,26,120.286,0\H,34,1.10165,31,112.648,26,-117.197,0\C,24,1.5889,13,110.273,12,-163.406,0\H,37,1.10711,24,113.934,13,29.5739,0\O,37,1.48001,24,104.001,13,-90.526,0\C,39,1.47846,37,94.9959,24,-56.2775,0\H,40,1.10723,39,110.476,37,-179.887,0\C,37,1.57934,24,108.032,13,160.034,0\H,42,1.10169,37,110.371,24,-168.296,0\H,42,1.10187,37,112.31,24,-46.7141,0\C,42,1.57406,37,100.991,24,73.6364,0\H,45,1.10155,42,111.616,37,119.017,0\H,45,1.10195,42,112.785,37,-118.267,0\C,40,1.5887,39,103.075,37,57.7423,0\H,48,1.10444,40,112.393,39,-155.072,0\C,48,1.56493,40,110.305,39,83.6602,0\O,50,1.24695,48,128.271,40,-32.7624,0\O,50,1.44482,48,108.325,40,147.704,0\C,52,1.48551,50,111.272,48,177.073,0\H,53,1.1067,52,110.296,50,-27.5703,0\H,53,1.10832,52,109.869,50,92.61,0\H,53,1.11315,52,106.026,50,-148.08,0\\\@

 Total job time:  197.90s(wall), 9435.42s(cpu) 
 Wed Jan 17 08:46:19 2018

        *************************************************************
        *                                                           *
        *  Thank you very much for using Q-Chem.  Have a nice day.  *
        *                                                           *
        *************************************************************


0 sent ACK to 0 
now end server 0 ... 
