mFile = /opt/software/qchem/qchem-5.0.1//bin/mpi/machines
Process 0 of 1 is on vega02.cac.cornell.edu - thread support 0
initial socket setup ...start
initial socket setup ...done 
now start server 0 ... 
vega02.cac.cornell.edu 10.84.3
Q-Chem Developer Version! Running on 10.84.3.*
                  Welcome to Q-Chem
     A Quantum Leap Into The Future Of Chemistry


 Q-Chem 5.0, Q-Chem, Inc., Pleasanton, CA (2017)

 Yihan Shao,  Zhengting Gan,  E. Epifanovsky,  A. T. B. Gilbert,  M. Wormit,  
 J. Kussmann,  A. W. Lange,  A. Behn,  Jia Deng,  Xintian Feng,  D. Ghosh,  
 M. Goldey,  P. R. Horn,  L. D. Jacobson,  I. Kaliman,  T. Kus,  A. Landau,  
 Jie Liu,  E. I. Proynov,  R. M. Richard,  R. P. Steele,  E. J. Sundstrom,  
 H. L. Woodcock III,  P. M. Zimmerman,  D. Zuev,  B. Albrecht,  E. Alguire,  
 S. A. Baeppler,  Z. Benda,  Y. A. Bernard,  E. J. Berquist,  K. B. Bravaya,  
 D. Casanova,  Chun-Min Chang,  Yunqing Chen,  A. Chien,  K. D. Closser,  
 M. P. Coons,  S. Dasgupta,  M. Diedenhofen,  Hainam Do,  R. G. Edgar,  
 Po-Tung Fang,  S. Fatehi,  Qingguo Feng,  Qinghui Ge,  A. Ghysels,  
 J. Gomes,  J. Gonthier,  A. Gunina,  M. W. D. Hanson-Heine,  
 P. H. P. Harbach,  A. W. Hauser,  J. E. Herr,  E. G. Hohenstein,  
 Z. C. Holden,  Kerwin Hui,  T.-C. Jagau,  Hyunjun Ji,  B. Kaduk,  
 K. Khistyaev,  Jaehoon Kim,  P. Klunzinger,  K. Koh,  D. Kosenkov,  
 T. Kowalczyk,  C. M. Krauter,  A. Kunitsa,  Ka Un Lao,  A. Laurent,  
 K. V. Lawler,  Joonho Lee,  D. Lefrancois,  S. Lehtola,  D. S. Levine,  
 Yi-Pei Li,  You-Sheng Lin,  Fenglai Liu,  E. Livshits,  A. Luenser,  
 P. Manohar,  E. Mansoor,  S. F. Manzer,  Shan-Ping Mao,  Yuezhi Mao,  
 N. Mardirossian,  A. V. Marenich,  L. A. Martinez-Martinez,  S. A. Maurer,  
 N. J. Mayhall,  S. C. McKenzie,  J.-M. Mewes,  A. F. Morrison,  K. Nanda,  
 T. S. Nguyen-Beck,  R. Olivares-Amaya,  J. A. Parkhill,  T. M. Perrine,  
 F. Plasser,  S. Prager,  A. Prociuk,  D. R. Rehn,  F. Rob,  M. Schneider,  
 N. Sergueev,  S. M. Sharada,  S. Sharma,  D. W. Small,  T. Stauch,  
 T. Stein,  Yu-Chuan Su,  A. J. W. Thom,  T. Tsuchimochi,  L. Vogt,  
 O. Vydrov,  M. A. Watson,  J. Wenzel,  M. de Wergifosse,  T. A. Wesolowski,  
 A. White,  J. Witte,  A. Yamada,  Jun Yang,  K. Yao,  S. Yeganeh,  
 S. R. Yost,  Zhi-Qiang You,  A. Zech,  Igor Ying Zhang,  Xing Zhang,  
 Yan Zhao,  Ying Zhu,  B. R. Brooks,  G. K. L. Chan,  C. J. Cramer,  
 M. S. Gordon,  W. J. Hehre,  A. Klamt,  M. W. Schmidt,  C. D. Sherrill,  
 D. G. Truhlar,  A. Aspuru-Guzik,  R. Baer,  A. T. Bell,  N. A. Besley,  
 Jeng-Da Chai,  A. Dreuw,  B. D. Dunietz,  T. R. Furlani,  Chao-Ping Hsu,  
 Yousung Jung,  Jing Kong,  D. S. Lambrecht,  WanZhen Liang,  C. Ochsenfeld,  
 V. A. Rassolov,  L. V. Slipchenko,  J. E. Subotnik,  T. Van Voorhis,  
 J. M. Herbert,  A. I. Krylov,  P. M. W. Gill,  M. Head-Gordon

 Contributors to earlier versions of Q-Chem not listed above: 
 R. D. Adamson,  B. Austin,  J. Baker,  G. J. O. Beran,  K. Brandhorst,  
 S. T. Brown,  E. F. C. Byrd,  A. K. Chakraborty,  C.-L. Cheng,  
 Siu Hung Chien,  D. M. Chipman,  D. L. Crittenden,  H. Dachsel,  
 R. A. DiStasio Jr.,  R. J. Doerksen,  A. D. Dutoi,  L. Fusti-Molnar,  
 W. A. Goddard III,  A. Golubeva-Zadorozhnaya,  S. R. Gwaltney,  G. Hawkins,  
 A. Heyden,  S. Hirata,  G. Kedziora,  F. J. Keil,  C. Kelley,  Jihan Kim,  
 R. A. King,  R. Z. Khaliullin,  P. P. Korambath,  W. Kurlancheek,  
 A. M. Lee,  M. S. Lee,  S. V. Levchenko,  Ching Yeh Lin,  D. Liotard,  
 R. C. Lochan,  I. Lotan,  P. E. Maslen,  N. Nair,  D. P. O'Neill,  
 D. Neuhauser,  E. Neuscamman,  C. M. Oana,  R. Olson,  B. Peters,  
 R. Peverati,  P. A. Pieniazek,  Y. M. Rhee,  J. Ritchie,  M. A. Rohrdanz,  
 E. Rosta,  N. J. Russ,  H. F. Schaefer III,  N. E. Schultz,  N. Shenvi,  
 A. C. Simmonett,  A. Sodt,  D. Stuck,  K. S. Thanthiriwatte,  V. Vanovschi,  
 Tao Wang,  A. Warshel,  C. F. Williams,  Q. Wu,  X. Xu,  W. Zhang

 Please cite Q-Chem as follows:
 Y. Shao et al., Mol. Phys. 113, 184-215 (2015)
 DOI: 10.1080/00268976.2014.952696

 Q-Chem 5.0.1 for Intel X86 EM64T Linux

 Parts of Q-Chem use Armadillo 5.200.1 (Boston Tea Smuggler).
 http://arma.sourceforge.net/

 Q-Chem begins on Wed Jan 17 08:47:29 2018  

Host: vega02.cac.cornell.edu
0

     Scratch files written to /scratch/jj585/SOT1001/1442r.save//
 Parallel job on  1  processors

Checking the input file for inconsistencies... 	...done.

--------------------------------------------------------------
User input:
--------------------------------------------------------------
$molecule
0  1
O -4.6183712879 1.4079289995 1.5430941345
C -4.1887929752 1.2716950793 0.3761402376
C -4.1484783262 -0.0622727733 -0.4489974349
C -2.9611223876 -0.3471028711 -1.4578344925
C -1.5283605591 0.2482688073 -1.1276694478
O -1.6258866961 1.5592290681 -0.5818417163
C -0.3156007406 2.2022565469 -0.2921890877
C 0.7175645224 1.3092100823 0.4817944211
O 1.9480245033 2.1286672433 0.6198954055
C 2.9081024345 1.3399432593 1.3787010947
C 4.0597038144 0.7346245323 0.4752117387
C 3.9771861994 -0.8561865322 0.400559952
C 2.8385832649 -1.4655236147 1.2883929299
O 1.6203643543 -1.5412772955 1.0152165019
O -3.9763114236 2.3685452244 -0.5210175048
O 3.4195781716 -1.9420334987 2.5051560176
O 2.8243088541 1.1790918561 2.6143549445
C 2.358134895 -2.4586819426 3.4012685734
C 3.8771431059 1.1121627267 -1.0497689007
C 5.1890946792 0.7200468093 -1.8374914113
C 5.0340488681 -0.8431495879 -1.9355574044
C 3.6845328352 -1.0624354721 -1.1476223459
O 2.8754208423 0.1218399856 -1.5144290266
H 5.0372435695 1.0537356893 0.8808230196
H 4.9355324102 -1.3118041429 0.7054575874
H 3.5038080321 2.1402982577 -1.2151394705
H 5.1961756666 1.1896688289 -2.8338371469
H 6.1004208474 1.0236434611 -1.2978943584
H 4.9242003065 -1.1720797668 -2.9812385226
H 5.8773106042 -1.3867231458 -1.4803859944
H 3.1347792602 -1.9927210371 -1.3889082946
O -0.4619866125 -0.3502334015 -1.3976676791
C -4.1018249343 3.6494193499 0.2089525326
C -4.1735976889 -1.4030793853 0.4040731285
C -5.0434615983 -2.4413568449 -0.4040285843
C -4.1040827043 -2.6943587703 -1.6430444038
C -2.8009345331 -1.9092911461 -1.2179495477
O -2.8079105238 -1.9613376138 0.2674071326
H -5.0753601317 -0.0183012367 -1.0539895884
H -3.2329820842 -0.0769434014 -2.4949284934
H -3.3052672451 3.7600628001 0.9727555117
H -4.4423553879 -1.261187903 1.4692178276
H -5.1867691611 -3.3618332568 0.1849339861
H -6.0312475373 -2.0432349357 -0.6865816975
H -3.8846838404 -3.7653788303 -1.7763725941
H -4.5295279962 -2.3045310741 -2.5821309308
H -1.8460571013 -2.3097619471 -1.6108109584
H -5.0864204312 3.7413159515 0.7118022115
H -3.9953333792 4.4452647534 -0.5508886945
H 2.8761800119 -2.8407132405 4.299861805
H 1.7838399274 -3.2785516534 2.9235507982
H 1.6512337284 -1.6555115839 3.6934308049
H 0.3043778633 1.0198531381 1.4740391099
H 0.9166295095 0.3878260049 -0.1116910061
H -0.5698948844 3.1043538947 0.3001822599
H 0.1532807341 2.5284532722 -1.2473663748
$end

$rem
JOBTYPE                   OPT
METHOD                    B3LYP
DFT_D                     d3_op
BASIS                     STO-3G
GEOM_OPT_MAX_CYCLES       100
GEOM_OPT_TOL_GRADIENT     300
GEOM_OPT_TOL_DISPLACEMENT 1200
GEOM_OPT_TOL_ENERGY       100
SYMMETRY                  False
THRESH                    12
SCF_CONVERGENCE           8
MAX_SUB_FILE_NUM          128
MEM_STATIC                400
MEM_TOTAL                 4000
$end
--------------------------------------------------------------
 Adding empirical dispersion correction 
 ----------------------------------------------------------------
 Doing -D3(op) with
 s6 =   1.00000
 s8 =   0.78311
 a1 =   0.30000
 a2 =   4.25000
 n  =  10.00000
 -D3 energy without 3body term =     -0.0694939087 hartrees
 ----------------------------------------------------------------
             Standard Nuclear Orientation (Angstroms)
    I     Atom           X                Y                Z
 ----------------------------------------------------------------
    1      O      -4.5622269891     1.1027335568     1.8926438135
    2      C      -4.2001471679     1.0767350956     0.6955218948
    3      C      -4.1672930980    -0.1841472229    -0.2377755230
    4      C      -3.0348634313    -0.3429315345    -1.3337158092
    5      C      -1.6045075738     0.2763862086    -1.0390795872
    6      O      -1.7106588917     1.5347065442    -0.3822554891
    7      C      -0.4064761883     2.2002350129    -0.1169036422
    8      C       0.6998497354     1.2865396246     0.5196626217
    9      O       1.9095420472     2.1370514428     0.6534080623
   10      C       2.9386897888     1.3257948413     1.2877099488
   11      C       4.0521114207     0.8379871695     0.2722172305
   12      C       4.0162146114    -0.7436230722     0.0715125927
   13      C       2.9537193142    -1.4639684219     0.9704909238
   14      O       1.7242153063    -1.5623780686     0.7629897646
   15      O      -4.0777713055     2.2492782559    -0.1189026572
   16      O       3.6224809996    -2.0150491530     2.1081187183
   17      O       2.9352665534     1.0630993130     2.5086580703
   18      C       2.6344969310    -2.6408898860     3.0185120474
   19      C       3.7653016602     1.3299679447    -1.2032909969
   20      C       5.0388942516     1.0511289269    -2.0953051731
   21      C       4.9283342050    -0.5037663937    -2.3128279002
   22      C       3.6368637147    -0.8353334910    -1.4688559153
   23      O       2.7694544914     0.3439615047    -1.6892697763
   24      H       5.0417490324     1.1592722496     0.6454861808
   25      H       5.0054062390    -1.1866353917     0.2817920343
   26      H       3.3498728203     2.3536041117    -1.2614033830
   27      H       4.9704240833     1.5993072237    -3.0482543834
   28      H       5.9711061070     1.3437419428    -1.5861784983
   29      H       4.7657950540    -0.7513521594    -3.3739561125
   30      H       5.8146538786    -1.0507203869    -1.9536310928
   31      H       3.1035576225    -1.7628369449    -1.7538139643
   32      O      -0.5378696044    -0.2587270096    -1.4188092525
   33      C      -4.1997004151     3.4617875986     0.7202652691
   34      C      -4.0976107319    -1.5892345532     0.5018167307
   35      C      -4.9812257838    -2.5905216429    -0.3374450201
   36      C      -4.1111825898    -2.7082338945    -1.6454096787
   37      C      -2.8104477180    -1.9123793796    -1.2331763082
   38      O      -2.7255597336    -2.0839477434     0.2407301656
   39      H      -5.1301278823    -0.1258691566    -0.7823962426
   40      H      -3.3777008569    -0.0004426761    -2.3275073778
   41      H      -3.3621932488     3.5399387249     1.4431866092
   42      H      -4.3056116546    -1.5434814274     1.5888031111
   43      H      -5.0589520362    -3.5600434252     0.1808955388
   44      H      -5.9965893334    -2.2076623713    -0.5285314349
   45      H      -3.8660879920    -3.7562385293    -1.8790999872
   46      H      -4.6051263393    -2.2600928840    -2.5229300724
   47      H      -1.8688461822    -2.2444676255    -1.7123545683
   48      H      -5.1543876443     3.4765695483     1.2851412430
   49      H      -4.1650855576     4.3195534685     0.0237679094
   50      H       3.2181138671    -3.0745933032     3.8510269538
   51      H       2.0588159205    -3.4402991338     2.5088537758
   52      H       1.9212732945    -1.8904374673     3.4163610962
   53      H       0.3571487602     0.9032730203     1.5069128080
   54      H       0.8919276476     0.4238451229    -0.1583231539
   55      H      -0.6531028058     3.0417713217     0.5615806262
   56      H      -0.0071413942     2.6192694236    -1.0674612026
 ----------------------------------------------------------------
 Molecular Point Group                 C1    NOp =  1
 Largest Abelian Subgroup              C1    NOp =  1
 Nuclear Repulsion Energy =  3200.5318936124 hartrees
 There are      113 alpha and      113 beta electrons
 Requested basis set is STO-3G
 There are 86 shells and 176 basis functions

 Total QAlloc Memory Limit   4000 MB
 Mega-Array Size       392 MB
 MEM_STATIC part       400 MB
 A cutoff of  1.0D-12 yielded   2209 shell pairs
 There are     10576 function pairs
 
 -------------------------------------------------------
 OpenMP Integral Computing Module                       
 Release: version 1.0, May 2013, Q-Chem Inc. Pittsburgh 
 -------------------------------------------------------
 Integral Job Info:
 Integral job number is                      11
 Integral operator is                         1
 short-range coefficients                     0
 long-range coefficients              100000000
 Omega coefficients                           0
 if combine SR and LR in K                    0
 Integral screening is                        0
 Integral computing path is                   2
 max size of driver memory is            800000
 size of driver memory is                 45569
 size of scratch memory is              1046100
 max col of scratch BK array                289
 max len of scratch array in speh3           22
 max len of scratch index in speh4            8
 max int batch size is                      520
 min int batch size is                       52
 fixed nKL is                                52
 max L of basis functions is                  1
 order of int derivative is                   0
 number of shells is                         86
 number of basis is                         176
 number of cartesian basis is               176
 number of contracted shell pairs          2209
 number of primitive shell pairs          11146
 maxK2 (contraction) of shell pair            9
 max number of K2 of shell pair               1
 max number of CS2 of shell pair            325
 max number of PS2 of shell pair           1240
 mem total for path MDJ                   49782
 -------------------------------------------------------
 Smallest overlap matrix eigenvalue = 2.13E-01

 Scale SEOQF with 1.000000e-02/1.000000e-01/1.000000e-01

 Standard Electronic Orientation quadrupole field applied
 Nucleus-field energy     =     0.0000000092 hartrees
 Guess from superposition of atomic densities
 Warning:  Energy on first SCF cycle will be non-variational
 A restricted hybrid HF-DFT SCF calculation will be
 performed using Pulay DIIS extrapolation
 Exchange:     0.2000 Hartree-Fock + 0.0800 Slater + 0.7200 B88
 Correlation:  0.1900 VWN1RPA + 0.8100 LYP
 Using SG-1 standard quadrature grid
 Dispersion:   Grimme D3
 SCF converges when DIIS error is below 1.0E-08
 using 48 threads for integral computing
 -------------------------------------------------------
 OpenMP Integral computing Module                
 Release: version 1.0, May 2013, Q-Chem Inc. Pittsburgh 
 -------------------------------------------------------
 -------------------------------------------------------
 OpenMP BLAS3 based DFT computing Module                
 Release: version 1.0, May 2013, Q-Chem Inc. Pittsburgh 
 -------------------------------------------------------
 ---------------------------------------
  Cycle       Energy         DIIS Error
 ---------------------------------------
    1   -1507.5883495319      7.45E-02
    2   -1509.6949585244      1.06E-02
    3   -1507.3345992618      2.72E-02
    4   -1510.1519471469      4.71E-03
    5   -1510.2389494333      1.68E-03
    6   -1510.2477279600      9.08E-04
    7   -1510.2512232071      1.50E-04
    8   -1510.2513186332      3.82E-05
    9   -1510.2513239607      1.58E-05
   10   -1510.2513249752      5.79E-06
   11   -1510.2513251205      1.56E-06
   12   -1510.2513251319      2.58E-07
   13   -1510.2513251321      8.83E-08
   14   -1510.2513251323      2.82E-08
   15   -1510.2513251322      1.67E-08
   16   -1510.2513251321      7.41E-09 Convergence criterion met
 ---------------------------------------
 SCF time:  CPU 117.60 s  wall 2.51 s
 SCF   energy in the final basis set = -1510.25132513
 Total energy in the final basis set = -1510.25132513
 
 --------------------------------------------------------------
 
                    Orbital Energies (a.u.)
 --------------------------------------------------------------
 
 Alpha MOs
 -- Occupied --
-18.934 -18.933 -18.928 -18.898 -18.894 -18.886 -18.879 -18.872
-18.871 -18.868 -10.104 -10.097 -10.096 -10.095 -10.067 -10.059
-10.059 -10.058 -10.056 -10.052 -10.051 -10.049 -10.036 -10.035
-10.034 -10.032 -10.019 -10.018 -10.016 -10.015  -1.010  -1.009
 -1.003  -1.001  -0.969  -0.963  -0.935  -0.933  -0.930  -0.928
 -0.761  -0.757  -0.722  -0.719  -0.706  -0.699  -0.690  -0.659
 -0.657  -0.605  -0.594  -0.580  -0.545  -0.539  -0.536  -0.531
 -0.509  -0.504  -0.479  -0.467  -0.458  -0.454  -0.449  -0.440
 -0.431  -0.427  -0.425  -0.409  -0.407  -0.405  -0.403  -0.394
 -0.390  -0.375  -0.371  -0.365  -0.362  -0.353  -0.347  -0.341
 -0.341  -0.339  -0.333  -0.330  -0.326  -0.322  -0.319  -0.311
 -0.306  -0.305  -0.302  -0.295  -0.289  -0.284  -0.282  -0.272
 -0.265  -0.252  -0.249  -0.243  -0.234  -0.233  -0.227  -0.175
 -0.174  -0.168  -0.157  -0.156  -0.149  -0.148  -0.143  -0.139
 -0.135
 -- Virtual --
  0.075   0.101   0.102   0.109   0.211   0.237   0.245   0.260
  0.261   0.276   0.286   0.287   0.302   0.320   0.330   0.335
  0.339   0.340   0.345   0.348   0.355   0.356   0.370   0.378
  0.382   0.384   0.392   0.403   0.407   0.410   0.413   0.416
  0.417   0.423   0.424   0.426   0.428   0.435   0.436   0.437
  0.440   0.443   0.446   0.447   0.449   0.452   0.458   0.468
  0.472   0.473   0.490   0.495   0.500   0.505   0.513   0.537
  0.545   0.553   0.561   0.624   0.634   0.651   0.652
 --------------------------------------------------------------
 
          Ground-State Mulliken Net Atomic Charges

     Atom                 Charge (a.u.)
  ----------------------------------------
      1 O                    -0.216961
      2 C                     0.213042
      3 C                    -0.080802
      4 C                    -0.074502
      5 C                     0.214274
      6 O                    -0.165860
      7 C                    -0.046409
      8 C                    -0.063394
      9 O                    -0.200222
     10 C                     0.219650
     11 C                    -0.080791
     12 C                    -0.080809
     13 C                     0.204693
     14 O                    -0.211055
     15 O                    -0.163984
     16 O                    -0.166868
     17 O                    -0.185235
     18 C                    -0.128335
     19 C                     0.023263
     20 C                    -0.144793
     21 C                    -0.143540
     22 C                     0.025442
     23 O                    -0.186562
     24 H                     0.084525
     25 H                     0.086352
     26 H                     0.090622
     27 H                     0.077683
     28 H                     0.072997
     29 H                     0.078111
     30 H                     0.073359
     31 H                     0.087098
     32 O                    -0.207284
     33 C                    -0.127031
     34 C                     0.021957
     35 C                    -0.141486
     36 C                    -0.146447
     37 C                     0.022694
     38 O                    -0.191618
     39 H                     0.082731
     40 H                     0.084992
     41 H                     0.086686
     42 H                     0.088969
     43 H                     0.077081
     44 H                     0.072010
     45 H                     0.077605
     46 H                     0.072132
     47 H                     0.092058
     48 H                     0.088369
     49 H                     0.088760
     50 H                     0.090510
     51 H                     0.090015
     52 H                     0.092379
     53 H                     0.078090
     54 H                     0.119949
     55 H                     0.088666
     56 H                     0.087221
  ----------------------------------------
  Sum of atomic charges =     0.000000

 -----------------------------------------------------------------
                    Cartesian Multipole Moments
 -----------------------------------------------------------------
    Charge (ESU x 10^10)
                 0.0000
    Dipole Moment (Debye)
         X       0.5222      Y       0.0587      Z      -1.9241
       Tot       1.9946
    Quadrupole Moments (Debye-Ang)
        XX    -141.2374     XY      -1.5373     YY    -151.4275
        XZ       1.9687     YZ      -1.7799     ZZ    -162.4578
    Octopole Moments (Debye-Ang^2)
       XXX      21.2890    XXY      -0.1791    XYY     -15.5269
       YYY      24.3033    XXZ     -50.7839    XYZ     -14.2816
       YYZ      13.4194    XZZ       1.4796    YZZ     -16.8299
       ZZZ      10.9150
    Hexadecapole Moments (Debye-Ang^3)
      XXXX  -11281.1322   XXXY       3.9487   XXYY   -2347.2740
      XYYY    -177.1920   YYYY   -2886.6500   XXXZ      49.2479
      XXYZ       6.5233   XYYZ      -0.9352   YYYZ     -14.1192
      XXZZ   -2379.9781   XYZZ     -42.7316   YYZZ    -797.7646
      XZZZ      50.6303   YZZZ     -80.0571   ZZZZ   -2026.5046
 -----------------------------------------------------------------
 Calculating analytic gradient of the SCF energy
 Gradient of SCF Energy
            1           2           3           4           5           6
    1  -0.0086231   0.0108205   0.0021184  -0.0045362   0.0002385   0.0006943
    2   0.0017127  -0.0007978  -0.0051600   0.0057172  -0.0041085   0.0017287
    3  -0.0027883   0.0017438   0.0063937  -0.0075522   0.0073581  -0.0071458
            7           8           9          10          11          12
    1  -0.0027349   0.0021727  -0.0003833   0.0006794  -0.0008853   0.0002776
    2   0.0024313  -0.0018120   0.0000994   0.0013863  -0.0010126  -0.0000891
    3   0.0071372  -0.0058498   0.0003730   0.0007757  -0.0006066   0.0002139
           13          14          15          16          17          18
    1  -0.0001717   0.0000638  -0.0000814   0.0001328   0.0000094  -0.0001801
    2  -0.0000045   0.0000420   0.0000131  -0.0000364   0.0000120   0.0000366
    3  -0.0000433   0.0000289  -0.0000982   0.0000767   0.0000241   0.0000445
           19          20          21          22          23          24
    1  -0.0000781   0.0000525   0.0001744  -0.0001707   0.0001473  -0.0000952
    2   0.0000318  -0.0000114  -0.0002096   0.0004954  -0.0000560   0.0000165
    3  -0.0000302  -0.0002257   0.0001114   0.0000152   0.0000422   0.0000017
           25          26          27          28          29          30
    1   0.0000217   0.0000839   0.0000588  -0.0000725  -0.0000265  -0.0000078
    2  -0.0001185  -0.0001665  -0.0000463   0.0000110   0.0000483   0.0000060
    3   0.0000300  -0.0000084  -0.0000492   0.0001121   0.0000028  -0.0000178
           31          32          33          34          35          36
    1  -0.0000697   0.0000599   0.0000429   0.0000476   0.0001334  -0.0000249
    2  -0.0000465  -0.0000620   0.0000185  -0.0001152   0.0001523   0.0000709
    3   0.0000276   0.0001475   0.0000274  -0.0001916  -0.0002055   0.0001478
           37          38          39          40          41          42
    1   0.0000816  -0.0000351  -0.0000552   0.0000472   0.0000021  -0.0000045
    2   0.0000790  -0.0000011   0.0002074  -0.0000472  -0.0000272   0.0000554
    3  -0.0000680   0.0000062   0.0000886   0.0000362  -0.0000247   0.0000067
           43          44          45          46          47          48
    1  -0.0001734   0.0000085   0.0000237  -0.0000006   0.0000521  -0.0000118
    2  -0.0001333  -0.0000149  -0.0000116  -0.0001033  -0.0001320  -0.0000003
    3   0.0000992  -0.0000132  -0.0000175  -0.0000511   0.0000024   0.0000348
           49          50          51          52          53          54
    1   0.0000058   0.0000109   0.0000054   0.0000895   0.0000327  -0.0000440
    2  -0.0000098  -0.0000166   0.0000280   0.0000095   0.0000025   0.0000091
    3  -0.0000071  -0.0000182  -0.0000194  -0.0000192  -0.0000043  -0.0000844
           55          56
    1   0.0001286  -0.0000519
    2  -0.0000418  -0.0000288
    3   0.0000399  -0.0000096
 Max gradient component =       1.082E-02
 RMS gradient           =       1.932E-03
 Gradient time:  CPU 32.47 s  wall 0.70 s
 Geometry Optimization Parameters
   NAtoms,    NIC,     NZ,  NCons,   NDum,   NFix, NCnnct, MaxDiis
       56     458       0       0       0       0       0       0


** GEOMETRY OPTIMIZATION IN DELOCALIZED INTERNAL COORDINATES **
   Searching for a Minimum

   Optimization Cycle:   1

                       Coordinates (Angstroms)
     ATOM                X               Y               Z
      1  O        -4.5622269891    1.1027335568    1.8926438135
      2  C        -4.2001471679    1.0767350956    0.6955218948
      3  C        -4.1672930980   -0.1841472229   -0.2377755230
      4  C        -3.0348634313   -0.3429315345   -1.3337158092
      5  C        -1.6045075738    0.2763862086   -1.0390795872
      6  O        -1.7106588917    1.5347065442   -0.3822554891
      7  C        -0.4064761883    2.2002350129   -0.1169036422
      8  C         0.6998497354    1.2865396246    0.5196626217
      9  O         1.9095420472    2.1370514428    0.6534080623
     10  C         2.9386897888    1.3257948413    1.2877099488
     11  C         4.0521114207    0.8379871695    0.2722172305
     12  C         4.0162146114   -0.7436230722    0.0715125927
     13  C         2.9537193142   -1.4639684219    0.9704909238
     14  O         1.7242153063   -1.5623780686    0.7629897646
     15  O        -4.0777713055    2.2492782559   -0.1189026572
     16  O         3.6224809996   -2.0150491530    2.1081187183
     17  O         2.9352665534    1.0630993130    2.5086580703
     18  C         2.6344969310   -2.6408898860    3.0185120474
     19  C         3.7653016602    1.3299679447   -1.2032909969
     20  C         5.0388942516    1.0511289269   -2.0953051731
     21  C         4.9283342050   -0.5037663937   -2.3128279002
     22  C         3.6368637147   -0.8353334910   -1.4688559153
     23  O         2.7694544914    0.3439615047   -1.6892697763
     24  H         5.0417490324    1.1592722496    0.6454861808
     25  H         5.0054062390   -1.1866353917    0.2817920343
     26  H         3.3498728203    2.3536041117   -1.2614033830
     27  H         4.9704240833    1.5993072237   -3.0482543834
     28  H         5.9711061070    1.3437419428   -1.5861784983
     29  H         4.7657950540   -0.7513521594   -3.3739561125
     30  H         5.8146538786   -1.0507203869   -1.9536310928
     31  H         3.1035576225   -1.7628369449   -1.7538139643
     32  O        -0.5378696044   -0.2587270096   -1.4188092525
     33  C        -4.1997004151    3.4617875986    0.7202652691
     34  C        -4.0976107319   -1.5892345532    0.5018167307
     35  C        -4.9812257838   -2.5905216429   -0.3374450201
     36  C        -4.1111825898   -2.7082338945   -1.6454096787
     37  C        -2.8104477180   -1.9123793796   -1.2331763082
     38  O        -2.7255597336   -2.0839477434    0.2407301656
     39  H        -5.1301278823   -0.1258691566   -0.7823962426
     40  H        -3.3777008569   -0.0004426761   -2.3275073778
     41  H        -3.3621932488    3.5399387249    1.4431866092
     42  H        -4.3056116546   -1.5434814274    1.5888031111
     43  H        -5.0589520362   -3.5600434252    0.1808955388
     44  H        -5.9965893334   -2.2076623713   -0.5285314349
     45  H        -3.8660879920   -3.7562385293   -1.8790999872
     46  H        -4.6051263393   -2.2600928840   -2.5229300724
     47  H        -1.8688461822   -2.2444676255   -1.7123545683
     48  H        -5.1543876443    3.4765695483    1.2851412430
     49  H        -4.1650855576    4.3195534685    0.0237679094
     50  H         3.2181138671   -3.0745933032    3.8510269538
     51  H         2.0588159205   -3.4402991338    2.5088537758
     52  H         1.9212732945   -1.8904374673    3.4163610962
     53  H         0.3571487602    0.9032730203    1.5069128080
     54  H         0.8919276476    0.4238451229   -0.1583231539
     55  H        -0.6531028058    3.0417713217    0.5615806262
     56  H        -0.0071413942    2.6192694236   -1.0674612026
   Point Group: c1    Number of degrees of freedom:   162


   Energy is  -1510.251325132


 Attempting to Generate Delocalized Internal Coordinates

162 Hessian modes will be used to form the next step
  Hessian Eigenvalues:
     0.002000    0.002000    0.002000    0.002000    0.002000    0.002692
     0.002861    0.003526    0.004001    0.004271    0.004429    0.004786
     0.004931    0.005114    0.006493    0.006785    0.006845    0.008252
     0.011297    0.011666    0.012551    0.021109    0.021664    0.024708
     0.026327    0.030277    0.030758    0.034326    0.035749    0.036389
     0.041032    0.041722    0.042123    0.042759    0.042973    0.046854
     0.047063    0.047739    0.050580    0.050975    0.053222    0.053410
     0.054353    0.055146    0.055303    0.055933    0.056256    0.057003
     0.058659    0.059038    0.059489    0.060642    0.060758    0.062862
     0.063842    0.064241    0.064679    0.070334    0.070399    0.073071
     0.073956    0.091366    0.091443    0.092796    0.093031    0.095587
     0.096739    0.096876    0.097111    0.102641    0.102691    0.104980
     0.109665    0.112416    0.117474    0.121089    0.123512    0.133233
     0.140518    0.157039    0.158249    0.160000    0.160000    0.160000
     0.160000    0.160000    0.160000    0.163494    0.165702    0.219818
     0.220444    0.220686    0.221143    0.223239    0.229030    0.238195
     0.238527    0.239882    0.240120    0.244520    0.245177    0.247830
     0.248343    0.249551    0.249592    0.249989    0.250000    0.250000
     0.250000    0.250000    0.250000    0.250000    0.250000    0.250000
     0.250000    0.253576    0.253673    0.260405    0.260922    0.262431
     0.289757    0.291722    0.305387    0.305916    0.321893    0.322736
     0.322915    0.326654    0.326901    0.326932    0.326937    0.327316
     0.328419    0.328497    0.328685    0.328989    0.330003    0.330652
     0.330841    0.330906    0.330978    0.332357    0.334396    0.334476
     0.334791    0.334894    0.334948    0.334964    0.335169    0.335320
     0.336663    0.340265    0.343308    0.346142    0.374834    0.405795
     0.409778    0.419530    0.823925    0.828864    0.829536    0.836470

 Minimum Search - Taking Simple RFO Step
 Searching for Lamda that Minimizes Along All modes
 Value Taken    Lamda =  -0.01188263
 Calculated Step too Large.  Step scaled by  0.359663
 Step Taken.  Stepsize is  0.300000

                             Maximum     Tolerance    Cnvgd?
         Gradient           0.005335      0.000300      NO
         Displacement       0.077876      0.001200      NO
         Energy change     *********      0.000001      NO


 New Cartesian Coordinates Obtained by Inverse Iteration

 Displacement from previous Coordinates is:  1.580252
 Adding empirical dispersion correction 
 ----------------------------------------------------------------
 Doing -D3(op) with
 s6 =   1.00000
 s8 =   0.78311
 a1 =   0.30000
 a2 =   4.25000
 n  =  10.00000
 -D3 energy without 3body term =     -0.0692585727 hartrees
 ----------------------------------------------------------------
             Standard Nuclear Orientation (Angstroms)
    I     Atom           X                Y                Z
 ----------------------------------------------------------------
    1      O      -4.3051137902     1.0985066889     1.9535036038
    2      C      -4.1465362119     1.0818318032     0.7127252798
    3      C      -4.1631446686    -0.1833911146    -0.2151017979
    4      C      -3.0992593189    -0.3370518439    -1.3789590495
    5      C      -1.6638469224     0.3091331144    -1.1834757404
    6      O      -1.7435522226     1.5486070262    -0.4883045254
    7      C      -0.4272586782     2.1931241965    -0.2313335600
    8      C       0.6395714295     1.2884392552     0.4810183021
    9      O       1.8626005698     2.1201048877     0.6114631393
   10      C       2.8692074155     1.3071646839     1.2788792160
   11      C       4.0258559058     0.8385828624     0.3035408688
   12      C       4.0176818579    -0.7419420874     0.0909879371
   13      C       2.9324537118    -1.4829291620     0.9448777482
   14      O       1.7131382804    -1.5972434782     0.6905864221
   15      O      -4.1419162122     2.2569778135    -0.1071033120
   16      O       3.5661818805    -2.0336296712     2.1025296178
   17      O       2.8293620820     1.0490286416     2.5001494713
   18      C       2.5547096551    -2.6825755647     2.9699302746
   19      C       3.7872359840     1.3371507693    -1.1783133657
   20      C       5.0962483459     1.0813064353    -2.0245464351
   21      C       5.0142072815    -0.4732175015    -2.2565895355
   22      C       3.6971337311    -0.8277899081    -1.4630524141
   23      O       2.8229502459     0.3418445461    -1.7074094008
   24      H       4.9968811102     1.1697897525     0.7151790777
   25      H       5.0042099146    -1.1733934269     0.3349178464
   26      H       3.3607763810     2.3558319487    -1.2448995623
   27      H       5.0553445798     1.6355514695    -2.9755552519
   28      H       6.0054086276     1.3821981460    -1.4797988823
   29      H       4.8941187743    -0.7153030367    -3.3246237670
   30      H       5.8938874066    -1.0112169604    -1.8686670494
   31      H       3.1871521428    -1.7600527288    -1.7738689075
   32      O      -0.6134611100    -0.2157951498    -1.6186521979
   33      C      -4.1651239916     3.4668972134     0.7442590764
   34      C      -4.0139133977    -1.5788940800     0.5326772814
   35      C      -4.9340545073    -2.6058274093    -0.2330108337
   36      C      -4.1534918114    -2.7227551719    -1.5963821061
   37      C      -2.8418527231    -1.9008945999    -1.2810789239
   38      O      -2.6541989910    -2.0536984799     0.1848374013
   39      H      -5.1644935975    -0.1505439866    -0.6876073336
   40      H      -3.5117022684    -0.0087343092    -2.3508811652
   41      H      -3.2417559310     3.5519037334     1.3528051128
   42      H      -4.1478456535    -1.5241752948     1.6308369415
   43      H      -4.9576025431    -3.5704970154     0.2992791137
   44      H      -5.9671089289    -2.2434312367    -0.3576793882
   45      H      -3.9064398902    -3.7688796333    -1.8362935071
   46      H      -4.7139424168    -2.2922443953    -2.4422014810
   47      H      -1.9289145371    -2.2216993730    -1.8196240339
   48      H      -5.0386566475     3.4716972973     1.4280792153
   49      H      -4.2290066401     4.3261035418     0.0516112222
   50      H       3.1132731371    -3.1133623910     3.8209413915
   51      H       2.0121100227    -3.4871797738     2.4328723177
   52      H       1.8144462048    -1.9470732725     3.3457907678
   53      H       0.2612051989     0.9575345289     1.4741742286
   54      H       0.8322644243     0.3920415338    -0.1515125848
   55      H      -0.6692601917     3.0670812150     0.4066529999
   56      H       0.0006227098     2.5642238007    -1.1893782259
 ----------------------------------------------------------------
 Molecular Point Group                 C1    NOp =  1
 Largest Abelian Subgroup              C1    NOp =  1
 Nuclear Repulsion Energy =  3199.9600238935 hartrees
 There are      113 alpha and      113 beta electrons
 Applying Cartesian multipole field
    Component          Value
    ---------          -----
     (2,0,0)        1.00000E-12
     (0,2,0)        2.00000E-11
     (0,0,2)       -3.00000E-11
 Nucleus-field energy     =     0.0000000093 hartrees
 Requested basis set is STO-3G
 There are 86 shells and 176 basis functions
 A cutoff of  1.0D-12 yielded   2220 shell pairs
 There are     10650 function pairs
 Smallest overlap matrix eigenvalue = 2.13E-01
 Guess MOs from SCF MO coefficient file
 Reading MOs from coefficient file
 Reading MOs from coefficient file
 A restricted hybrid HF-DFT SCF calculation will be
 performed using Pulay DIIS extrapolation
 Exchange:     0.2000 Hartree-Fock + 0.0800 Slater + 0.7200 B88
 Correlation:  0.1900 VWN1RPA + 0.8100 LYP
 Using SG-1 standard quadrature grid
 Dispersion:   Grimme D3
 SCF converges when DIIS error is below 1.0E-08
 Geometry optimization detected.  Setting ReadMinima to 0
 Setting SaveMinima to 0
 using 48 threads for integral computing
 -------------------------------------------------------
 OpenMP Integral computing Module                
 Release: version 1.0, May 2013, Q-Chem Inc. Pittsburgh 
 -------------------------------------------------------
 -------------------------------------------------------
 OpenMP BLAS3 based DFT computing Module                
 Release: version 1.0, May 2013, Q-Chem Inc. Pittsburgh 
 -------------------------------------------------------
 ---------------------------------------
  Cycle       Energy         DIIS Error
 ---------------------------------------
    1   -1510.1797995182      4.20E-03
    2   -1510.2538058499      3.41E-04
    3   -1510.2537793955      4.51E-04
    4   -1510.2546416546      1.74E-04
    5   -1510.2547675671      5.75E-05
    6   -1510.2547819147      1.47E-05
    7   -1510.2547826797      8.33E-06
    8   -1510.2547829690      2.18E-06
    9   -1510.2547829900      4.68E-07
   10   -1510.2547829907      3.61E-07
   11   -1510.2547829913      1.05E-07
   12   -1510.2547829913      3.33E-08
   13   -1510.2547829912      1.62E-08
   14   -1510.2547829913      5.11E-09 Convergence criterion met
 ---------------------------------------
 SCF time:  CPU 103.25 s  wall 2.16 s
 SCF   energy in the final basis set = -1510.25478299
 Total energy in the final basis set = -1510.25478299
 
 --------------------------------------------------------------
 
                    Orbital Energies (a.u.)
 --------------------------------------------------------------
 
 Alpha MOs
 -- Occupied --
-18.934 -18.933 -18.927 -18.898 -18.897 -18.886 -18.879 -18.873
-18.870 -18.867 -10.105 -10.096 -10.096 -10.095 -10.068 -10.060
-10.059 -10.058 -10.056 -10.053 -10.052 -10.050 -10.037 -10.035
-10.034 -10.031 -10.019 -10.018 -10.016 -10.015  -1.010  -1.009
 -1.003  -1.001  -0.968  -0.963  -0.935  -0.933  -0.931  -0.928
 -0.761  -0.757  -0.722  -0.719  -0.706  -0.699  -0.690  -0.659
 -0.657  -0.606  -0.594  -0.580  -0.545  -0.538  -0.536  -0.531
 -0.510  -0.503  -0.480  -0.468  -0.457  -0.454  -0.448  -0.441
 -0.431  -0.427  -0.424  -0.409  -0.407  -0.405  -0.403  -0.395
 -0.390  -0.377  -0.371  -0.365  -0.361  -0.353  -0.347  -0.342
 -0.341  -0.338  -0.333  -0.330  -0.326  -0.322  -0.319  -0.311
 -0.306  -0.305  -0.302  -0.296  -0.290  -0.284  -0.282  -0.272
 -0.265  -0.252  -0.249  -0.244  -0.235  -0.232  -0.227  -0.175
 -0.175  -0.168  -0.157  -0.157  -0.149  -0.149  -0.143  -0.139
 -0.137
 -- Virtual --
  0.075   0.101   0.102   0.111   0.210   0.237   0.245   0.260
  0.261   0.276   0.286   0.288   0.303   0.320   0.330   0.336
  0.339   0.340   0.344   0.347   0.356   0.356   0.370   0.377
  0.382   0.383   0.391   0.403   0.406   0.409   0.413   0.416
  0.417   0.422   0.423   0.426   0.428   0.434   0.435   0.436
  0.440   0.444   0.445   0.448   0.449   0.453   0.460   0.466
  0.470   0.472   0.490   0.494   0.496   0.505   0.513   0.538
  0.545   0.553   0.561   0.623   0.635   0.652   0.652
 --------------------------------------------------------------
 
          Ground-State Mulliken Net Atomic Charges

     Atom                 Charge (a.u.)
  ----------------------------------------
      1 O                    -0.217229
      2 C                     0.213718
      3 C                    -0.081126
      4 C                    -0.074608
      5 C                     0.213618
      6 O                    -0.167227
      7 C                    -0.045610
      8 C                    -0.060334
      9 O                    -0.197885
     10 C                     0.219299
     11 C                    -0.080534
     12 C                    -0.080759
     13 C                     0.204915
     14 O                    -0.211325
     15 O                    -0.165242
     16 O                    -0.166739
     17 O                    -0.185333
     18 C                    -0.128347
     19 C                     0.023262
     20 C                    -0.144814
     21 C                    -0.143523
     22 C                     0.025318
     23 O                    -0.186607
     24 H                     0.084723
     25 H                     0.086397
     26 H                     0.090618
     27 H                     0.077726
     28 H                     0.072895
     29 H                     0.078185
     30 H                     0.073263
     31 H                     0.086957
     32 O                    -0.208046
     33 C                    -0.126638
     34 C                     0.021828
     35 C                    -0.141570
     36 C                    -0.146375
     37 C                     0.022802
     38 O                    -0.191571
     39 H                     0.082204
     40 H                     0.084641
     41 H                     0.086691
     42 H                     0.088968
     43 H                     0.076976
     44 H                     0.071797
     45 H                     0.077614
     46 H                     0.072218
     47 H                     0.092210
     48 H                     0.088199
     49 H                     0.088755
     50 H                     0.090588
     51 H                     0.090105
     52 H                     0.092528
     53 H                     0.080157
     54 H                     0.114931
     55 H                     0.088649
     56 H                     0.088688
  ----------------------------------------
  Sum of atomic charges =     0.000000

 -----------------------------------------------------------------
                    Cartesian Multipole Moments
 -----------------------------------------------------------------
    Charge (ESU x 10^10)
                 0.0000
    Dipole Moment (Debye)
         X       0.4453      Y       0.0680      Z      -1.6722
       Tot       1.7318
    Quadrupole Moments (Debye-Ang)
        XX    -139.5064     XY      -1.1660     YY    -151.0871
        XZ       1.5746     YZ      -1.9215     ZZ    -163.2718
    Octopole Moments (Debye-Ang^2)
       XXX      15.4427    XXY      -0.2107    XYY     -14.8821
       YYY      23.4655    XXZ     -41.7588    XYZ     -13.9168
       YYZ      15.8936    XZZ       0.5859    YZZ     -16.9255
       ZZZ      15.5585
    Hexadecapole Moments (Debye-Ang^3)
      XXXX  -11144.6612   XXXY       2.5970   XXYY   -2340.0645
      XYYY    -176.3540   YYYY   -2898.4641   XXXZ      27.8746
      XXYZ      21.9618   XYYZ      -0.1382   YYYZ      -1.7594
      XXZZ   -2355.6432   XYZZ     -40.4950   YYZZ    -798.0378
      XZZZ      58.8038   YZZZ     -66.0510   ZZZZ   -2030.2304
 -----------------------------------------------------------------
 Calculating analytic gradient of the SCF energy
 Gradient of SCF Energy
            1           2           3           4           5           6
    1  -0.0057023   0.0021506   0.0043198  -0.0038399  -0.0005916   0.0012357
    2   0.0007007   0.0000211  -0.0044081   0.0028885  -0.0003460   0.0009214
    3   0.0002506  -0.0017452   0.0048837  -0.0038086   0.0032353  -0.0077026
            7           8           9          10          11          12
    1  -0.0008116   0.0037561   0.0002472  -0.0012274  -0.0003048   0.0002270
    2   0.0006619  -0.0005861   0.0018824  -0.0002822  -0.0008659  -0.0002185
    3   0.0065269  -0.0028230   0.0016834  -0.0001941  -0.0004407   0.0000118
           13          14          15          16          17          18
    1  -0.0003623   0.0004837   0.0014079   0.0001749   0.0006733  -0.0001425
    2  -0.0000119  -0.0005768   0.0008473  -0.0000628   0.0009632  -0.0000264
    3  -0.0000564   0.0001152   0.0004499   0.0002384   0.0002532   0.0000318
           19          20          21          22          23          24
    1  -0.0000112  -0.0000629  -0.0000034   0.0000116   0.0001305   0.0000296
    2   0.0001249   0.0000194  -0.0002066   0.0002247  -0.0002621   0.0000027
    3   0.0003346  -0.0001876   0.0000420   0.0000827  -0.0002433  -0.0000339
           25          26          27          28          29          30
    1  -0.0000193  -0.0000216   0.0000804  -0.0000299   0.0000013  -0.0000269
    2  -0.0000338  -0.0000552  -0.0000110   0.0000114   0.0000501   0.0000328
    3   0.0000085   0.0000355  -0.0000475   0.0000851  -0.0000045  -0.0000042
           31          32          33          34          35          36
    1  -0.0000581  -0.0007724   0.0002450   0.0002317   0.0003992   0.0001881
    2  -0.0000341  -0.0032198   0.0002359   0.0003003   0.0000710   0.0001579
    3   0.0000153  -0.0007229   0.0000260  -0.0006220  -0.0001400   0.0001958
           37          38          39          40          41          42
    1  -0.0002244   0.0005220  -0.0006467   0.0001341  -0.0000637  -0.0000840
    2  -0.0001525  -0.0001528   0.0001719   0.0003548   0.0000621  -0.0000649
    3  -0.0003258  -0.0003673   0.0012498   0.0001272  -0.0000411  -0.0000776
           43          44          45          46          47          48
    1  -0.0001532  -0.0000785   0.0000132  -0.0002280   0.0000452  -0.0000413
    2  -0.0000434   0.0000336   0.0000075  -0.0002477  -0.0001337  -0.0000958
    3   0.0000880  -0.0000276   0.0000175  -0.0001159   0.0000736  -0.0000194
           49          50          51          52          53          54
    1   0.0000099   0.0000039   0.0000355   0.0000627   0.0001449  -0.0008748
    2  -0.0000216   0.0000062   0.0000395   0.0000050   0.0000892   0.0008796
    3  -0.0000066  -0.0000102  -0.0000407  -0.0000234   0.0000379  -0.0003793
           55          56
    1   0.0000975  -0.0006797
    2  -0.0003383   0.0006910
    3   0.0003732  -0.0002617
 Max gradient component =       7.703E-03
 RMS gradient           =       1.363E-03
 Gradient time:  CPU 30.14 s  wall 0.64 s
 Geometry Optimization Parameters
   NAtoms,    NIC,     NZ,  NCons,   NDum,   NFix, NCnnct, MaxDiis
       56     458       0       0       0       0       0       0

 Cartesian Hessian Update
 Hessian Updated using BFGS Update


** GEOMETRY OPTIMIZATION IN DELOCALIZED INTERNAL COORDINATES **
   Searching for a Minimum

   Optimization Cycle:   2

                       Coordinates (Angstroms)
     ATOM                X               Y               Z
      1  O        -4.3051137902    1.0985066889    1.9535036038
      2  C        -4.1465362119    1.0818318032    0.7127252798
      3  C        -4.1631446686   -0.1833911146   -0.2151017979
      4  C        -3.0992593189   -0.3370518439   -1.3789590495
      5  C        -1.6638469224    0.3091331144   -1.1834757404
      6  O        -1.7435522226    1.5486070262   -0.4883045254
      7  C        -0.4272586782    2.1931241965   -0.2313335600
      8  C         0.6395714295    1.2884392552    0.4810183021
      9  O         1.8626005698    2.1201048877    0.6114631393
     10  C         2.8692074155    1.3071646839    1.2788792160
     11  C         4.0258559058    0.8385828624    0.3035408688
     12  C         4.0176818579   -0.7419420874    0.0909879371
     13  C         2.9324537118   -1.4829291620    0.9448777482
     14  O         1.7131382804   -1.5972434782    0.6905864221
     15  O        -4.1419162122    2.2569778135   -0.1071033120
     16  O         3.5661818805   -2.0336296712    2.1025296178
     17  O         2.8293620820    1.0490286416    2.5001494713
     18  C         2.5547096551   -2.6825755647    2.9699302746
     19  C         3.7872359840    1.3371507693   -1.1783133657
     20  C         5.0962483459    1.0813064353   -2.0245464351
     21  C         5.0142072815   -0.4732175015   -2.2565895355
     22  C         3.6971337311   -0.8277899081   -1.4630524141
     23  O         2.8229502459    0.3418445461   -1.7074094008
     24  H         4.9968811102    1.1697897525    0.7151790777
     25  H         5.0042099146   -1.1733934269    0.3349178464
     26  H         3.3607763810    2.3558319487   -1.2448995623
     27  H         5.0553445798    1.6355514695   -2.9755552519
     28  H         6.0054086276    1.3821981460   -1.4797988823
     29  H         4.8941187743   -0.7153030367   -3.3246237670
     30  H         5.8938874066   -1.0112169604   -1.8686670494
     31  H         3.1871521428   -1.7600527288   -1.7738689075
     32  O        -0.6134611100   -0.2157951498   -1.6186521979
     33  C        -4.1651239916    3.4668972134    0.7442590764
     34  C        -4.0139133977   -1.5788940800    0.5326772814
     35  C        -4.9340545073   -2.6058274093   -0.2330108337
     36  C        -4.1534918114   -2.7227551719   -1.5963821061
     37  C        -2.8418527231   -1.9008945999   -1.2810789239
     38  O        -2.6541989910   -2.0536984799    0.1848374013
     39  H        -5.1644935975   -0.1505439866   -0.6876073336
     40  H        -3.5117022684   -0.0087343092   -2.3508811652
     41  H        -3.2417559310    3.5519037334    1.3528051128
     42  H        -4.1478456535   -1.5241752948    1.6308369415
     43  H        -4.9576025431   -3.5704970154    0.2992791137
     44  H        -5.9671089289   -2.2434312367   -0.3576793882
     45  H        -3.9064398902   -3.7688796333   -1.8362935071
     46  H        -4.7139424168   -2.2922443953   -2.4422014810
     47  H        -1.9289145371   -2.2216993730   -1.8196240339
     48  H        -5.0386566475    3.4716972973    1.4280792153
     49  H        -4.2290066401    4.3261035418    0.0516112222
     50  H         3.1132731371   -3.1133623910    3.8209413915
     51  H         2.0121100227   -3.4871797738    2.4328723177
     52  H         1.8144462048   -1.9470732725    3.3457907678
     53  H         0.2612051989    0.9575345289    1.4741742286
     54  H         0.8322644243    0.3920415338   -0.1515125848
     55  H        -0.6692601917    3.0670812150    0.4066529999
     56  H         0.0006227098    2.5642238007   -1.1893782259
   Point Group: c1    Number of degrees of freedom:   162


   Energy is  -1510.254782991

 Hessian Updated using BFGS Update

148 Hessian modes will be used to form the next step
  Hessian Eigenvalues:
     0.001503    0.002170    0.002692    0.002858    0.003384    0.004230
     0.004304    0.004553    0.004786    0.005114    0.005457    0.006642
     0.006844    0.007404    0.010040    0.011296    0.011668    0.019049
     0.021308    0.022049    0.024371    0.027029    0.030384    0.030777
     0.034158    0.035045    0.035762    0.040994    0.041648    0.041921
     0.042262    0.045349    0.046428    0.047165    0.047835    0.050581
     0.051143    0.053238    0.053411    0.054353    0.055151    0.055382
     0.056172    0.056454    0.057136    0.058658    0.059147    0.060014
     0.060750    0.061529    0.062883    0.063845    0.064241    0.064699
     0.070355    0.070411    0.073074    0.074031    0.091418    0.091636
     0.092794    0.093045    0.095622    0.096739    0.096876    0.098306
     0.102641    0.102693    0.105252    0.109704    0.113366    0.117692
     0.121499    0.124301    0.133363    0.140913    0.157168    0.159262
     0.159997    0.160043    0.163495    0.167128    0.219771    0.220353
     0.220445    0.223189    0.225849    0.229855    0.238195    0.238537
     0.239883    0.240107    0.244462    0.245184    0.247842    0.248344
     0.249492    0.249562    0.249658    0.249989    0.253575    0.253671
     0.260376    0.260890    0.262427    0.289637    0.291719    0.305231
     0.305715    0.321431    0.322735    0.322881    0.326654    0.326901
     0.326930    0.326932    0.327313    0.328410    0.328476    0.328678
     0.328988    0.329655    0.330169    0.330651    0.330841    0.330931
     0.330979    0.332361    0.334400    0.334471    0.334794    0.334894
     0.334948    0.334964    0.335169    0.335320    0.340222    0.343308
     0.346133    0.374601    0.401955    0.409317    0.411121    0.431145
     0.824493    0.829416    0.830288    0.836470

 Minimum Search - Taking Simple RFO Step
 Searching for Lamda that Minimizes Along All modes
 Value Taken    Lamda =  -0.00962442
 Calculated Step too Large.  Step scaled by  0.358688
 Step Taken.  Stepsize is  0.300000

                             Maximum     Tolerance    Cnvgd?
         Gradient           0.008315      0.000300      NO
         Displacement       0.098894      0.001200      NO
         Energy change     -0.003458      0.000001      NO


 New Cartesian Coordinates Obtained by Inverse Iteration

 Displacement from previous Coordinates is:  2.062794
 Adding empirical dispersion correction 
 ----------------------------------------------------------------
 Doing -D3(op) with
 s6 =   1.00000
 s8 =   0.78311
 a1 =   0.30000
 a2 =   4.25000
 n  =  10.00000
 -D3 energy without 3body term =     -0.0696444709 hartrees
 ----------------------------------------------------------------
             Standard Nuclear Orientation (Angstroms)
    I     Atom           X                Y                Z
 ----------------------------------------------------------------
    1      O      -4.1078438001     1.1707177543     1.9396299737
    2      C      -4.0900498431     1.1117086390     0.6904313590
    3      C      -4.1386764404    -0.1867547765    -0.1879113541
    4      C      -3.0874107980    -0.3856779313    -1.3551793425
    5      C      -1.6622132180     0.2912939571    -1.2017133127
    6      O      -1.7505996605     1.5355675598    -0.5177476461
    7      C      -0.4270289668     2.1699794333    -0.2872096070
    8      C       0.5995211839     1.2832129248     0.5014670310
    9      O       1.8401249505     2.0909241997     0.6108760243
   10      C       2.8302787679     1.2711752533     1.2938363051
   11      C       4.0146800177     0.8266612937     0.3419742820
   12      C       3.9803181953    -0.7410461531     0.0540818994
   13      C       2.8442154153    -1.4910466433     0.8299243561
   14      O       1.6316560257    -1.5519389283     0.5286059071
   15      O      -4.1798554659     2.2546104465    -0.1685178391
   16      O       3.4181089117    -2.1143182956     1.9817870670
   17      O       2.7415090714     0.9655591024     2.5014849688
   18      C       2.3573168224    -2.7720373434     2.7809864629
   19      C       3.8411408933     1.3992530329    -1.1222582574
   20      C       5.1749939901     1.1546234206    -1.9319687179
   21      C       5.0697304456    -0.3849778902    -2.2407351945
   22      C       3.7170476390    -0.7469604713    -1.5131013956
   23      O       2.8766210391     0.4520410289    -1.7325208591
   24      H       4.9755763637     1.1187166517     0.8039753694
   25      H       4.9464468104    -1.2077921993     0.3140624935
   26      H       3.4384622655     2.4292758676    -1.1554835328
   27      H       5.1801032991     1.7537900799    -2.8561937405
   28      H       6.0696409563     1.4093831193    -1.3416023114
   29      H       4.9843022733    -0.5741630787    -3.3227031755
   30      H       5.9232007589    -0.9600964011    -1.8474649307
   31      H       3.1997927358    -1.6518146481    -1.8864225549
   32      O      -0.6058426316    -0.2178234582    -1.6403714035
   33      C      -4.1447967162     3.4950026148     0.6372316861
   34      C      -3.9604139967    -1.5467024221     0.6195568069
   35      C      -4.8809938356    -2.6166943746    -0.0843842197
   36      C      -4.1190294442    -2.7870909823    -1.4531083209
   37      C      -2.8111447376    -1.9399275330    -1.1937543921
   38      O      -2.6015589667    -2.0244591043     0.2741254864
   39      H      -5.1512734429    -0.1826807145    -0.6368779345
   40      H      -3.5163061240    -0.1023709227    -2.3341829596
   41      H      -3.1711668273     3.6140516803     1.1550742697
   42      H      -4.0768067670    -1.4433602105     1.7162637930
   43      H      -4.8857895846    -3.5566160559     0.4907288400
   44      H      -5.9195520533    -2.2705980359    -0.2091368220
   45      H      -3.8651651532    -3.8404583262    -1.6504270103
   46      H      -4.6952863383    -2.3987905888    -2.3085846207
   47      H      -1.9022965662    -2.2742797982    -1.7308627668
   48      H      -4.9521830786     3.5146928407     1.3977442806
   49      H      -4.2851402490     4.3269576229    -0.0770909969
   50      H       2.8716861071    -3.2582500096     3.6300009286
   51      H       1.8122953789    -3.5344538274     2.1877259406
   52      H       1.6246082799    -2.0329888203     3.1647597575
   53      H       0.1933572487     1.0174292743     1.5032073896
   54      H       0.7847608453     0.3472059713    -0.0741609946
   55      H      -0.6602041793     3.0822650804     0.2983632176
   56      H       0.0239174013     2.4773059437    -1.2570281451
 ----------------------------------------------------------------
 Molecular Point Group                 C1    NOp =  1
 Largest Abelian Subgroup              C1    NOp =  1
 Nuclear Repulsion Energy =  3214.0081474624 hartrees
 There are      113 alpha and      113 beta electrons
 Applying Cartesian multipole field
    Component          Value
    ---------          -----
     (2,0,0)        1.00000E-12
     (0,2,0)        2.00000E-11
     (0,0,2)       -3.00000E-11
 Nucleus-field energy     =     0.0000000126 hartrees
 Requested basis set is STO-3G
 There are 86 shells and 176 basis functions
 A cutoff of  1.0D-12 yielded   2235 shell pairs
 There are     10713 function pairs
 Smallest overlap matrix eigenvalue = 2.13E-01
 Guess MOs from SCF MO coefficient file
 Reading MOs from coefficient file
 Reading MOs from coefficient file
 A restricted hybrid HF-DFT SCF calculation will be
 performed using Pulay DIIS extrapolation
 Exchange:     0.2000 Hartree-Fock + 0.0800 Slater + 0.7200 B88
 Correlation:  0.1900 VWN1RPA + 0.8100 LYP
 Using SG-1 standard quadrature grid
 Dispersion:   Grimme D3
 SCF converges when DIIS error is below 1.0E-08
 Geometry optimization detected.  Setting ReadMinima to 0
 Setting SaveMinima to 0
 using 48 threads for integral computing
 -------------------------------------------------------
 OpenMP Integral computing Module                
 Release: version 1.0, May 2013, Q-Chem Inc. Pittsburgh 
 -------------------------------------------------------
 -------------------------------------------------------
 OpenMP BLAS3 based DFT computing Module                
 Release: version 1.0, May 2013, Q-Chem Inc. Pittsburgh 
 -------------------------------------------------------
 ---------------------------------------
  Cycle       Energy         DIIS Error
 ---------------------------------------
    1   -1510.2037125881      3.64E-03
    2   -1510.2575087980      2.34E-04
    3   -1510.2577981530      2.22E-04
    4   -1510.2579458534      1.43E-04
    5   -1510.2580286546      4.72E-05
    6   -1510.2580380277      1.38E-05
    7   -1510.2580386871      7.88E-06
    8   -1510.2580389597      1.54E-06
    9   -1510.2580389707      4.50E-07
   10   -1510.2580389712      3.72E-07
   11   -1510.2580389719      9.58E-08
   12   -1510.2580389718      2.44E-08
   13   -1510.2580389718      6.41E-09 Convergence criterion met
 ---------------------------------------
 SCF time:  CPU 92.89 s  wall 1.94 s
 SCF   energy in the final basis set = -1510.25803897
 Total energy in the final basis set = -1510.25803897
 
 --------------------------------------------------------------
 
                    Orbital Energies (a.u.)
 --------------------------------------------------------------
 
 Alpha MOs
 -- Occupied --
-18.935 -18.934 -18.927 -18.898 -18.896 -18.885 -18.879 -18.875
-18.870 -18.866 -10.104 -10.098 -10.096 -10.094 -10.067 -10.060
-10.059 -10.058 -10.056 -10.052 -10.051 -10.051 -10.037 -10.035
-10.034 -10.031 -10.019 -10.018 -10.016 -10.015  -1.011  -1.010
 -1.002  -1.001  -0.968  -0.964  -0.935  -0.935  -0.930  -0.928
 -0.761  -0.757  -0.722  -0.719  -0.706  -0.699  -0.690  -0.660
 -0.657  -0.606  -0.594  -0.580  -0.545  -0.538  -0.535  -0.531
 -0.509  -0.503  -0.480  -0.469  -0.457  -0.454  -0.448  -0.441
 -0.430  -0.427  -0.425  -0.410  -0.407  -0.405  -0.403  -0.394
 -0.390  -0.377  -0.371  -0.365  -0.360  -0.354  -0.346  -0.342
 -0.342  -0.338  -0.334  -0.330  -0.326  -0.322  -0.318  -0.311
 -0.306  -0.304  -0.302  -0.296  -0.289  -0.284  -0.283  -0.272
 -0.265  -0.253  -0.247  -0.244  -0.236  -0.232  -0.227  -0.176
 -0.175  -0.168  -0.157  -0.156  -0.150  -0.148  -0.142  -0.140
 -0.137
 -- Virtual --
  0.077   0.099   0.103   0.112   0.212   0.237   0.246   0.261
  0.261   0.277   0.287   0.289   0.303   0.321   0.330   0.336
  0.339   0.341   0.345   0.348   0.356   0.357   0.370   0.378
  0.382   0.383   0.392   0.403   0.407   0.409   0.413   0.416
  0.417   0.421   0.423   0.426   0.428   0.435   0.435   0.436
  0.440   0.445   0.445   0.448   0.449   0.453   0.462   0.468
  0.470   0.472   0.490   0.495   0.496   0.505   0.512   0.538
  0.545   0.554   0.561   0.625   0.636   0.651   0.653
 --------------------------------------------------------------
 
          Ground-State Mulliken Net Atomic Charges

     Atom                 Charge (a.u.)
  ----------------------------------------
      1 O                    -0.217563
      2 C                     0.214742
      3 C                    -0.081356
      4 C                    -0.074777
      5 C                     0.213849
      6 O                    -0.167971
      7 C                    -0.045302
      8 C                    -0.060979
      9 O                    -0.196480
     10 C                     0.217927
     11 C                    -0.080119
     12 C                    -0.080628
     13 C                     0.206181
     14 O                    -0.210534
     15 O                    -0.166613
     16 O                    -0.166022
     17 O                    -0.187508
     18 C                    -0.128360
     19 C                     0.023757
     20 C                    -0.144879
     21 C                    -0.143572
     22 C                     0.025284
     23 O                    -0.186445
     24 H                     0.084443
     25 H                     0.086615
     26 H                     0.090376
     27 H                     0.077657
     28 H                     0.072858
     29 H                     0.078130
     30 H                     0.073171
     31 H                     0.086792
     32 O                    -0.207582
     33 C                    -0.126422
     34 C                     0.021792
     35 C                    -0.141712
     36 C                    -0.146269
     37 C                     0.022970
     38 O                    -0.191854
     39 H                     0.081892
     40 H                     0.084626
     41 H                     0.086713
     42 H                     0.088824
     43 H                     0.076833
     44 H                     0.071712
     45 H                     0.077538
     46 H                     0.072363
     47 H                     0.091985
     48 H                     0.087940
     49 H                     0.088526
     50 H                     0.090790
     51 H                     0.090421
     52 H                     0.093159
     53 H                     0.080147
     54 H                     0.114657
     55 H                     0.087817
     56 H                     0.090459
  ----------------------------------------
  Sum of atomic charges =     0.000000

 -----------------------------------------------------------------
                    Cartesian Multipole Moments
 -----------------------------------------------------------------
    Charge (ESU x 10^10)
                -0.0000
    Dipole Moment (Debye)
         X       0.3931      Y      -0.1045      Z      -1.5995
       Tot       1.6504
    Quadrupole Moments (Debye-Ang)
        XX    -138.7931     XY      -0.5604     YY    -150.5050
        XZ       1.1513     YZ      -1.8472     ZZ    -164.1108
    Octopole Moments (Debye-Ang^2)
       XXX      14.6892    XXY       0.2581    XYY     -15.1512
       YYY      22.1009    XXZ     -34.9891    XYZ     -11.2074
       YYZ      16.2053    XZZ      -0.9577    YZZ     -16.5550
       ZZZ      15.8520
    Hexadecapole Moments (Debye-Ang^3)
      XXXX  -10945.6234   XXXY     -21.1724   XXYY   -2323.1673
      XYYY    -204.0592   YYYY   -2935.8907   XXXZ      70.3782
      XXYZ      35.9542   XYYZ      23.0118   YYYZ      18.6508
      XXZZ   -2301.3405   XYZZ     -42.0793   YYZZ    -791.4760
      XZZZ     110.6890   YZZZ     -33.0700   ZZZZ   -1932.3475
 -----------------------------------------------------------------
 Calculating analytic gradient of the SCF energy
 Gradient of SCF Energy
            1           2           3           4           5           6
    1  -0.0037342  -0.0022375   0.0043808  -0.0025124   0.0006919   0.0008106
    2   0.0000677   0.0002648  -0.0020231   0.0012126   0.0018990   0.0007840
    3   0.0008978  -0.0021452   0.0028497  -0.0016459   0.0027554  -0.0068117
            7           8           9          10          11          12
    1  -0.0003448   0.0037526  -0.0015106   0.0005490  -0.0008462   0.0004267
    2  -0.0019522  -0.0010004   0.0024371   0.0008597  -0.0026567   0.0000196
    3   0.0033528  -0.0017643   0.0023150   0.0003242  -0.0008345   0.0000530
           13          14          15          16          17          18
    1  -0.0014172   0.0010476   0.0026941   0.0004419   0.0000612   0.0000954
    2  -0.0000892  -0.0000869   0.0006790  -0.0000170   0.0007225   0.0000635
    3  -0.0008215   0.0003368   0.0005232   0.0007413  -0.0003684  -0.0000235
           19          20          21          22          23          24
    1   0.0002195  -0.0000646  -0.0001586   0.0001959   0.0000094  -0.0000461
    2   0.0001008  -0.0000385   0.0001039  -0.0003433  -0.0001918   0.0002759
    3   0.0004427  -0.0001899   0.0001011   0.0002260  -0.0003638   0.0001986
           25          26          27          28          29          30
    1   0.0000035  -0.0001957   0.0000806  -0.0000162   0.0000234   0.0000025
    2   0.0000430  -0.0000301   0.0000743  -0.0000214   0.0000181  -0.0000239
    3  -0.0001964   0.0002169  -0.0000004   0.0000010  -0.0000119  -0.0000440
           31          32          33          34          35          36
    1  -0.0000356  -0.0000953   0.0000932   0.0008865   0.0001246   0.0003143
    2   0.0000432  -0.0028055   0.0002272   0.0006495  -0.0001472   0.0002791
    3   0.0000001   0.0000874   0.0000356  -0.0010111   0.0000657   0.0000215
           37          38          39          40          41          42
    1  -0.0005611   0.0003929  -0.0012084  -0.0002508  -0.0000330  -0.0000154
    2  -0.0006567  -0.0002161  -0.0005432   0.0006434   0.0001446  -0.0001298
    3  -0.0002432  -0.0006343   0.0017353   0.0003332  -0.0000304  -0.0000539
           43          44          45          46          47          48
    1  -0.0001311  -0.0000706   0.0000604  -0.0002159   0.0000540   0.0000167
    2   0.0000086   0.0000417   0.0000164  -0.0001939   0.0000286  -0.0000455
    3   0.0000430   0.0000309   0.0000386  -0.0000935   0.0001885  -0.0000031
           49          50          51          52          53          54
    1   0.0000058  -0.0000248   0.0000065   0.0000247   0.0004224  -0.0011758
    2  -0.0000549  -0.0000061  -0.0000085   0.0000054  -0.0002974   0.0011578
    3  -0.0000202  -0.0000292  -0.0000391   0.0000489   0.0001740  -0.0010978
           55          56
    1  -0.0002022  -0.0007843
    2  -0.0006640   0.0013724
    3   0.0007664  -0.0004274
 Max gradient component =       6.812E-03
 RMS gradient           =       1.150E-03
 Gradient time:  CPU 30.41 s  wall 0.64 s
 Geometry Optimization Parameters
   NAtoms,    NIC,     NZ,  NCons,   NDum,   NFix, NCnnct, MaxDiis
       56     458       0       0       0       0       0       0

 Cartesian Hessian Update
 Hessian Updated using BFGS Update


** GEOMETRY OPTIMIZATION IN DELOCALIZED INTERNAL COORDINATES **
   Searching for a Minimum

   Optimization Cycle:   3

                       Coordinates (Angstroms)
     ATOM                X               Y               Z
      1  O        -4.1078438001    1.1707177543    1.9396299737
      2  C        -4.0900498431    1.1117086390    0.6904313590
      3  C        -4.1386764404   -0.1867547765   -0.1879113541
      4  C        -3.0874107980   -0.3856779313   -1.3551793425
      5  C        -1.6622132180    0.2912939571   -1.2017133127
      6  O        -1.7505996605    1.5355675598   -0.5177476461
      7  C        -0.4270289668    2.1699794333   -0.2872096070
      8  C         0.5995211839    1.2832129248    0.5014670310
      9  O         1.8401249505    2.0909241997    0.6108760243
     10  C         2.8302787679    1.2711752533    1.2938363051
     11  C         4.0146800177    0.8266612937    0.3419742820
     12  C         3.9803181953   -0.7410461531    0.0540818994
     13  C         2.8442154153   -1.4910466433    0.8299243561
     14  O         1.6316560257   -1.5519389283    0.5286059071
     15  O        -4.1798554659    2.2546104465   -0.1685178391
     16  O         3.4181089117   -2.1143182956    1.9817870670
     17  O         2.7415090714    0.9655591024    2.5014849688
     18  C         2.3573168224   -2.7720373434    2.7809864629
     19  C         3.8411408933    1.3992530329   -1.1222582574
     20  C         5.1749939901    1.1546234206   -1.9319687179
     21  C         5.0697304456   -0.3849778902   -2.2407351945
     22  C         3.7170476390   -0.7469604713   -1.5131013956
     23  O         2.8766210391    0.4520410289   -1.7325208591
     24  H         4.9755763637    1.1187166517    0.8039753694
     25  H         4.9464468104   -1.2077921993    0.3140624935
     26  H         3.4384622655    2.4292758676   -1.1554835328
     27  H         5.1801032991    1.7537900799   -2.8561937405
     28  H         6.0696409563    1.4093831193   -1.3416023114
     29  H         4.9843022733   -0.5741630787   -3.3227031755
     30  H         5.9232007589   -0.9600964011   -1.8474649307
     31  H         3.1997927358   -1.6518146481   -1.8864225549
     32  O        -0.6058426316   -0.2178234582   -1.6403714035
     33  C        -4.1447967162    3.4950026148    0.6372316861
     34  C        -3.9604139967   -1.5467024221    0.6195568069
     35  C        -4.8809938356   -2.6166943746   -0.0843842197
     36  C        -4.1190294442   -2.7870909823   -1.4531083209
     37  C        -2.8111447376   -1.9399275330   -1.1937543921
     38  O        -2.6015589667   -2.0244591043    0.2741254864
     39  H        -5.1512734429   -0.1826807145   -0.6368779345
     40  H        -3.5163061240   -0.1023709227   -2.3341829596
     41  H        -3.1711668273    3.6140516803    1.1550742697
     42  H        -4.0768067670   -1.4433602105    1.7162637930
     43  H        -4.8857895846   -3.5566160559    0.4907288400
     44  H        -5.9195520533   -2.2705980359   -0.2091368220
     45  H        -3.8651651532   -3.8404583262   -1.6504270103
     46  H        -4.6952863383   -2.3987905888   -2.3085846207
     47  H        -1.9022965662   -2.2742797982   -1.7308627668
     48  H        -4.9521830786    3.5146928407    1.3977442806
     49  H        -4.2851402490    4.3269576229   -0.0770909969
     50  H         2.8716861071   -3.2582500096    3.6300009286
     51  H         1.8122953789   -3.5344538274    2.1877259406
     52  H         1.6246082799   -2.0329888203    3.1647597575
     53  H         0.1933572487    1.0174292743    1.5032073896
     54  H         0.7847608453    0.3472059713   -0.0741609946
     55  H        -0.6602041793    3.0822650804    0.2983632176
     56  H         0.0239174013    2.4773059437   -1.2570281451
   Point Group: c1    Number of degrees of freedom:   162


   Energy is  -1510.258038972

 Hessian Updated using BFGS Update

151 Hessian modes will be used to form the next step
  Hessian Eigenvalues:
     0.000306    0.002023    0.002165    0.002693    0.002837    0.003086
     0.004096    0.004302    0.004785    0.005092    0.005124    0.005645
     0.006746    0.006849    0.007438    0.011294    0.011668    0.013130
     0.021108    0.021766    0.023931    0.024500    0.027012    0.030387
     0.030803    0.034296    0.035683    0.037220    0.041165    0.041773
     0.042060    0.043323    0.045416    0.047126    0.047780    0.050225
     0.050885    0.052499    0.053289    0.054202    0.054950    0.055349
     0.055988    0.056392    0.056815    0.057404    0.058722    0.059494
     0.060412    0.060817    0.062863    0.063845    0.064238    0.064683
     0.067253    0.070392    0.070695    0.073220    0.075293    0.091482
     0.092424    0.092793    0.093262    0.095725    0.096750    0.096881
     0.100444    0.102641    0.102695    0.106054    0.109734    0.114625
     0.118047    0.121858    0.125549    0.138099    0.144048    0.157094
     0.159719    0.159997    0.160026    0.160290    0.163665    0.176022
     0.220011    0.220362    0.220445    0.223640    0.226372    0.233816
     0.238164    0.238558    0.239893    0.240076    0.244659    0.245239
     0.248155    0.248371    0.248775    0.249556    0.249714    0.249990
     0.253560    0.253664    0.260363    0.260746    0.262302    0.264355
     0.290521    0.291746    0.305233    0.305900    0.321382    0.322734
     0.323143    0.325337    0.326658    0.326905    0.326939    0.326950
     0.327318    0.328506    0.328604    0.328755    0.329006    0.330069
     0.330652    0.330841    0.330954    0.330981    0.332378    0.334401
     0.334512    0.334799    0.334895    0.334949    0.334965    0.335169
     0.335322    0.340272    0.343320    0.346181    0.374982    0.394703
     0.406512    0.410240    0.535480    0.824160    0.829420    0.831338
     0.838997

 Minimum Search - Taking Simple RFO Step
 Searching for Lamda that Minimizes Along All modes
 Value Taken    Lamda =  -0.01134103
 Calculated Step too Large.  Step scaled by  0.313183
 Step Taken.  Stepsize is  0.300000

                             Maximum     Tolerance    Cnvgd?
         Gradient           0.004859      0.000300      NO
         Displacement       0.106184      0.001200      NO
         Energy change     -0.003256      0.000001      NO


 New Cartesian Coordinates Obtained by Inverse Iteration

 Displacement from previous Coordinates is:  2.245469
 Adding empirical dispersion correction 
 ----------------------------------------------------------------
 Doing -D3(op) with
 s6 =   1.00000
 s8 =   0.78311
 a1 =   0.30000
 a2 =   4.25000
 n  =  10.00000
 -D3 energy without 3body term =     -0.0697499310 hartrees
 ----------------------------------------------------------------
             Standard Nuclear Orientation (Angstroms)
    I     Atom           X                Y                Z
 ----------------------------------------------------------------
    1      O      -3.8856090379     1.2423997620     1.9222401367
    2      C      -4.0162537800     1.1403237160     0.6830155439
    3      C      -4.1279571288    -0.1859983274    -0.1447619268
    4      C      -3.1159453874    -0.4279377539    -1.3359528227
    5      C      -1.7013178131     0.2773279597    -1.2468260258
    6      O      -1.7886808506     1.5296086858    -0.5774182804
    7      C      -0.4508618578     2.1424058580    -0.3900287354
    8      C       0.5216936753     1.2820050847     0.4895778365
    9      O       1.7923292692     2.0455092749     0.5629863716
   10      C       2.7512417313     1.2203263545     1.2815940140
   11      C       3.9898905761     0.8191203073     0.3829773804
   12      C       3.9743284194    -0.7359847344     0.0333055923
   13      C       2.7934809469    -1.5110788860     0.7109587573
   14      O       1.6006953927    -1.5543783426     0.3352333953
   15      O      -4.2154083481     2.2492252379    -0.2009792147
   16      O       3.2970465674    -2.1864218855     1.8657136154
   17      O       2.6057272925     0.8898531430     2.4772597600
   18      C       2.1903259749    -2.8747509560     2.5715148003
   19      C       3.8957007172     1.4472314688    -1.0661958042
   20      C       5.2733604888     1.2354259696    -1.8087403305
   21      C       5.1902994163    -0.2911257241    -2.1818816863
   22      C       3.8000174878    -0.6816140014    -1.5454950839
   23      O       2.9692536089     0.5240563912    -1.7648022100
   24      H       4.9222922881     1.0968881027     0.9077933644
   25      H       4.9240966089    -1.2142489850     0.3300708034
   26      H       3.4926910678     2.4776116499    -1.0828820038
   27      H       5.3274975749     1.8697164079    -2.7075485986
   28      H       6.1331620192     1.4683123651    -1.1604069621
   29      H       5.1658089079    -0.4388123091    -3.2733684989
   30      H       6.0221940692    -0.8802424448    -1.7638057705
   31      H       3.3067588965    -1.5715414646    -1.9817361801
   32      O      -0.6451011234    -0.2130821947    -1.7053003843
   33      C      -4.1109232432     3.5175862020     0.5532153060
   34      C      -3.9040517345    -1.5113712049     0.7111026090
   35      C      -4.8414692031    -2.6158669141     0.0869337382
   36      C      -4.1293929584    -2.8361412307    -1.3022511217
   37      C      -2.8191256193    -1.9710076612    -1.1255707463
   38      O      -2.5559024146    -1.9945565223     0.3353268922
   39      H      -5.1601754516    -0.2042276738    -0.5453861113
   40      H      -3.5802143340    -0.1836395853    -2.3094042012
   41      H      -3.0888723802     3.6635812704     0.9588439572
   42      H      -3.9767060612    -1.3627076857     1.8064483644
   43      H      -4.8160520785    -3.5319328835     0.6985903707
   44      H      -5.8867782182    -2.2822566437    -0.0119511722
   45      H      -3.8749938850    -3.8948824884    -1.4675250724
   46      H      -4.7392183359    -2.4846342519    -2.1501626878
   47      H      -1.9273211704    -2.3190635650    -1.6821429577
   48      H      -4.8320588381     3.5568171381     1.3952595474
   49      H      -4.3380091993     4.3225686977    -0.1696888780
   50      H       2.6532079420    -3.3984501753     3.4278653206
   51      H       1.6810844186    -3.6095058293     1.9149222680
   52      H       1.4361954329    -2.1508513638     2.9425867130
   53      H       0.0868635644     1.1108221452     1.4998657551
   54      H       0.6836015753     0.2953138464    -0.0040443111
   55      H      -0.6595433984     3.1032192990     0.1228914959
   56      H       0.0238831288     2.3582921993    -1.3726343932
 ----------------------------------------------------------------
 Molecular Point Group                 C1    NOp =  1
 Largest Abelian Subgroup              C1    NOp =  1
 Nuclear Repulsion Energy =  3223.3637265850 hartrees
 There are      113 alpha and      113 beta electrons
 Applying Cartesian multipole field
    Component          Value
    ---------          -----
     (2,0,0)        1.00000E-12
     (0,2,0)        2.00000E-11
     (0,0,2)       -3.00000E-11
 Nucleus-field energy     =     0.0000000159 hartrees
 Requested basis set is STO-3G
 There are 86 shells and 176 basis functions
 A cutoff of  1.0D-12 yielded   2253 shell pairs
 There are     10872 function pairs
 Smallest overlap matrix eigenvalue = 2.13E-01
 Guess MOs from SCF MO coefficient file
 Reading MOs from coefficient file
 Reading MOs from coefficient file
 A restricted hybrid HF-DFT SCF calculation will be
 performed using Pulay DIIS extrapolation
 Exchange:     0.2000 Hartree-Fock + 0.0800 Slater + 0.7200 B88
[...]
      7  C        -0.5261854956    1.1191775979   -1.8549121774
      8  C         0.1296314856    1.7773014390   -0.5885379807
      9  O         1.5714818727    1.4452960743   -0.6473053984
     10  C         2.1931466173    1.6321090192    0.6296923827
     11  C         3.6688104201    1.1248041289    0.5006133872
     12  C         3.7632564042   -0.3241502860   -0.1417534148
     13  C         2.3644087766   -0.9869440381   -0.4223544244
     14  O         1.9308273697   -1.4031865725   -1.5190076357
     15  O        -3.4923487880    1.8221027959    0.8794406963
     16  O         1.6772864297   -1.0831497056    0.8274787932
     17  O         1.6262243734    2.1272450211    1.6267324673
     18  C         0.3523533432   -1.7345091763    0.6642747784
     19  C         4.4748630701    1.9697446923   -0.5804630337
     20  C         6.0118533133    1.6231051286   -0.4482504229
     21  C         6.0657320065    0.2050590654   -1.1310736960
     22  C         4.5444081862   -0.0168752073   -1.4844097337
     23  O         4.0817283037    1.3402514601   -1.8599622164
     24  H         4.1377046913    1.1679394292    1.4989029565
     25  H         4.3393911713   -1.0007818897    0.5158167689
     26  H         4.2354912878    3.0509086740   -0.5898655053
     27  H         6.6206809395    2.3598413841   -0.9960484768
     28  H         6.3426310875    1.6031515905    0.6026075578
     29  H         6.6756219623    0.2241808701   -2.0483424201
     30  H         6.4589205814   -0.5767965665   -0.4619800519
     31  H         4.3321137830   -0.7350885563   -2.3001493698
     32  O        -1.1178101039   -1.4930623522   -2.0200725087
     33  C        -2.6237341387    2.9064971912    1.3976018123
     34  C        -3.8512484990   -1.8038135344    1.3210479187
     35  C        -5.1659436473   -2.6150092898    0.9947518817
     36  C        -4.7841524010   -3.2723581199   -0.3835854219
     37  C        -3.3208640173   -2.7204625324   -0.5882335819
     38  O        -2.7700860154   -2.6598712005    0.7863920822
     39  H        -4.8079131672   -0.0473502501    0.2949751841
     40  H        -4.1733459006   -1.0092163690   -1.7715273034
     41  H        -2.2002956867    3.4833768234    0.5513302850
     42  H        -3.6798057999   -1.5884451803    2.3936122903
     43  H        -5.3455009170   -3.3776241649    1.7691541736
     44  H        -6.0519231630   -1.9638661771    0.9279868066
     45  H        -4.7762180916   -4.3719347432   -0.3186010545
     46  H        -5.4583372152   -2.9711658179   -1.2012477777
     47  H        -2.6592133654   -3.3200937395   -1.2436054273
     48  H        -1.7961174924    2.4856871628    2.0025710189
     49  H        -3.2571012813    3.5717837699    2.0141719121
     50  H         0.3371781542   -2.6615317487    1.2689815586
     51  H         0.1788614741   -1.9754039854   -0.4043129369
     52  H        -0.4395640709   -1.0378527800    1.0238431594
     53  H        -0.0177583734    2.8785878850   -0.5835298768
     54  H        -0.3435374844    1.3515146421    0.3291427556
     55  H        -0.5884798272    1.8299860846   -2.7034058590
     56  H         0.0635005905    0.2232863595   -2.1549586037
   Point Group: c1    Number of degrees of freedom:   162


   Energy is  -1510.299057391

 Hessian Updated using BFGS Update

162 Hessian modes will be used to form the next step
  Hessian Eigenvalues:
     0.001532    0.001782    0.002455    0.002892    0.004746    0.005569
     0.005750    0.006242    0.006938    0.012388    0.015591    0.018768
     0.018971    0.021921    0.021999    0.025777    0.027918    0.028802
     0.030725    0.031167    0.031637    0.032750    0.036200    0.037054
     0.039834    0.040382    0.041424    0.042651    0.044166    0.044589
     0.047042    0.048476    0.050122    0.051132    0.051546    0.053198
     0.053450    0.054675    0.056304    0.056436    0.056660    0.057266
     0.057455    0.059106    0.061421    0.061687    0.062939    0.063103
     0.063981    0.064373    0.065107    0.066296    0.069127    0.070795
     0.071387    0.073220    0.073833    0.075810    0.087636    0.092818
     0.093067    0.096628    0.098701    0.099876    0.102688    0.103207
     0.104507    0.105980    0.107425    0.109065    0.114967    0.119881
     0.122279    0.128188    0.138149    0.139807    0.145861    0.152692
     0.157637    0.159312    0.161503    0.163746    0.165921    0.172301
     0.178244    0.180237    0.193330    0.203026    0.220776    0.226632
     0.230715    0.233616    0.236351    0.236997    0.239695    0.240845
     0.244150    0.244988    0.247497    0.248805    0.250283    0.253625
     0.253941    0.255717    0.257686    0.258972    0.262228    0.265801
     0.271651    0.275692    0.283985    0.290873    0.294792    0.298668
     0.305675    0.309062    0.313817    0.318265    0.322616    0.323364
     0.325997    0.326834    0.327792    0.328192    0.328502    0.328750
     0.328903    0.329329    0.329974    0.330350    0.330901    0.331276
     0.332482    0.333319    0.334108    0.334482    0.334819    0.334897
     0.334988    0.335045    0.335288    0.335291    0.336032    0.341370
     0.347025    0.362111    0.367215    0.373332    0.383707    0.397044
     0.419208    0.472487    0.508042    0.592473    0.667770    0.823448
     0.825339    0.833337    0.841787    1.029031    1.492921    2.444274

 Minimum Search - Taking Simple RFO Step
 Searching for Lamda that Minimizes Along All modes
 Value Taken    Lamda =   0.00000000
 Step Taken.  Stepsize is  0.010686

                             Maximum     Tolerance    Cnvgd?
         Gradient           0.000104      0.000300     YES
         Displacement       0.003530      0.001200      NO
         Energy change      0.000001      0.000001     YES

 Final energy is   -1510.29905739069     


 ******************************
 **  OPTIMIZATION CONVERGED  **
 ******************************

                       Coordinates (Angstroms)
     ATOM                X               Y               Z
      1  O        -1.6607402088    0.3969706536    1.3608231147
      2  C        -2.8212763539    0.5643188899    0.9070433982
      3  C        -3.8144816536   -0.5217981900    0.3761982894
      4  C        -3.3991710616   -1.1925429176   -1.0035051224
      5  C        -2.0107414001   -0.7385571737   -1.5739751026
      6  O        -1.9074268666    0.6864492808   -1.5110093581
      7  C        -0.5261854956    1.1191775979   -1.8549121774
      8  C         0.1296314856    1.7773014390   -0.5885379807
      9  O         1.5714818727    1.4452960743   -0.6473053984
     10  C         2.1931466173    1.6321090192    0.6296923827
     11  C         3.6688104201    1.1248041289    0.5006133872
     12  C         3.7632564042   -0.3241502860   -0.1417534148
     13  C         2.3644087766   -0.9869440381   -0.4223544244
     14  O         1.9308273697   -1.4031865725   -1.5190076357
     15  O        -3.4923487880    1.8221027959    0.8794406963
     16  O         1.6772864297   -1.0831497056    0.8274787932
     17  O         1.6262243734    2.1272450211    1.6267324673
     18  C         0.3523533432   -1.7345091763    0.6642747784
     19  C         4.4748630701    1.9697446923   -0.5804630337
     20  C         6.0118533133    1.6231051286   -0.4482504229
     21  C         6.0657320065    0.2050590654   -1.1310736960
     22  C         4.5444081862   -0.0168752073   -1.4844097337
     23  O         4.0817283037    1.3402514601   -1.8599622164
     24  H         4.1377046913    1.1679394292    1.4989029565
     25  H         4.3393911713   -1.0007818897    0.5158167689
     26  H         4.2354912878    3.0509086740   -0.5898655053
     27  H         6.6206809395    2.3598413841   -0.9960484768
     28  H         6.3426310875    1.6031515905    0.6026075578
     29  H         6.6756219623    0.2241808701   -2.0483424201
     30  H         6.4589205814   -0.5767965665   -0.4619800519
     31  H         4.3321137830   -0.7350885563   -2.3001493698
     32  O        -1.1178101039   -1.4930623522   -2.0200725087
     33  C        -2.6237341387    2.9064971912    1.3976018123
     34  C        -3.8512484990   -1.8038135344    1.3210479187
     35  C        -5.1659436473   -2.6150092898    0.9947518817
     36  C        -4.7841524010   -3.2723581199   -0.3835854219
     37  C        -3.3208640173   -2.7204625324   -0.5882335819
     38  O        -2.7700860154   -2.6598712005    0.7863920822
     39  H        -4.8079131672   -0.0473502501    0.2949751841
     40  H        -4.1733459006   -1.0092163690   -1.7715273034
     41  H        -2.2002956867    3.4833768234    0.5513302850
     42  H        -3.6798057999   -1.5884451803    2.3936122903
     43  H        -5.3455009170   -3.3776241649    1.7691541736
     44  H        -6.0519231630   -1.9638661771    0.9279868066
     45  H        -4.7762180916   -4.3719347432   -0.3186010545
     46  H        -5.4583372152   -2.9711658179   -1.2012477777
     47  H        -2.6592133654   -3.3200937395   -1.2436054273
     48  H        -1.7961174924    2.4856871628    2.0025710189
     49  H        -3.2571012813    3.5717837699    2.0141719121
     50  H         0.3371781542   -2.6615317487    1.2689815586
     51  H         0.1788614741   -1.9754039854   -0.4043129369
     52  H        -0.4395640709   -1.0378527800    1.0238431594
     53  H        -0.0177583734    2.8785878850   -0.5835298768
     54  H        -0.3435374844    1.3515146421    0.3291427556
     55  H        -0.5884798272    1.8299860846   -2.7034058590
     56  H         0.0635005905    0.2232863595   -2.1549586037

Z-matrix Print:
$molecule
0 1
O 
C  1 1.432512
O  2 1.249260 1 124.486467
C  1 1.480748 2 110.974336 3 -6.228567 0
H  4 1.111117 1 110.583710 2 76.668984 0
H  4 1.116835 1 111.079943 2 -43.913146 0
C  2 1.565760 1 107.052972 3 -179.224610 0
H  7 1.103768 2 108.248897 1 -174.566863 0
C  4 1.570645 1 106.297767 2 -162.373126 0
H  9 1.108635 4 111.832318 1 -94.101922 0
H  9 1.113723 4 109.463037 1 27.853682 0
O  9 1.487733 4 108.853937 1 146.485054 0
C  12 1.430134 9 110.286466 4 -114.715280 0
O  13 1.251242 12 124.401329 9 -8.477825 0
C  13 1.568208 12 109.657626 9 171.518224 0
H  15 1.105809 13 108.614172 12 77.615112 0
C  15 1.585283 13 109.303753 12 -159.789403 0
H  17 1.107633 15 113.346192 13 -33.996822 0
O  17 1.482101 15 102.821382 13 85.211594 0
C  19 1.479055 17 95.007501 15 57.728723 0
H  20 1.107326 19 110.458732 17 -179.905963 0
C  17 1.577239 15 108.990554 13 -165.078691 0
H  22 1.101524 17 110.503584 15 167.281871 0
H  22 1.101732 17 112.071678 15 45.845759 0
C  22 1.574067 17 101.099687 15 -74.513996 0
H  25 1.101546 22 112.884133 17 120.337193 0
H  25 1.101599 22 111.469007 17 -116.973411 0
C  7 1.587773 2 112.649003 1 -50.030729 0
H  28 1.105514 7 110.419869 2 -125.812279 0
C  28 1.573152 7 113.812842 2 -3.957352 0
O  30 1.250559 28 127.224841 7 122.709359 0
O  30 1.429502 28 107.446717 7 -59.577721 0
C  32 1.485380 30 111.235349 28 -178.481830 0
H  33 1.106920 32 108.629742 30 118.753203 0
H  33 1.109058 32 109.916288 30 -1.668563 0
H  33 1.114340 32 108.922947 30 -121.765496 0
C  28 1.583459 7 101.262453 2 115.998611 0
H  37 1.107398 28 113.839656 7 -153.033975 0
O  37 1.482196 28 103.799716 7 -33.062559 0
C  39 1.479167 37 95.021140 28 56.023045 0
H  40 1.107386 39 110.530141 37 179.596969 0
C  37 1.577507 28 108.247914 7 76.160786 0
H  42 1.101627 37 112.358224 28 47.288427 0
H  42 1.101687 37 110.477057 28 168.851888 0
C  42 1.574803 37 100.999824 28 -73.194272 0
H  45 1.101605 42 111.573260 37 -119.213747 0
H  45 1.101869 42 112.764406 37 118.128646 0
C  15 1.589328 13 115.148934 12 -46.866473 0
H  48 1.103904 15 110.650885 13 125.817557 0
C  48 1.564578 15 114.937308 13 4.060703 0
O  50 1.257285 48 128.025786 15 -70.043808 0
O  50 1.425875 48 107.879906 15 113.855087 0
C  52 1.482867 50 111.261485 48 178.781385 0
H  53 1.106309 52 107.406765 50 -139.942739 0
H  53 1.108160 52 110.520401 50 -19.221345 0
H  53 1.108272 52 109.732449 50 101.287031 0
$end

 
 --------------------------------------------------------------
 
                    Orbital Energies (a.u.)
 --------------------------------------------------------------
 
 Alpha MOs
 -- Occupied --
-18.949 -18.940 -18.924 -18.909 -18.894 -18.889 -18.888 -18.880
-18.866 -18.855 -10.116 -10.107 -10.090 -10.083 -10.067 -10.067
-10.064 -10.063 -10.057 -10.054 -10.049 -10.047 -10.046 -10.029
-10.026 -10.025 -10.024 -10.018 -10.015 -10.013  -1.025  -1.017
 -1.004  -0.988  -0.977  -0.962  -0.948  -0.944  -0.928  -0.916
 -0.770  -0.755  -0.731  -0.719  -0.713  -0.700  -0.691  -0.670
 -0.635  -0.613  -0.594  -0.577  -0.549  -0.543  -0.537  -0.529
 -0.518  -0.505  -0.486  -0.469  -0.462  -0.457  -0.452  -0.443
 -0.436  -0.427  -0.422  -0.419  -0.417  -0.409  -0.399  -0.394
 -0.388  -0.378  -0.372  -0.365  -0.358  -0.356  -0.354  -0.345
 -0.341  -0.337  -0.336  -0.329  -0.325  -0.324  -0.317  -0.314
 -0.309  -0.304  -0.300  -0.296  -0.292  -0.283  -0.278  -0.276
 -0.265  -0.258  -0.253  -0.240  -0.238  -0.227  -0.226  -0.188
 -0.181  -0.173  -0.165  -0.163  -0.151  -0.149  -0.146  -0.137
 -0.135
 -- Virtual --
  0.078   0.097   0.104   0.127   0.212   0.235   0.247   0.250
  0.274   0.278   0.283   0.294   0.304   0.318   0.325   0.329
  0.338   0.340   0.349   0.351   0.357   0.364   0.367   0.370
  0.376   0.385   0.393   0.395   0.396   0.403   0.408   0.413
  0.414   0.419   0.421   0.422   0.427   0.430   0.434   0.437
  0.437   0.446   0.456   0.458   0.462   0.463   0.474   0.475
  0.484   0.487   0.494   0.496   0.500   0.513   0.514   0.536
  0.545   0.546   0.559   0.630   0.639   0.656   0.663
 --------------------------------------------------------------
 
          Ground-State Mulliken Net Atomic Charges

     Atom                 Charge (a.u.)
  ----------------------------------------
      1 O                    -0.218046
      2 C                     0.224559
      3 C                    -0.079373
      4 C                    -0.078149
      5 C                     0.215162
      6 O                    -0.175913
      7 C                    -0.058296
      8 C                    -0.059920
      9 O                    -0.171552
     10 C                     0.213370
     11 C                    -0.078351
     12 C                    -0.077858
     13 C                     0.213466
     14 O                    -0.218451
     15 O                    -0.162723
     16 O                    -0.180054
     17 O                    -0.213915
     18 C                    -0.156484
     19 C                     0.025422
     20 C                    -0.144081
     21 C                    -0.143912
     22 C                     0.024258
     23 O                    -0.187238
     24 H                     0.084266
     25 H                     0.082406
     26 H                     0.080178
     27 H                     0.076438
     28 H                     0.072969
     29 H                     0.076575
     30 H                     0.072603
     31 H                     0.089831
     32 O                    -0.201698
     33 C                    -0.134152
     34 C                     0.025542
     35 C                    -0.143524
     36 C                    -0.144219
     37 C                     0.024168
     38 O                    -0.187584
     39 H                     0.089223
     40 H                     0.087977
     41 H                     0.087984
     42 H                     0.085162
     43 H                     0.079591
     44 H                     0.074540
     45 H                     0.080066
     46 H                     0.074384
     47 H                     0.093846
     48 H                     0.105936
     49 H                     0.090880
     50 H                     0.076970
     51 H                     0.098936
     52 H                     0.102219
     53 H                     0.075893
     54 H                     0.107451
     55 H                     0.086362
     56 H                     0.116857
  ----------------------------------------
  Sum of atomic charges =     0.000000

 -----------------------------------------------------------------
                    Cartesian Multipole Moments
 -----------------------------------------------------------------
    Charge (ESU x 10^10)
                 0.0000
    Dipole Moment (Debye)
         X      -2.5906      Y       0.8417      Z       0.5670
       Tot       2.7823
    Quadrupole Moments (Debye-Ang)
        XX    -133.3753     XY       3.3816     YY    -156.1999
        XZ       2.4792     YZ      -1.0980     ZZ    -165.8714
    Octopole Moments (Debye-Ang^2)
       XXX      -0.6594    XXY     -17.1269    XYY     -19.4142
       YYY      49.8882    XXZ      40.0548    XYZ      -6.7819
       YYZ      28.5488    XZZ     -32.2731    YZZ       9.6990
       ZZZ      86.7100
    Hexadecapole Moments (Debye-Ang^3)
      XXXX  -10625.7124   XXXY   -1068.5769   XXYY   -2299.5814
      XYYY   -1239.4898   YYYY   -2924.6693   XXXZ     568.7050
      XXYZ      22.0959   XYYZ     171.2034   YYYZ     -50.9045
      XXZZ   -2097.1082   XYZZ    -444.2424   YYZZ    -752.5232
      XZZZ     560.8819   YZZZ     -71.8625   ZZZZ   -1402.1353
 -----------------------------------------------------------------
Archival summary:
1\1\vega02.cac.cornell.edu\OPT\ProcedureUnspecified\STO-3G\102026\jj585\WedJan1708:50:492018WedJan1708:50:492018\0\\#,OPT,ProcedureUnspecified,STO-3G,\\0,1\O\C,1,1.43251\O,2,1.24926,1,124.486\C,1,1.48075,2,110.974,3,-6.22857,0\H,4,1.11112,1,110.584,2,76.669,0\H,4,1.11684,1,111.08,2,-43.9131,0\C,2,1.56576,1,107.053,3,-179.225,0\H,7,1.10377,2,108.249,1,-174.567,0\C,4,1.57065,1,106.298,2,-162.373,0\H,9,1.10863,4,111.832,1,-94.1019,0\H,9,1.11372,4,109.463,1,27.8537,0\O,9,1.48773,4,108.854,1,146.485,0\C,12,1.43013,9,110.286,4,-114.715,0\O,13,1.25124,12,124.401,9,-8.47783,0\C,13,1.56821,12,109.658,9,171.518,0\H,15,1.10581,13,108.614,12,77.6151,0\C,15,1.58528,13,109.304,12,-159.789,0\H,17,1.10763,15,113.346,13,-33.9968,0\O,17,1.4821,15,102.821,13,85.2116,0\C,19,1.47906,17,95.0075,15,57.7287,0\H,20,1.10733,19,110.459,17,-179.906,0\C,17,1.57724,15,108.991,13,-165.079,0\H,22,1.10152,17,110.504,15,167.282,0\H,22,1.10173,17,112.072,15,45.8458,0\C,22,1.57407,17,101.1,15,-74.514,0\H,25,1.10155,22,112.884,17,120.337,0\H,25,1.1016,22,111.469,17,-116.973,0\C,7,1.58777,2,112.649,1,-50.0307,0\H,28,1.10551,7,110.42,2,-125.812,0\C,28,1.57315,7,113.813,2,-3.95735,0\O,30,1.25056,28,127.225,7,122.709,0\O,30,1.4295,28,107.447,7,-59.5777,0\C,32,1.48538,30,111.235,28,-178.482,0\H,33,1.10692,32,108.63,30,118.753,0\H,33,1.10906,32,109.916,30,-1.66856,0\H,33,1.11434,32,108.923,30,-121.765,0\C,28,1.58346,7,101.262,2,115.999,0\H,37,1.1074,28,113.84,7,-153.034,0\O,37,1.4822,28,103.8,7,-33.0626,0\C,39,1.47917,37,95.0211,28,56.023,0\H,40,1.10739,39,110.53,37,179.597,0\C,37,1.57751,28,108.248,7,76.1608,0\H,42,1.10163,37,112.358,28,47.2884,0\H,42,1.10169,37,110.477,28,168.852,0\C,42,1.5748,37,101,28,-73.1943,0\H,45,1.10161,42,111.573,37,-119.214,0\H,45,1.10187,42,112.764,37,118.129,0\C,15,1.58933,13,115.149,12,-46.8665,0\H,48,1.1039,15,110.651,13,125.818,0\C,48,1.56458,15,114.937,13,4.0607,0\O,50,1.25729,48,128.026,15,-70.0438,0\O,50,1.42588,48,107.88,15,113.855,0\C,52,1.48287,50,111.261,48,178.781,0\H,53,1.10631,52,107.407,50,-139.943,0\H,53,1.10816,52,110.52,50,-19.2213,0\H,53,1.10827,52,109.732,50,101.287,0\\\@

 Total job time:  200.35s(wall), 9538.20s(cpu) 
 Wed Jan 17 08:50:49 2018

        *************************************************************
        *                                                           *
        *  Thank you very much for using Q-Chem.  Have a nice day.  *
        *                                                           *
        *************************************************************


0 sent ACK to 0 
now end server 0 ... 
