mFile = /opt/software/qchem/qchem-5.0.1//bin/mpi/machines
Process 0 of 1 is on vega02.cac.cornell.edu - thread support 0
initial socket setup ...start
initial socket setup ...done 
now start server 0 ... 
vega02.cac.cornell.edu 10.84.3
Q-Chem Developer Version! Running on 10.84.3.*
                  Welcome to Q-Chem
     A Quantum Leap Into The Future Of Chemistry


 Q-Chem 5.0, Q-Chem, Inc., Pleasanton, CA (2017)

 Yihan Shao,  Zhengting Gan,  E. Epifanovsky,  A. T. B. Gilbert,  M. Wormit,  
 J. Kussmann,  A. W. Lange,  A. Behn,  Jia Deng,  Xintian Feng,  D. Ghosh,  
 M. Goldey,  P. R. Horn,  L. D. Jacobson,  I. Kaliman,  T. Kus,  A. Landau,  
 Jie Liu,  E. I. Proynov,  R. M. Richard,  R. P. Steele,  E. J. Sundstrom,  
 H. L. Woodcock III,  P. M. Zimmerman,  D. Zuev,  B. Albrecht,  E. Alguire,  
 S. A. Baeppler,  Z. Benda,  Y. A. Bernard,  E. J. Berquist,  K. B. Bravaya,  
 D. Casanova,  Chun-Min Chang,  Yunqing Chen,  A. Chien,  K. D. Closser,  
 M. P. Coons,  S. Dasgupta,  M. Diedenhofen,  Hainam Do,  R. G. Edgar,  
 Po-Tung Fang,  S. Fatehi,  Qingguo Feng,  Qinghui Ge,  A. Ghysels,  
 J. Gomes,  J. Gonthier,  A. Gunina,  M. W. D. Hanson-Heine,  
 P. H. P. Harbach,  A. W. Hauser,  J. E. Herr,  E. G. Hohenstein,  
 Z. C. Holden,  Kerwin Hui,  T.-C. Jagau,  Hyunjun Ji,  B. Kaduk,  
 K. Khistyaev,  Jaehoon Kim,  P. Klunzinger,  K. Koh,  D. Kosenkov,  
 T. Kowalczyk,  C. M. Krauter,  A. Kunitsa,  Ka Un Lao,  A. Laurent,  
 K. V. Lawler,  Joonho Lee,  D. Lefrancois,  S. Lehtola,  D. S. Levine,  
 Yi-Pei Li,  You-Sheng Lin,  Fenglai Liu,  E. Livshits,  A. Luenser,  
 P. Manohar,  E. Mansoor,  S. F. Manzer,  Shan-Ping Mao,  Yuezhi Mao,  
 N. Mardirossian,  A. V. Marenich,  L. A. Martinez-Martinez,  S. A. Maurer,  
 N. J. Mayhall,  S. C. McKenzie,  J.-M. Mewes,  A. F. Morrison,  K. Nanda,  
 T. S. Nguyen-Beck,  R. Olivares-Amaya,  J. A. Parkhill,  T. M. Perrine,  
 F. Plasser,  S. Prager,  A. Prociuk,  D. R. Rehn,  F. Rob,  M. Schneider,  
 N. Sergueev,  S. M. Sharada,  S. Sharma,  D. W. Small,  T. Stauch,  
 T. Stein,  Yu-Chuan Su,  A. J. W. Thom,  T. Tsuchimochi,  L. Vogt,  
 O. Vydrov,  M. A. Watson,  J. Wenzel,  M. de Wergifosse,  T. A. Wesolowski,  
 A. White,  J. Witte,  A. Yamada,  Jun Yang,  K. Yao,  S. Yeganeh,  
 S. R. Yost,  Zhi-Qiang You,  A. Zech,  Igor Ying Zhang,  Xing Zhang,  
 Yan Zhao,  Ying Zhu,  B. R. Brooks,  G. K. L. Chan,  C. J. Cramer,  
 M. S. Gordon,  W. J. Hehre,  A. Klamt,  M. W. Schmidt,  C. D. Sherrill,  
 D. G. Truhlar,  A. Aspuru-Guzik,  R. Baer,  A. T. Bell,  N. A. Besley,  
 Jeng-Da Chai,  A. Dreuw,  B. D. Dunietz,  T. R. Furlani,  Chao-Ping Hsu,  
 Yousung Jung,  Jing Kong,  D. S. Lambrecht,  WanZhen Liang,  C. Ochsenfeld,  
 V. A. Rassolov,  L. V. Slipchenko,  J. E. Subotnik,  T. Van Voorhis,  
 J. M. Herbert,  A. I. Krylov,  P. M. W. Gill,  M. Head-Gordon

 Contributors to earlier versions of Q-Chem not listed above: 
 R. D. Adamson,  B. Austin,  J. Baker,  G. J. O. Beran,  K. Brandhorst,  
 S. T. Brown,  E. F. C. Byrd,  A. K. Chakraborty,  C.-L. Cheng,  
 Siu Hung Chien,  D. M. Chipman,  D. L. Crittenden,  H. Dachsel,  
 R. A. DiStasio Jr.,  R. J. Doerksen,  A. D. Dutoi,  L. Fusti-Molnar,  
 W. A. Goddard III,  A. Golubeva-Zadorozhnaya,  S. R. Gwaltney,  G. Hawkins,  
 A. Heyden,  S. Hirata,  G. Kedziora,  F. J. Keil,  C. Kelley,  Jihan Kim,  
 R. A. King,  R. Z. Khaliullin,  P. P. Korambath,  W. Kurlancheek,  
 A. M. Lee,  M. S. Lee,  S. V. Levchenko,  Ching Yeh Lin,  D. Liotard,  
 R. C. Lochan,  I. Lotan,  P. E. Maslen,  N. Nair,  D. P. O'Neill,  
 D. Neuhauser,  E. Neuscamman,  C. M. Oana,  R. Olson,  B. Peters,  
 R. Peverati,  P. A. Pieniazek,  Y. M. Rhee,  J. Ritchie,  M. A. Rohrdanz,  
 E. Rosta,  N. J. Russ,  H. F. Schaefer III,  N. E. Schultz,  N. Shenvi,  
 A. C. Simmonett,  A. Sodt,  D. Stuck,  K. S. Thanthiriwatte,  V. Vanovschi,  
 Tao Wang,  A. Warshel,  C. F. Williams,  Q. Wu,  X. Xu,  W. Zhang

 Please cite Q-Chem as follows:
 Y. Shao et al., Mol. Phys. 113, 184-215 (2015)
 DOI: 10.1080/00268976.2014.952696

 Q-Chem 5.0.1 for Intel X86 EM64T Linux

 Parts of Q-Chem use Armadillo 5.200.1 (Boston Tea Smuggler).
 http://arma.sourceforge.net/

 Q-Chem begins on Wed Jan 17 08:52:12 2018  

Host: vega02.cac.cornell.edu
0

     Scratch files written to /scratch/jj585/SOT1001/1443r.save//
 Parallel job on  1  processors

Checking the input file for inconsistencies... 	...done.

--------------------------------------------------------------
User input:
--------------------------------------------------------------
$molecule
0  1
O -4.4872549854 2.1535536167 1.9975162834
C -4.0690968851 1.6559366559 0.9274702767
C -4.6637469846 0.3795132832 0.2350831504
C -3.9932188216 -0.1976715598 -1.0667083606
C -2.4125659735 -0.2619037975 -1.0960797323
O -1.871052177 0.275293092 0.105501573
C -0.3899520181 0.3721637239 0.1262737533
C 0.3959035531 -0.9053154279 -0.3396188704
O 1.8259869111 -0.5195102582 -0.2610191215
C 2.6737011694 -1.6523867788 -0.4211994021
C 4.185610788 -1.2317299082 -0.3967554814
C 4.5688638572 0.304956239 -0.5322081113
C 3.3900684147 1.3428488981 -0.5670875796
O 2.8436175325 1.922512165 0.3962512339
O -3.2158770499 2.3567649674 0.0108817946
O 3.0646567835 1.5771813234 -1.9475229675
O 2.2548353664 -2.8247086045 -0.5447468604
C 1.9554181317 2.5503993201 -2.0585584926
C 4.8551844397 -1.5855421629 1.0080438224
C 6.4148165145 -1.7134299633 0.7943842845
C 6.8185924814 -0.2029241717 0.6192248975
C 5.4194834362 0.5093383092 0.7946911293
O 4.7127234903 -0.3360568141 1.7841319528
H 4.6746158509 -1.8123255699 -1.2001221931
H 5.1776697171 0.4605296656 -1.440643902
H 4.3799638686 -2.4344497767 1.5375274192
H 6.8872537562 -2.1578032782 1.6850351197
H 6.6666009949 -2.3286853329 -0.0840827486
H 7.5201965942 0.1227476475 1.4035427947
H 7.26645819 0.0066785201 -0.3651760026
H 5.4595535508 1.5578500183 1.1476817149
O -1.7549526423 -0.7032876166 -2.0664418885
C -2.743129577 3.6243880962 0.6116618201
C -4.8669485637 -0.9387432793 1.1105884632
C -6.2706247299 -1.522324988 0.6926187493
C -5.9693220389 -1.9229692179 -0.8015626343
C -4.4013625005 -1.7280468407 -0.87411912
O -3.9383042448 -1.9351948553 0.5249252716
H -5.6736970493 0.72156287 -0.0665869473
H -4.365453654 0.2658237527 -1.9969687039
H -3.3324338947 3.8459997725 1.5244600037
H -4.690270545 -0.8174764102 2.1968383406
H -6.5150525029 -2.4070257748 1.3027222591
H -7.0849644721 -0.7861752898 0.7870470276
H -6.2392443725 -2.9707925723 -1.0065013111
H -6.4936593886 -1.277993507 -1.5252772182
H -3.874254006 -2.4168511176 -1.5629106419
H -2.8694603162 4.429381165 -0.1373401985
H -1.6698219492 3.5327680649 0.8739870263
H 1.0827416236 2.0576844581 -2.5320697194
H 2.2826056337 3.3966777438 -2.6938515988
H 1.6846932608 2.915396281 -1.0465362273
H 0.1788355369 -1.7737017284 0.3181226428
H 0.092175633 -1.1563117231 -1.3786357747
H -0.1320784639 0.614743327 1.17703327
H -0.0751857942 1.2250383038 -0.5136878234
$end

$rem
JOBTYPE                   OPT
METHOD                    B3LYP
DFT_D                     d3_op
BASIS                     STO-3G
GEOM_OPT_MAX_CYCLES       100
GEOM_OPT_TOL_GRADIENT     300
GEOM_OPT_TOL_DISPLACEMENT 1200
GEOM_OPT_TOL_ENERGY       100
SYMMETRY                  False
THRESH                    12
SCF_CONVERGENCE           8
MAX_SUB_FILE_NUM          128
MEM_STATIC                400
MEM_TOTAL                 4000
$end
--------------------------------------------------------------
 Adding empirical dispersion correction 
 ----------------------------------------------------------------
 Doing -D3(op) with
 s6 =   1.00000
 s8 =   0.78311
 a1 =   0.30000
 a2 =   4.25000
 n  =  10.00000
 -D3 energy without 3body term =     -0.0673513249 hartrees
 ----------------------------------------------------------------
             Standard Nuclear Orientation (Angstroms)
    I     Atom           X                Y                Z
 ----------------------------------------------------------------
    1      O      -4.5332020954     2.1071923381     2.0053374491
    2      C      -4.1057156562     1.5962959685     0.9452820087
    3      C      -4.6755098414     0.2947551297     0.2792554840
    4      C      -3.9942152136    -0.2954353337    -1.0110639901
    5      C      -2.4126176719    -0.3293579777    -1.0402248283
    6      O      -1.8813501123     0.2425107276     0.1498744479
    7      C      -0.4024201305     0.3686967708     0.1676585645
    8      C       0.4081154807    -0.9023494674    -0.2728540716
    9      O       1.8304083073    -0.4871700337    -0.2030607091
   10      C       2.7000552908    -1.6062784291    -0.3408900247
   11      C       4.2034614783    -1.1557580572    -0.3260026953
   12      C       4.5565662993     0.3850673293    -0.4927622794
   13      C       3.3576999398     1.3988160134    -0.5478031890
   14      O       2.8003099334     1.9870615373     0.4039968549
   15      O      -3.2666288554     2.2949740704     0.0141208490
   16      O       3.0273604675     1.5987752148    -1.9324686454
   17      O       2.3041460616    -2.7888183714    -0.4404197464
   18      C       1.8992790697     2.5476931254    -2.0623905545
   19      C       4.8802397016    -1.4679337380     1.0851991512
   20      C       6.4420099170    -1.5696252135     0.8730894284
   21      C       6.8161336222    -0.0553721027     0.6671463327
   22      C       5.4034227195     0.6328262126     0.8291443107
   23      O       4.7136150422    -0.2060267456     1.8359644345
   24      H       4.7034823725    -1.7428218897    -1.1178047597
   25      H       5.1619453464     0.5340964279    -1.4045790313
   26      H       4.4218592171    -2.3150786962     1.6320669218
   27      H       6.9233067410    -1.9865774771     1.7722154916
   28      H       6.7055106815    -2.1974883271     0.0070673846
   29      H       7.5114712883     0.2997421324     1.4442334828
   30      H       7.2595246979     0.1429842713    -0.3216009638
   31      H       5.4230966645     1.6888463628     1.1608356580
   32      O      -1.7467912376    -0.7773492320    -2.0019195193
   33      C      -2.8185692074     3.5834837201     0.5888213304
   34      C      -4.8526470439    -1.0092398630     1.1813753594
   35      C      -6.2447729311    -1.6284665590     0.7762619365
   36      C      -5.9361408785    -2.0532907895    -0.7097218275
   37      C      -4.3723122675    -1.8292828270    -0.7872898546
   38      O      -3.9048782683    -1.9990029939     0.6153358899
   39      H      -5.6920419411     0.6108376881    -0.0285694785
   40      H      -4.3757142795     0.1417876112    -1.9502474337
   41      H      -3.4118212905     3.8119597650     1.4973599926
   42      H      -4.6780503797    -0.8625967504     2.2648288075
   43      H      -6.4716811893    -2.5052511714     1.4042970445
   44      H      -7.0733172079    -0.9066061504     0.8563507973
   45      H      -6.1855926117    -3.1101182506    -0.8932463754
   46      H      -6.4731991271    -1.4334525383    -1.4459657428
   47      H      -3.8320462406    -2.5214504858    -1.4623787449
   48      H      -2.9608319686     4.3705396551    -0.1762156505
   49      H      -1.7435980233     3.5181735063     0.8522023040
   50      H       1.0362588806     2.0285470086    -2.5252388747
   51      H       2.2096747352     3.3871777576    -2.7148905514
   52      H       1.6217725393     2.9277283664    -1.0577676681
   53      H       0.2082570293    -1.7613279420     0.4024604983
   54      H       0.1090428011    -1.1801972090    -1.3063733418
   55      H      -0.1490250625     0.6374729069     1.2131199573
   56      H      -0.1045736792     1.2144378644    -0.4896337132
 ----------------------------------------------------------------
 Molecular Point Group                 C1    NOp =  1
 Largest Abelian Subgroup              C1    NOp =  1
 Nuclear Repulsion Energy =  3115.5651030113 hartrees
 There are      113 alpha and      113 beta electrons
 Requested basis set is STO-3G
 There are 86 shells and 176 basis functions

 Total QAlloc Memory Limit   4000 MB
 Mega-Array Size       392 MB
 MEM_STATIC part       400 MB
 A cutoff of  1.0D-12 yielded   2108 shell pairs
 There are      9890 function pairs
 
 -------------------------------------------------------
 OpenMP Integral Computing Module                       
 Release: version 1.0, May 2013, Q-Chem Inc. Pittsburgh 
 -------------------------------------------------------
 Integral Job Info:
 Integral job number is                      11
 Integral operator is                         1
 short-range coefficients                     0
 long-range coefficients              100000000
 Omega coefficients                           0
 if combine SR and LR in K                    0
 Integral screening is                        0
 Integral computing path is                   2
 max size of driver memory is            800000
 size of driver memory is                 45569
 size of scratch memory is              1046100
 max col of scratch BK array                289
 max len of scratch array in speh3           22
 max len of scratch index in speh4            8
 max int batch size is                      520
 min int batch size is                       52
 fixed nKL is                                52
 max L of basis functions is                  1
 order of int derivative is                   0
 number of shells is                         86
 number of basis is                         176
 number of cartesian basis is               176
 number of contracted shell pairs          2108
 number of primitive shell pairs          10930
 maxK2 (contraction) of shell pair            9
 max number of K2 of shell pair               1
 max number of CS2 of shell pair            323
 max number of PS2 of shell pair           1236
 mem total for path MDJ                   49782
 -------------------------------------------------------
 Smallest overlap matrix eigenvalue = 2.13E-01

 Scale SEOQF with 1.000000e-02/1.000000e-01/1.000000e-01

 Standard Electronic Orientation quadrupole field applied
 Nucleus-field energy     =     0.0000000295 hartrees
 Guess from superposition of atomic densities
 Warning:  Energy on first SCF cycle will be non-variational
 A restricted hybrid HF-DFT SCF calculation will be
 performed using Pulay DIIS extrapolation
 Exchange:     0.2000 Hartree-Fock + 0.0800 Slater + 0.7200 B88
 Correlation:  0.1900 VWN1RPA + 0.8100 LYP
 Using SG-1 standard quadrature grid
 Dispersion:   Grimme D3
 SCF converges when DIIS error is below 1.0E-08
 using 48 threads for integral computing
 -------------------------------------------------------
 OpenMP Integral computing Module                
 Release: version 1.0, May 2013, Q-Chem Inc. Pittsburgh 
 -------------------------------------------------------
 -------------------------------------------------------
 OpenMP BLAS3 based DFT computing Module                
 Release: version 1.0, May 2013, Q-Chem Inc. Pittsburgh 
 -------------------------------------------------------
 ---------------------------------------
  Cycle       Energy         DIIS Error
 ---------------------------------------
    1   -1507.6230084278      7.46E-02
    2   -1509.7206577348      1.04E-02
    3   -1507.2819176312      2.76E-02
    4   -1510.1641228801      4.65E-03
    5   -1510.2534405497      1.46E-03
    6   -1510.2618619518      4.90E-04
    7   -1510.2628107960      1.65E-04
    8   -1510.2629251249      3.37E-05
    9   -1510.2629294051      1.40E-05
   10   -1510.2629302157      4.97E-06
   11   -1510.2629303249      1.22E-06
   12   -1510.2629303315      2.69E-07
   13   -1510.2629303318      1.21E-07
   14   -1510.2629303318      6.44E-08
   15   -1510.2629303318      1.43E-08
   16   -1510.2629303319      5.37E-09 Convergence criterion met
 ---------------------------------------
 SCF time:  CPU 117.24 s  wall 2.50 s
 SCF   energy in the final basis set = -1510.26293033
 Total energy in the final basis set = -1510.26293033
 
 --------------------------------------------------------------
 
                    Orbital Energies (a.u.)
 --------------------------------------------------------------
 
 Alpha MOs
 -- Occupied --
-18.942 -18.938 -18.931 -18.925 -18.888 -18.887 -18.875 -18.873
-18.872 -18.867 -10.106 -10.101 -10.101 -10.097 -10.075 -10.065
-10.061 -10.061 -10.060 -10.058 -10.057 -10.055 -10.041 -10.039
-10.038 -10.036 -10.023 -10.021 -10.020 -10.019  -1.018  -1.014
 -1.007  -1.002  -0.971  -0.970  -0.942  -0.937  -0.933  -0.929
 -0.765  -0.762  -0.730  -0.722  -0.709  -0.704  -0.698  -0.659
 -0.659  -0.615  -0.598  -0.588  -0.546  -0.543  -0.538  -0.537
 -0.515  -0.510  -0.491  -0.472  -0.463  -0.458  -0.455  -0.442
 -0.435  -0.430  -0.429  -0.411  -0.410  -0.408  -0.407  -0.400
 -0.389  -0.386  -0.376  -0.366  -0.365  -0.362  -0.352  -0.348
 -0.344  -0.340  -0.333  -0.332  -0.329  -0.325  -0.318  -0.314
 -0.309  -0.308  -0.306  -0.302  -0.298  -0.294  -0.292  -0.273
 -0.270  -0.248  -0.247  -0.244  -0.240  -0.235  -0.234  -0.187
 -0.179  -0.167  -0.164  -0.157  -0.155  -0.149  -0.148  -0.146
 -0.144
 -- Virtual --
  0.097   0.098   0.101   0.110   0.203   0.238   0.242   0.250
  0.263   0.272   0.281   0.285   0.302   0.313   0.328   0.328
  0.331   0.337   0.342   0.344   0.350   0.352   0.364   0.372
  0.376   0.380   0.384   0.388   0.394   0.399   0.408   0.413
  0.415   0.418   0.419   0.422   0.426   0.429   0.436   0.438
  0.439   0.440   0.443   0.446   0.451   0.452   0.456   0.466
  0.468   0.469   0.488   0.490   0.491   0.504   0.507   0.535
  0.543   0.553   0.554   0.626   0.637   0.647   0.653
 --------------------------------------------------------------
 
          Ground-State Mulliken Net Atomic Charges

     Atom                 Charge (a.u.)
  ----------------------------------------
      1 O                    -0.218477
      2 C                     0.215642
      3 C                    -0.079138
      4 C                    -0.073823
      5 C                     0.220061
      6 O                    -0.162658
      7 C                    -0.045767
      8 C                    -0.056821
      9 O                    -0.171266
     10 C                     0.210660
     11 C                    -0.078651
     12 C                    -0.079788
     13 C                     0.220229
     14 O                    -0.217791
     15 O                    -0.168439
     16 O                    -0.174080
     17 O                    -0.214411
     18 C                    -0.137133
     19 C                     0.025757
     20 C                    -0.143300
     21 C                    -0.144726
     22 C                     0.026004
     23 O                    -0.187308
     24 H                     0.086382
     25 H                     0.085197
     26 H                     0.085215
     27 H                     0.078411
     28 H                     0.074327
     29 H                     0.077978
     30 H                     0.073353
     31 H                     0.085860
     32 O                    -0.220350
     33 C                    -0.136285
     34 C                     0.025147
     35 C                    -0.140383
     36 C                    -0.146312
     37 C                     0.022500
     38 O                    -0.192427
     39 H                     0.083902
     40 H                     0.088101
     41 H                     0.101920
     42 H                     0.088973
     43 H                     0.078560
     44 H                     0.074557
     45 H                     0.079356
     46 H                     0.073759
     47 H                     0.085924
     48 H                     0.085061
     49 H                     0.084351
     50 H                     0.083363
     51 H                     0.083751
     52 H                     0.098289
     53 H                     0.092404
     54 H                     0.109149
     55 H                     0.097608
     56 H                     0.087584
  ----------------------------------------
  Sum of atomic charges =    -0.000000

 -----------------------------------------------------------------
                    Cartesian Multipole Moments
 -----------------------------------------------------------------
    Charge (ESU x 10^10)
                 0.0000
    Dipole Moment (Debye)
         X      -0.2177      Y       1.1905      Z      -1.8584
       Tot       2.2177
    Quadrupole Moments (Debye-Ang)
        XX    -134.6784     XY       1.3736     YY    -159.9150
        XZ       2.6853     YZ      -5.7598     ZZ    -166.9540
    Octopole Moments (Debye-Ang^2)
       XXX      29.1472    XXY     -34.7156    XYY      -6.6139
       YYY      56.7436    XXZ     -47.3104    XYZ       2.0932
       YYZ      -8.0899    XZZ       1.0985    YZZ      -1.9168
       ZZZ      -1.6217
    Hexadecapole Moments (Debye-Ang^3)
      XXXX  -15281.2185   XXXY      71.2005   XXYY   -3164.1676
      XYYY     -14.2486   YYYY   -2684.6407   XXXZ     119.7962
      XXYZ     -61.6581   XYYZ      30.4619   YYYZ     -18.5148
      XXZZ   -3035.0130   XYZZ      16.2677   YYZZ    -641.9345
      XZZZ     -21.5869   YZZZ     -24.6369   ZZZZ   -1233.2323
 -----------------------------------------------------------------
 Calculating analytic gradient of the SCF energy
 Gradient of SCF Energy
            1           2           3           4           5           6
    1  -0.0059726   0.0065240   0.0035189  -0.0039775   0.0001129  -0.0001950
    2   0.0051032  -0.0055402  -0.0084133   0.0147367  -0.0150821   0.0094010
    3  -0.0048964   0.0051266   0.0060182  -0.0090105   0.0070682  -0.0061892
            7           8           9          10          11          12
    1   0.0000487  -0.0000323  -0.0000338   0.0000146   0.0001253  -0.0017810
    2  -0.0014138   0.0012656  -0.0000466  -0.0000136   0.0001539  -0.0019551
    3   0.0055251  -0.0040643   0.0002521   0.0013753   0.0012342  -0.0035544
           13          14          15          16          17          18
    1   0.0043878  -0.0029227   0.0001002  -0.0000083   0.0000084   0.0000152
    2   0.0051484  -0.0033166   0.0000146  -0.0000155   0.0000071  -0.0000340
    3   0.0007493   0.0004001  -0.0000272   0.0000133  -0.0000008   0.0000040
           19          20          21          22          23          24
    1   0.0000661  -0.0001131   0.0000148   0.0001605   0.0000396  -0.0000227
    2   0.0000615   0.0000285  -0.0000676   0.0000389   0.0000418   0.0000032
    3  -0.0002431  -0.0000286  -0.0000110   0.0001254   0.0000621  -0.0000305
           25          26          27          28          29          30
    1   0.0000136   0.0000259   0.0000136  -0.0000324  -0.0000174   0.0000277
    2  -0.0000560  -0.0000256  -0.0000179  -0.0000071  -0.0000059   0.0000199
    3  -0.0000072   0.0000664   0.0000260  -0.0000460  -0.0000064   0.0000040
           31          32          33          34          35          36
    1  -0.0000116   0.0000045  -0.0000506   0.0000918  -0.0000753  -0.0000594
    2   0.0000023  -0.0000356  -0.0000098   0.0001914  -0.0000892   0.0000103
    3   0.0000197   0.0000138  -0.0000234  -0.0000124   0.0000320  -0.0000067
           37          38          39          40          41          42
    1   0.0000430  -0.0000488  -0.0000248  -0.0000189   0.0000279  -0.0000195
    2  -0.0000876   0.0000233  -0.0000559  -0.0000312   0.0000342   0.0000169
    3   0.0000474  -0.0000267  -0.0000152   0.0000228   0.0000157  -0.0000050
           43          44          45          46          47          48
    1   0.0000545  -0.0000172  -0.0000057   0.0000036  -0.0000197  -0.0000013
    2   0.0000311  -0.0000048  -0.0000094  -0.0000100   0.0000136   0.0000082
    3   0.0000172   0.0000122   0.0000037   0.0000211  -0.0000067  -0.0000074
           49          50          51          52          53          54
    1   0.0000132  -0.0000004   0.0000107  -0.0000005  -0.0000054   0.0000276
    2   0.0000119   0.0000102  -0.0000050  -0.0000258  -0.0000116   0.0000018
    3  -0.0000153  -0.0000120  -0.0000066  -0.0000095   0.0000085   0.0000043
           55          56
    1  -0.0000102  -0.0000167
    2  -0.0000005   0.0000076
    3   0.0000002  -0.0000062
 Max gradient component =       1.508E-02
 RMS gradient           =       2.631E-03
 Gradient time:  CPU 30.76 s  wall 0.67 s
 Geometry Optimization Parameters
   NAtoms,    NIC,     NZ,  NCons,   NDum,   NFix, NCnnct, MaxDiis
       56     458       0       0       0       0       0       0


** GEOMETRY OPTIMIZATION IN DELOCALIZED INTERNAL COORDINATES **
   Searching for a Minimum

   Optimization Cycle:   1

                       Coordinates (Angstroms)
     ATOM                X               Y               Z
      1  O        -4.5332020954    2.1071923381    2.0053374491
      2  C        -4.1057156562    1.5962959685    0.9452820087
      3  C        -4.6755098414    0.2947551297    0.2792554840
      4  C        -3.9942152136   -0.2954353337   -1.0110639901
      5  C        -2.4126176719   -0.3293579777   -1.0402248283
      6  O        -1.8813501123    0.2425107276    0.1498744479
      7  C        -0.4024201305    0.3686967708    0.1676585645
      8  C         0.4081154807   -0.9023494674   -0.2728540716
      9  O         1.8304083073   -0.4871700337   -0.2030607091
     10  C         2.7000552908   -1.6062784291   -0.3408900247
     11  C         4.2034614783   -1.1557580572   -0.3260026953
     12  C         4.5565662993    0.3850673293   -0.4927622794
     13  C         3.3576999398    1.3988160134   -0.5478031890
     14  O         2.8003099334    1.9870615373    0.4039968549
     15  O        -3.2666288554    2.2949740704    0.0141208490
     16  O         3.0273604675    1.5987752148   -1.9324686454
     17  O         2.3041460616   -2.7888183714   -0.4404197464
     18  C         1.8992790697    2.5476931254   -2.0623905545
     19  C         4.8802397016   -1.4679337380    1.0851991512
     20  C         6.4420099170   -1.5696252135    0.8730894284
     21  C         6.8161336222   -0.0553721027    0.6671463327
     22  C         5.4034227195    0.6328262126    0.8291443107
     23  O         4.7136150422   -0.2060267456    1.8359644345
     24  H         4.7034823725   -1.7428218897   -1.1178047597
     25  H         5.1619453464    0.5340964279   -1.4045790313
     26  H         4.4218592171   -2.3150786962    1.6320669218
     27  H         6.9233067410   -1.9865774771    1.7722154916
     28  H         6.7055106815   -2.1974883271    0.0070673846
     29  H         7.5114712883    0.2997421324    1.4442334828
     30  H         7.2595246979    0.1429842713   -0.3216009638
     31  H         5.4230966645    1.6888463628    1.1608356580
     32  O        -1.7467912376   -0.7773492320   -2.0019195193
     33  C        -2.8185692074    3.5834837201    0.5888213304
     34  C        -4.8526470439   -1.0092398630    1.1813753594
     35  C        -6.2447729311   -1.6284665590    0.7762619365
     36  C        -5.9361408785   -2.0532907895   -0.7097218275
     37  C        -4.3723122675   -1.8292828270   -0.7872898546
     38  O        -3.9048782683   -1.9990029939    0.6153358899
     39  H        -5.6920419411    0.6108376881   -0.0285694785
     40  H        -4.3757142795    0.1417876112   -1.9502474337
     41  H        -3.4118212905    3.8119597650    1.4973599926
     42  H        -4.6780503797   -0.8625967504    2.2648288075
     43  H        -6.4716811893   -2.5052511714    1.4042970445
     44  H        -7.0733172079   -0.9066061504    0.8563507973
     45  H        -6.1855926117   -3.1101182506   -0.8932463754
     46  H        -6.4731991271   -1.4334525383   -1.4459657428
     47  H        -3.8320462406   -2.5214504858   -1.4623787449
     48  H        -2.9608319686    4.3705396551   -0.1762156505
     49  H        -1.7435980233    3.5181735063    0.8522023040
     50  H         1.0362588806    2.0285470086   -2.5252388747
     51  H         2.2096747352    3.3871777576   -2.7148905514
     52  H         1.6217725393    2.9277283664   -1.0577676681
     53  H         0.2082570293   -1.7613279420    0.4024604983
     54  H         0.1090428011   -1.1801972090   -1.3063733418
     55  H        -0.1490250625    0.6374729069    1.2131199573
     56  H        -0.1045736792    1.2144378644   -0.4896337132
   Point Group: c1    Number of degrees of freedom:   162


   Energy is  -1510.262930332


 Attempting to Generate Delocalized Internal Coordinates

162 Hessian modes will be used to form the next step
  Hessian Eigenvalues:
     0.002000    0.002000    0.002000    0.002000    0.002000    0.002687
     0.002996    0.004097    0.004480    0.004570    0.004627    0.004780
     0.005023    0.005086    0.006429    0.006750    0.006827    0.010685
     0.011013    0.012475    0.012571    0.020505    0.021724    0.024084
     0.025902    0.030202    0.030633    0.033324    0.035154    0.035691
     0.039522    0.041681    0.041743    0.042152    0.042943    0.043566
     0.046254    0.047131    0.050796    0.051565    0.054225    0.054502
     0.055304    0.055425    0.056158    0.056368    0.056410    0.057780
     0.058270    0.058319    0.060198    0.060629    0.061307    0.062453
     0.063817    0.064012    0.064794    0.069922    0.070345    0.072942
     0.074521    0.090199    0.092597    0.092634    0.094455    0.095397
     0.098119    0.100300    0.100587    0.101400    0.101851    0.104066
     0.111440    0.112874    0.118350    0.120973    0.125765    0.132246
     0.141143    0.157881    0.158863    0.160000    0.160000    0.160000
     0.160000    0.160000    0.160000    0.163767    0.167106    0.216762
     0.219395    0.219576    0.221220    0.226361    0.231672    0.237978
     0.238876    0.239460    0.239495    0.242658    0.243533    0.244807
     0.249801    0.249948    0.249976    0.250000    0.250000    0.250000
     0.250000    0.250000    0.250000    0.250000    0.250000    0.250828
     0.252998    0.253221    0.259413    0.259765    0.260554    0.260843
     0.288610    0.293818    0.305199    0.308497    0.324138    0.324714
     0.325173    0.326667    0.327200    0.327273    0.327389    0.327703
     0.327964    0.328526    0.328528    0.328578    0.328998    0.329131
     0.329426    0.331063    0.331804    0.332458    0.334479    0.334488
     0.334829    0.334858    0.335000    0.335038    0.335087    0.335423
     0.340696    0.341951    0.345350    0.345892    0.399303    0.402766
     0.418683    0.419760    0.823023    0.825061    0.828611    0.832162

 Minimum Search - Taking Simple RFO Step
 Searching for Lamda that Minimizes Along All modes
 Value Taken    Lamda =  -0.01524407
 Calculated Step too Large.  Step scaled by  0.346465
 Step Taken.  Stepsize is  0.300000

                             Maximum     Tolerance    Cnvgd?
         Gradient           0.004322      0.000300      NO
         Displacement       0.081647      0.001200      NO
         Energy change     *********      0.000001      NO


 New Cartesian Coordinates Obtained by Inverse Iteration

 Displacement from previous Coordinates is:  1.788566
 Adding empirical dispersion correction 
 ----------------------------------------------------------------
 Doing -D3(op) with
 s6 =   1.00000
 s8 =   0.78311
 a1 =   0.30000
 a2 =   4.25000
 n  =  10.00000
 -D3 energy without 3body term =     -0.0671315720 hartrees
 ----------------------------------------------------------------
             Standard Nuclear Orientation (Angstroms)
    I     Atom           X                Y                Z
 ----------------------------------------------------------------
    1      O      -4.4763903665     2.0295984710     2.1111644255
    2      C      -4.1473962939     1.6122624799     0.9775489583
    3      C      -4.6805574540     0.2979223756     0.3063176254
    4      C      -4.0188185511    -0.2342907161    -1.0188623209
    5      C      -2.4408164148    -0.1682617081    -1.1138155225
    6      O      -1.8895275107     0.3028675495     0.1107890331
    7      C      -0.4090373384     0.4101451160     0.1212181267
    8      C       0.3838092087    -0.8713139016    -0.3213388284
    9      O       1.8117720759    -0.4774894133    -0.2439662191
   10      C       2.6656346174    -1.6105523047    -0.3656904997
   11      C       4.1753913598    -1.1843805137    -0.3161187762
   12      C       4.5583502989     0.3475271862    -0.4942727547
   13      C       3.3786328629     1.3795303704    -0.6003615349
   14      O       2.8356994486     2.0269545544     0.3208745410
   15      O      -3.4146915842     2.3939230952     0.0229118385
   16      O       3.0830914464     1.5507568182    -1.9967119572
   17      O       2.2528703491    -2.7878017456    -0.4593212433
   18      C       1.9913448399     2.5333994183    -2.1768558923
   19      C       4.8096016481    -1.4865328969     1.1171220578
   20      C       6.3746350235    -1.6165914751     0.9482259094
   21      C       6.7793318195    -0.1118349375     0.7301940817
   22      C       5.3747416073     0.6019944800     0.8448856144
   23      O       4.6446675984    -0.2107521790     1.8449120879
   24      H       4.6864985333    -1.7900311618    -1.0865482165
   25      H       5.1884294343     0.4700519916    -1.3932098405
   26      H       4.3229012663    -2.3178644694     1.6637414189
   27      H       6.8250682579    -2.0277372711     1.8658062683
   28      H       6.6504807582    -2.2615879975     0.0988200490
   29      H       7.4600622171     0.2434690826     1.5200335470
   30      H       7.2516254297     0.0642462609    -0.2493405648
   31      H       5.4035171243     1.6624702308     1.1613291279
   32      O      -1.7906337993    -0.5526675672    -2.1129995901
   33      C      -2.9692521149     3.6676471232     0.6315757386
   34      C      -4.7394378513    -1.0318161088     1.1880390654
   35      C      -6.1098061937    -1.7248005310     0.8309208677
   36      C      -5.8422664988    -2.1059344111    -0.6749408029
   37      C      -4.2985878566    -1.7906368837    -0.8140792321
   38      O      -3.7621338945    -1.9559492187     0.5636980849
   39      H      -5.7276177530     0.5597995849     0.0551726689
   40      H      -4.4631190154     0.2015758775    -1.9306813538
   41      H      -3.4940517244     3.8225032689     1.5960351849
   42      H      -4.5257498814    -0.8941610072     2.2656583835
   43      H      -6.2581664480    -2.6238857165     1.4508669414
   44      H      -6.9742932479    -1.0540542521     0.9602916643
   45      H      -6.0386689972    -3.1721302661    -0.8684099233
   46      H      -6.4453187184    -1.5056876053    -1.3754665195
   47      H      -3.7486234033    -2.4378601585    -1.5249794052
   48      H      -3.2031193051     4.4876071321    -0.0740766461
   49      H      -1.8746054751     3.6333289931     0.8040835856
   50      H       1.1201785024     2.0306695985    -2.6425648049
   51      H       2.3434310431     3.3424890970    -2.8463642942
   52      H       1.7073793869     2.9517521149    -1.1894062867
   53      H       0.1686953615    -1.7284277914     0.3516423723
   54      H       0.0845133512    -1.1427667331    -1.3564973913
   55      H      -0.1510010160     0.6619041157     1.1697771713
   56      H      -0.0999042487     1.2601594151    -0.5252581113
 ----------------------------------------------------------------
 Molecular Point Group                 C1    NOp =  1
 Largest Abelian Subgroup              C1    NOp =  1
 Nuclear Repulsion Energy =  3113.3771871421 hartrees
 There are      113 alpha and      113 beta electrons
 Applying Cartesian multipole field
    Component          Value
    ---------          -----
     (2,0,0)        1.00000E-12
     (0,2,0)        2.00000E-11
     (0,0,2)       -3.00000E-11
 Nucleus-field energy     =     0.0000000278 hartrees
 Requested basis set is STO-3G
 There are 86 shells and 176 basis functions
 A cutoff of  1.0D-12 yielded   2099 shell pairs
 There are      9836 function pairs
 Smallest overlap matrix eigenvalue = 2.14E-01
 Guess MOs from SCF MO coefficient file
 Reading MOs from coefficient file
 Reading MOs from coefficient file
 A restricted hybrid HF-DFT SCF calculation will be
 performed using Pulay DIIS extrapolation
 Exchange:     0.2000 Hartree-Fock + 0.0800 Slater + 0.7200 B88
 Correlation:  0.1900 VWN1RPA + 0.8100 LYP
 Using SG-1 standard quadrature grid
 Dispersion:   Grimme D3
 SCF converges when DIIS error is below 1.0E-08
 Geometry optimization detected.  Setting ReadMinima to 0
 Setting SaveMinima to 0
 using 48 threads for integral computing
 -------------------------------------------------------
 OpenMP Integral computing Module                
 Release: version 1.0, May 2013, Q-Chem Inc. Pittsburgh 
 -------------------------------------------------------
 -------------------------------------------------------
 OpenMP BLAS3 based DFT computing Module                
 Release: version 1.0, May 2013, Q-Chem Inc. Pittsburgh 
 -------------------------------------------------------
 ---------------------------------------
  Cycle       Energy         DIIS Error
 ---------------------------------------
    1   -1510.2066111756      3.78E-03
    2   -1510.2663921779      2.73E-04
    3   -1510.2664659887      3.64E-04
    4   -1510.2669343038      1.58E-04
    5   -1510.2670357890      4.87E-05
    6   -1510.2670463984      1.58E-05
    7   -1510.2670472463      9.26E-06
    8   -1510.2670476320      1.56E-06
    9   -1510.2670476434      4.40E-07
   10   -1510.2670476442      3.26E-07
   11   -1510.2670476446      1.03E-07
   12   -1510.2670476446      3.26E-08
   13   -1510.2670476446      9.06E-09 Convergence criterion met
 ---------------------------------------
 SCF time:  CPU 90.92 s  wall 1.90 s
 SCF   energy in the final basis set = -1510.26704764
 Total energy in the final basis set = -1510.26704764
 
 --------------------------------------------------------------
 
                    Orbital Energies (a.u.)
 --------------------------------------------------------------
 
 Alpha MOs
 -- Occupied --
-18.941 -18.940 -18.931 -18.925 -18.888 -18.887 -18.874 -18.873
-18.872 -18.867 -10.105 -10.102 -10.101 -10.097 -10.075 -10.068
-10.061 -10.060 -10.060 -10.058 -10.057 -10.055 -10.041 -10.039
-10.038 -10.036 -10.023 -10.020 -10.020 -10.019  -1.017  -1.014
 -1.007  -1.002  -0.971  -0.970  -0.942  -0.937  -0.933  -0.929
 -0.765  -0.762  -0.730  -0.722  -0.709  -0.704  -0.699  -0.659
 -0.659  -0.615  -0.598  -0.588  -0.545  -0.544  -0.538  -0.537
 -0.515  -0.510  -0.491  -0.472  -0.463  -0.458  -0.455  -0.442
 -0.434  -0.429  -0.429  -0.411  -0.410  -0.408  -0.406  -0.400
 -0.390  -0.386  -0.375  -0.366  -0.365  -0.363  -0.352  -0.347
 -0.344  -0.340  -0.333  -0.332  -0.330  -0.325  -0.319  -0.314
 -0.309  -0.307  -0.306  -0.301  -0.297  -0.294  -0.293  -0.272
 -0.270  -0.248  -0.247  -0.244  -0.242  -0.235  -0.234  -0.186
 -0.179  -0.168  -0.167  -0.157  -0.155  -0.149  -0.148  -0.145
 -0.144
 -- Virtual --
  0.097   0.098   0.103   0.110   0.202   0.238   0.242   0.251
  0.262   0.271   0.281   0.285   0.302   0.313   0.327   0.328
  0.331   0.337   0.341   0.344   0.351   0.352   0.363   0.372
  0.375   0.380   0.384   0.390   0.394   0.399   0.409   0.413
  0.415   0.419   0.420   0.423   0.427   0.429   0.436   0.439
  0.439   0.440   0.443   0.446   0.450   0.452   0.454   0.466
  0.466   0.468   0.485   0.490   0.491   0.504   0.507   0.535
  0.543   0.553   0.554   0.627   0.637   0.648   0.653
 --------------------------------------------------------------
 
          Ground-State Mulliken Net Atomic Charges

     Atom                 Charge (a.u.)
  ----------------------------------------
      1 O                    -0.218397
      2 C                     0.215684
      3 C                    -0.079202
      4 C                    -0.073720
      5 C                     0.219360
      6 O                    -0.164246
      7 C                    -0.045222
      8 C                    -0.054625
      9 O                    -0.170526
     10 C                     0.210989
     11 C                    -0.078667
     12 C                    -0.079800
     13 C                     0.220174
     14 O                    -0.218265
     15 O                    -0.170021
     16 O                    -0.174280
     17 O                    -0.214046
     18 C                    -0.137263
     19 C                     0.025712
     20 C                    -0.143251
     21 C                    -0.144699
     22 C                     0.025957
     23 O                    -0.187362
     24 H                     0.086332
     25 H                     0.085349
     26 H                     0.085158
     27 H                     0.078493
     28 H                     0.074376
     29 H                     0.078057
     30 H                     0.073421
     31 H                     0.086387
     32 O                    -0.220872
     33 C                    -0.135713
     34 C                     0.025274
     35 C                    -0.140369
     36 C                    -0.146114
     37 C                     0.022347
     38 O                    -0.192381
     39 H                     0.083403
     40 H                     0.087526
     41 H                     0.101928
     42 H                     0.089294
     43 H                     0.078487
     44 H                     0.074334
     45 H                     0.079405
     46 H                     0.073958
     47 H                     0.085836
     48 H                     0.085349
     49 H                     0.084717
     50 H                     0.083815
     51 H                     0.083735
     52 H                     0.098248
     53 H                     0.094047
     54 H                     0.105731
     55 H                     0.097985
     56 H                     0.088176
  ----------------------------------------
  Sum of atomic charges =     0.000000

 -----------------------------------------------------------------
                    Cartesian Multipole Moments
 -----------------------------------------------------------------
    Charge (ESU x 10^10)
                 0.0000
    Dipole Moment (Debye)
         X      -0.2095      Y       1.0258      Z      -1.7218
       Tot       2.0151
    Quadrupole Moments (Debye-Ang)
        XX    -133.8592     XY       0.8758     YY    -159.0778
        XZ       2.4078     YZ      -5.5282     ZZ    -167.5079
    Octopole Moments (Debye-Ang^2)
       XXX      25.9401    XXY     -34.6523    XYY     -10.5525
       YYY      53.4904    XXZ     -41.7369    XYZ       0.2144
       YYZ      -6.1729    XZZ       4.8108    YZZ      -3.9323
       ZZZ       1.6232
    Hexadecapole Moments (Debye-Ang^3)
      XXXX  -15062.7869   XXXY      93.1490   XXYY   -3115.4672
      XYYY      19.4270   YYYY   -2709.2401   XXXZ     127.3590
      XXYZ     -51.5114   XYYZ      23.7306   YYYZ       1.1166
      XXZZ   -3019.0385   XYZZ      37.4621   YYZZ    -655.2606
      XZZZ      -3.2878   YZZZ     -11.8351   ZZZZ   -1320.5725
 -----------------------------------------------------------------
 Calculating analytic gradient of the SCF energy
 Gradient of SCF Energy
            1           2           3           4           5           6
    1  -0.0046947   0.0014096   0.0044673  -0.0038599   0.0008006   0.0009496
    2   0.0036771  -0.0017063  -0.0075116   0.0087647  -0.0061397   0.0056632
    3  -0.0018082   0.0004873   0.0052335  -0.0054075   0.0047634  -0.0063344
            7           8           9          10          11          12
    1   0.0007251   0.0023639   0.0002435  -0.0006356  -0.0000111  -0.0010852
    2  -0.0030812   0.0006797  -0.0008342   0.0005177   0.0003007  -0.0009867
    3   0.0042292  -0.0026823   0.0008868  -0.0002650   0.0017117  -0.0027779
           13          14          15          16          17          18
    1   0.0022343  -0.0017132   0.0004137   0.0005358   0.0001219   0.0004716
    2   0.0023980  -0.0015312   0.0020163   0.0005794  -0.0001755   0.0002154
    3   0.0009706   0.0002135   0.0008538  -0.0000895   0.0006111  -0.0001250
           19          20          21          22          23          24
    1   0.0000465   0.0000752   0.0000172   0.0003575   0.0001460  -0.0000633
    2  -0.0000222  -0.0000899  -0.0000529   0.0001494   0.0001642   0.0001043
    3  -0.0004041   0.0001957  -0.0001145   0.0002919  -0.0000034  -0.0001807
           25          26          27          28          29          30
    1  -0.0001026  -0.0000128   0.0000354  -0.0000543  -0.0000056  -0.0000486
    2  -0.0003608  -0.0000157   0.0000016   0.0000064   0.0000080   0.0000642
    3  -0.0001696  -0.0000282   0.0000093  -0.0000563   0.0000156   0.0000234
           31          32          33          34          35          36
    1   0.0001188  -0.0018486   0.0002118   0.0003667  -0.0002364  -0.0000406
    2   0.0000184  -0.0031926   0.0000231   0.0003421  -0.0002983  -0.0003902
    3   0.0000309  -0.0007618   0.0000155  -0.0010684   0.0001929  -0.0001553
           37          38          39          40          41          42
    1  -0.0005314   0.0003406  -0.0003282   0.0002444  -0.0001541   0.0000243
    2  -0.0002251   0.0001035  -0.0000957   0.0006691  -0.0000359  -0.0000853
    3  -0.0003510  -0.0006041   0.0009115   0.0004200  -0.0001070   0.0000003
           43          44          45          46          47          48
    1   0.0000294   0.0000251  -0.0001107  -0.0000592   0.0000246   0.0000345
    2   0.0000411   0.0001563   0.0000049  -0.0000649  -0.0000051  -0.0000313
    3   0.0000691   0.0000259   0.0000483   0.0000349   0.0000191  -0.0000160
           49          50          51          52          53          54
    1   0.0000202   0.0000753  -0.0000854  -0.0000068   0.0000588  -0.0006941
    2   0.0000650   0.0000193   0.0000396  -0.0000198   0.0000675   0.0000923
    3  -0.0000380  -0.0000860  -0.0000221   0.0000353   0.0001016   0.0006203
           55          56
    1   0.0001318  -0.0007389
    2  -0.0004386   0.0004383
    3   0.0000354   0.0005983
 Max gradient component =       8.765E-03
 RMS gradient           =       1.732E-03
 Gradient time:  CPU 29.92 s  wall 0.64 s
 Geometry Optimization Parameters
   NAtoms,    NIC,     NZ,  NCons,   NDum,   NFix, NCnnct, MaxDiis
       56     458       0       0       0       0       0       0

 Cartesian Hessian Update
 Hessian Updated using BFGS Update


** GEOMETRY OPTIMIZATION IN DELOCALIZED INTERNAL COORDINATES **
   Searching for a Minimum

   Optimization Cycle:   2

                       Coordinates (Angstroms)
     ATOM                X               Y               Z
      1  O        -4.4763903665    2.0295984710    2.1111644255
      2  C        -4.1473962939    1.6122624799    0.9775489583
      3  C        -4.6805574540    0.2979223756    0.3063176254
      4  C        -4.0188185511   -0.2342907161   -1.0188623209
      5  C        -2.4408164148   -0.1682617081   -1.1138155225
      6  O        -1.8895275107    0.3028675495    0.1107890331
      7  C        -0.4090373384    0.4101451160    0.1212181267
      8  C         0.3838092087   -0.8713139016   -0.3213388284
      9  O         1.8117720759   -0.4774894133   -0.2439662191
     10  C         2.6656346174   -1.6105523047   -0.3656904997
     11  C         4.1753913598   -1.1843805137   -0.3161187762
     12  C         4.5583502989    0.3475271862   -0.4942727547
     13  C         3.3786328629    1.3795303704   -0.6003615349
     14  O         2.8356994486    2.0269545544    0.3208745410
     15  O        -3.4146915842    2.3939230952    0.0229118385
     16  O         3.0830914464    1.5507568182   -1.9967119572
     17  O         2.2528703491   -2.7878017456   -0.4593212433
     18  C         1.9913448399    2.5333994183   -2.1768558923
     19  C         4.8096016481   -1.4865328969    1.1171220578
     20  C         6.3746350235   -1.6165914751    0.9482259094
     21  C         6.7793318195   -0.1118349375    0.7301940817
     22  C         5.3747416073    0.6019944800    0.8448856144
     23  O         4.6446675984   -0.2107521790    1.8449120879
     24  H         4.6864985333   -1.7900311618   -1.0865482165
     25  H         5.1884294343    0.4700519916   -1.3932098405
     26  H         4.3229012663   -2.3178644694    1.6637414189
     27  H         6.8250682579   -2.0277372711    1.8658062683
     28  H         6.6504807582   -2.2615879975    0.0988200490
     29  H         7.4600622171    0.2434690826    1.5200335470
     30  H         7.2516254297    0.0642462609   -0.2493405648
     31  H         5.4035171243    1.6624702308    1.1613291279
     32  O        -1.7906337993   -0.5526675672   -2.1129995901
     33  C        -2.9692521149    3.6676471232    0.6315757386
     34  C        -4.7394378513   -1.0318161088    1.1880390654
     35  C        -6.1098061937   -1.7248005310    0.8309208677
     36  C        -5.8422664988   -2.1059344111   -0.6749408029
     37  C        -4.2985878566   -1.7906368837   -0.8140792321
     38  O        -3.7621338945   -1.9559492187    0.5636980849
     39  H        -5.7276177530    0.5597995849    0.0551726689
     40  H        -4.4631190154    0.2015758775   -1.9306813538
     41  H        -3.4940517244    3.8225032689    1.5960351849
     42  H        -4.5257498814   -0.8941610072    2.2656583835
     43  H        -6.2581664480   -2.6238857165    1.4508669414
     44  H        -6.9742932479   -1.0540542521    0.9602916643
     45  H        -6.0386689972   -3.1721302661   -0.8684099233
     46  H        -6.4453187184   -1.5056876053   -1.3754665195
     47  H        -3.7486234033   -2.4378601585   -1.5249794052
     48  H        -3.2031193051    4.4876071321   -0.0740766461
     49  H        -1.8746054751    3.6333289931    0.8040835856
     50  H         1.1201785024    2.0306695985   -2.6425648049
     51  H         2.3434310431    3.3424890970   -2.8463642942
     52  H         1.7073793869    2.9517521149   -1.1894062867
     53  H         0.1686953615   -1.7284277914    0.3516423723
     54  H         0.0845133512   -1.1427667331   -1.3564973913
     55  H        -0.1510010160    0.6619041157    1.1697771713
     56  H        -0.0999042487    1.2601594151   -0.5252581113
   Point Group: c1    Number of degrees of freedom:   162


   Energy is  -1510.267047645

 Hessian Updated using BFGS Update

149 Hessian modes will be used to form the next step
  Hessian Eigenvalues:
     0.001883    0.002281    0.002687    0.002887    0.003887    0.004268
     0.004583    0.004623    0.005022    0.005085    0.005741    0.006448
     0.006827    0.010565    0.011011    0.011421    0.012457    0.016300
     0.021503    0.022426    0.024542    0.027626    0.030608    0.030994
     0.032991    0.034595    0.035157    0.039355    0.040211    0.041727
     0.042087    0.043512    0.044490    0.045906    0.047821    0.050840
     0.051571    0.054372    0.054721    0.055315    0.055493    0.056318
     0.056335    0.056425    0.057795    0.058281    0.058885    0.060007
     0.060637    0.062246    0.062786    0.063818    0.064012    0.064801
     0.069936    0.070345    0.072943    0.074948    0.091350    0.092630
     0.092897    0.094524    0.095540    0.100283    0.100586    0.101014
     0.101408    0.101859    0.104166    0.111440    0.116331    0.118554
     0.124523    0.125740    0.132243    0.141260    0.157835    0.159935
     0.160000    0.160409    0.163827    0.172659    0.216363    0.219380
     0.219517    0.224786    0.226899    0.232472    0.237942    0.238920
     0.239439    0.239498    0.242771    0.243533    0.244759    0.249800
     0.249939    0.249954    0.249977    0.250806    0.252996    0.253220
     0.259412    0.259751    0.260349    0.260671    0.288286    0.293818
     0.305022    0.308271    0.324064    0.324555    0.325173    0.326665
     0.327199    0.327272    0.327389    0.327701    0.327957    0.328525
     0.328527    0.328578    0.328998    0.329131    0.329424    0.331061
     0.331800    0.332363    0.334122    0.334479    0.334498    0.334853
     0.334864    0.335000    0.335048    0.335091    0.335423    0.341834
     0.345349    0.345888    0.382821    0.399371    0.404638    0.419561
     0.420708    0.823205    0.825514    0.828616    0.832164

 Minimum Search - Taking Simple RFO Step
 Searching for Lamda that Minimizes Along All modes
 Value Taken    Lamda =  -0.01168784
 Calculated Step too Large.  Step scaled by  0.369787
 Step Taken.  Stepsize is  0.300000

                             Maximum     Tolerance    Cnvgd?
         Gradient           0.011658      0.000300      NO
         Displacement       0.087113      0.001200      NO
         Energy change     -0.004117      0.000001      NO


 New Cartesian Coordinates Obtained by Inverse Iteration

 Displacement from previous Coordinates is:  1.813415
 Adding empirical dispersion correction 
 ----------------------------------------------------------------
 Doing -D3(op) with
 s6 =   1.00000
 s8 =   0.78311
 a1 =   0.30000
 a2 =   4.25000
 n  =  10.00000
 -D3 energy without 3body term =     -0.0681232899 hartrees
 ----------------------------------------------------------------
             Standard Nuclear Orientation (Angstroms)
    I     Atom           X                Y                Z
 ----------------------------------------------------------------
    1      O      -4.2887184585     1.9024138306     2.2248038471
    2      C      -4.0791815098     1.5795813865     1.0336760971
    3      C      -4.6579515614     0.3107482982     0.3184710298
    4      C      -4.0133871463    -0.1710332555    -1.0320923705
    5      C      -2.4421885964    -0.0422332180    -1.1424667294
    6      O      -1.8950859247     0.3515113091     0.1107691688
    7      C      -0.4158473824     0.4539332453     0.1098077625
    8      C       0.3575346523    -0.8460987392    -0.3112957096
    9      O       1.7899209445    -0.4695355992    -0.2406999893
   10      C       2.6336391868    -1.6142099647    -0.3242741386
   11      C       4.1434779136    -1.1919474580    -0.2757846888
   12      C       4.5183685772     0.3331676500    -0.5055466176
   13      C       3.3265494681     1.3446986154    -0.6621771660
   14      O       2.7921822675     2.0476195345     0.2226175096
   15      O      -3.3745302596     2.3979646097     0.0895230777
   16      O       3.0012374564     1.4138747408    -2.0606271398
   17      O       2.2133265919    -2.7907092362    -0.3890385643
   18      C       1.8835346218     2.3578056201    -2.2841511919
   19      C       4.7662783234    -1.4370618660     1.1736629322
   20      C       6.3335157483    -1.5639159611     1.0229631196
   21      C       6.7320599459    -0.0658981095     0.7515346691
   22      C       5.3228628263     0.6441431553     0.8276664314
   23      O       4.5888577565    -0.1353523048     1.8514355129
   24      H       4.6620700244    -1.8232114300    -1.0201666975
   25      H       5.1507592562     0.4238389228    -1.4066023727
   26      H       4.2789384224    -2.2496576174     1.7471883943
   27      H       6.7781949729    -1.9374736430     1.9592018808
   28      H       6.6204766506    -2.2389316348     0.2010504393
   29      H       7.4042964561     0.3228255000     1.5328573035
   30      H       7.2117806833     0.0752781654    -0.2300645949
   31      H       5.3424728518     1.7159986581     1.1038153066
   32      O      -1.7861765107    -0.3287869701    -2.1700639675
   33      C      -2.8363702903     3.6060600846     0.7544591040
   34      C      -4.6879299171    -1.0550449696     1.1488212051
   35      C      -6.0537728837    -1.7527891053     0.7841014521
   36      C      -5.7995309710    -2.0783323010    -0.7374651354
   37      C      -4.2621163332    -1.7373679562    -0.8841418465
   38      O      -3.7075293814    -1.9442459197     0.4800247532
   39      H      -5.7113747147     0.5821542003     0.1075384103
   40      H      -4.4800297943     0.2952350709    -1.9174883675
   41      H      -3.2901581564     3.7105557874     1.7608118841
   42      H      -4.4586583933    -0.9549942530     2.2273990087
   43      H      -6.1828323806    -2.6752961798     1.3732039712
   44      H      -6.9253271979    -1.0989385162     0.9476036960
   45      H      -5.9840037473    -3.1396267652    -0.9663263977
   46      H      -6.4189035456    -1.4619287137    -1.4091583426
   47      H      -3.7115964229    -2.3491447321    -1.6253480718
   48      H      -3.0795665842     4.4836221229     0.1253654741
   49      H      -1.7354109046     3.5168998729     0.8498646898
   50      H       1.0148673202     1.8053033197    -2.6949783997
   51      H       2.2035796169     3.1258626233    -3.0152225184
   52      H       1.6099980803     2.8374405318    -1.3219736942
   53      H       0.1306493139    -1.6873336105     0.3776643742
   54      H       0.0571182670    -1.1334342639    -1.3421509839
   55      H      -0.1526047148     0.7086686869     1.1563784066
   56      H      -0.0990025991     1.2960836105    -0.5434573085
 ----------------------------------------------------------------
 Molecular Point Group                 C1    NOp =  1
 Largest Abelian Subgroup              C1    NOp =  1
 Nuclear Repulsion Energy =  3131.3575383588 hartrees
 There are      113 alpha and      113 beta electrons
 Applying Cartesian multipole field
    Component          Value
    ---------          -----
     (2,0,0)        1.00000E-12
     (0,2,0)        2.00000E-11
     (0,0,2)       -3.00000E-11
 Nucleus-field energy     =     0.0000000239 hartrees
 Requested basis set is STO-3G
 There are 86 shells and 176 basis functions
 A cutoff of  1.0D-12 yielded   2123 shell pairs
 There are      9992 function pairs
 Smallest overlap matrix eigenvalue = 2.13E-01
 Guess MOs from SCF MO coefficient file
 Reading MOs from coefficient file
 Reading MOs from coefficient file
 A restricted hybrid HF-DFT SCF calculation will be
 performed using Pulay DIIS extrapolation
 Exchange:     0.2000 Hartree-Fock + 0.0800 Slater + 0.7200 B88
 Correlation:  0.1900 VWN1RPA + 0.8100 LYP
 Using SG-1 standard quadrature grid
 Dispersion:   Grimme D3
 SCF converges when DIIS error is below 1.0E-08
 Geometry optimization detected.  Setting ReadMinima to 0
 Setting SaveMinima to 0
 using 48 threads for integral computing
 -------------------------------------------------------
 OpenMP Integral computing Module                
 Release: version 1.0, May 2013, Q-Chem Inc. Pittsburgh 
 -------------------------------------------------------
 -------------------------------------------------------
 OpenMP BLAS3 based DFT computing Module                
 Release: version 1.0, May 2013, Q-Chem Inc. Pittsburgh 
 -------------------------------------------------------
 ---------------------------------------
  Cycle       Energy         DIIS Error
 ---------------------------------------
    1   -1510.2209962262      3.78E-03
    2   -1510.2699620310      2.34E-04
    3   -1510.2702734159      2.31E-04
    4   -1510.2704140112      1.63E-04
    5   -1510.2705295295      3.08E-05
    6   -1510.2705330097      1.50E-05
    7   -1510.2705338190      7.06E-06
    8   -1510.2705340404      1.32E-06
    9   -1510.2705340484      4.64E-07
   10   -1510.2705340492      3.03E-07
   11   -1510.2705340495      7.01E-08
   12   -1510.2705340495      2.03E-08
   13   -1510.2705340496      9.61E-09 Convergence criterion met
 ---------------------------------------
 SCF time:  CPU 92.45 s  wall 1.93 s
 SCF   energy in the final basis set = -1510.27053405
 Total energy in the final basis set = -1510.27053405
 
 --------------------------------------------------------------
 
                    Orbital Energies (a.u.)
 --------------------------------------------------------------
 
 Alpha MOs
 -- Occupied --
-18.942 -18.941 -18.931 -18.924 -18.888 -18.887 -18.874 -18.873
-18.872 -18.865 -10.104 -10.103 -10.101 -10.096 -10.076 -10.070
-10.061 -10.061 -10.060 -10.058 -10.057 -10.054 -10.040 -10.039
-10.037 -10.036 -10.023 -10.020 -10.020 -10.019  -1.019  -1.015
 -1.006  -1.001  -0.971  -0.970  -0.942  -0.938  -0.933  -0.928
 -0.765  -0.762  -0.730  -0.723  -0.709  -0.704  -0.699  -0.659
 -0.658  -0.616  -0.598  -0.588  -0.545  -0.544  -0.539  -0.537
 -0.515  -0.510  -0.492  -0.472  -0.463  -0.458  -0.455  -0.443
 -0.434  -0.430  -0.430  -0.411  -0.410  -0.408  -0.406  -0.400
 -0.392  -0.386  -0.374  -0.366  -0.364  -0.363  -0.352  -0.346
 -0.344  -0.340  -0.333  -0.332  -0.331  -0.325  -0.319  -0.313
 -0.310  -0.307  -0.306  -0.302  -0.297  -0.295  -0.293  -0.272
 -0.270  -0.249  -0.246  -0.243  -0.241  -0.235  -0.234  -0.188
 -0.180  -0.167  -0.165  -0.157  -0.156  -0.149  -0.148  -0.145
 -0.145
 -- Virtual --
  0.096   0.097   0.105   0.111   0.203   0.239   0.242   0.251
  0.263   0.272   0.281   0.287   0.303   0.314   0.326   0.328
  0.331   0.340   0.342   0.344   0.351   0.351   0.362   0.371
  0.374   0.380   0.385   0.392   0.393   0.399   0.408   0.413
  0.415   0.418   0.419   0.423   0.428   0.429   0.436   0.438
  0.439   0.441   0.443   0.447   0.449   0.452   0.453   0.465
  0.467   0.468   0.487   0.490   0.491   0.504   0.507   0.536
  0.542   0.553   0.554   0.629   0.636   0.649   0.653
 --------------------------------------------------------------
 
          Ground-State Mulliken Net Atomic Charges

     Atom                 Charge (a.u.)
  ----------------------------------------
      1 O                    -0.218283
      2 C                     0.216806
      3 C                    -0.079600
      4 C                    -0.074116
      5 C                     0.219194
      6 O                    -0.164286
      7 C                    -0.045218
      8 C                    -0.052763
      9 O                    -0.169709
     10 C                     0.211533
     11 C                    -0.078754
     12 C                    -0.079910
     13 C                     0.221035
     14 O                    -0.220065
     15 O                    -0.170712
     16 O                    -0.174918
     17 O                    -0.213260
     18 C                    -0.137459
     19 C                     0.025644
     20 C                    -0.143214
     21 C                    -0.144630
     22 C                     0.025845
     23 O                    -0.187532
     24 H                     0.086439
     25 H                     0.085196
     26 H                     0.085077
     27 H                     0.078540
     28 H                     0.074378
     29 H                     0.078100
     30 H                     0.073482
     31 H                     0.086902
     32 O                    -0.221205
     33 C                    -0.135435
     34 C                     0.025269
     35 C                    -0.140529
     36 C                    -0.145814
     37 C                     0.022433
     38 O                    -0.192578
     39 H                     0.082873
     40 H                     0.087118
     41 H                     0.101707
     42 H                     0.089535
     43 H                     0.078483
     44 H                     0.074165
     45 H                     0.079337
     46 H                     0.074056
     47 H                     0.085539
     48 H                     0.085242
     49 H                     0.084774
     50 H                     0.085045
     51 H                     0.083644
     52 H                     0.097572
     53 H                     0.095250
     54 H                     0.102714
     55 H                     0.097651
     56 H                     0.089410
  ----------------------------------------
  Sum of atomic charges =    -0.000000

 -----------------------------------------------------------------
                    Cartesian Multipole Moments
 -----------------------------------------------------------------
    Charge (ESU x 10^10)
                -0.0000
    Dipole Moment (Debye)
         X      -0.2357      Y       0.8572      Z      -1.6537
       Tot       1.8775
    Quadrupole Moments (Debye-Ang)
        XX    -133.3815     XY       0.3233     YY    -159.3699
        XZ       2.3735     YZ      -4.8724     ZZ    -167.6979
    Octopole Moments (Debye-Ang^2)
       XXX      21.1364    XXY     -33.3583    XYY     -12.4195
       YYY      48.1660    XXZ     -37.6573    XYZ      -2.2667
       YYZ      -4.7112    XZZ       6.8458    YZZ      -6.1977
       ZZZ       1.5189
    Hexadecapole Moments (Debye-Ang^3)
      XXXX  -14689.1328   XXXY      59.6339   XXYY   -3035.5124
      XYYY       4.6385   YYYY   -2615.7462   XXXZ      85.8885
      XXYZ     -43.6536   XYYZ       5.9902   YYYZ       6.3866
      XXZZ   -2966.7502   XYZZ      34.3875   YYZZ    -642.5714
      XZZZ     -24.1335   YZZZ     -20.8366   ZZZZ   -1397.5995
 -----------------------------------------------------------------
 Calculating analytic gradient of the SCF energy
 Gradient of SCF Energy
            1           2           3           4           5           6
    1  -0.0025931  -0.0034202   0.0051826  -0.0029235   0.0025044  -0.0016488
    2   0.0018192   0.0015994  -0.0047925   0.0044800  -0.0030964   0.0077046
    3   0.0005183  -0.0023576   0.0030521  -0.0021089   0.0050762  -0.0052288
            7           8           9          10          11          12
    1   0.0004127   0.0028724   0.0010058  -0.0008866  -0.0000945  -0.0014402
    2  -0.0036560  -0.0000265   0.0010252   0.0010324   0.0004373  -0.0015351
    3   0.0011451  -0.0013634   0.0006080  -0.0002103   0.0012767  -0.0011940
           13          14          15          16          17          18
    1   0.0026120  -0.0021811   0.0034348   0.0002628   0.0004889   0.0000899
    2   0.0019027  -0.0020796  -0.0010467   0.0003879  -0.0006602   0.0001237
    3   0.0003747   0.0001535   0.0008324   0.0002583   0.0005073   0.0000910
           19          20          21          22          23          24
    1   0.0000205   0.0001034   0.0002244   0.0004484   0.0003628  -0.0000276
    2  -0.0000825  -0.0002046  -0.0000727   0.0004736   0.0002669   0.0002312
    3  -0.0004950   0.0002427  -0.0000558   0.0005455  -0.0001346  -0.0003622
           25          26          27          28          29          30
    1  -0.0005284  -0.0000422   0.0000294  -0.0000628   0.0000077  -0.0000734
    2  -0.0007950  -0.0000246  -0.0000133   0.0000492   0.0000380   0.0001074
    3  -0.0004299  -0.0000157   0.0000008  -0.0000207  -0.0000063   0.0000125
           31          32          33          34          35          36
    1   0.0001566  -0.0023186   0.0006959   0.0006125  -0.0004271   0.0002586
    2   0.0000344  -0.0034581   0.0000295  -0.0000277  -0.0002294  -0.0004969
    3   0.0000272  -0.0016689   0.0001487  -0.0014149   0.0003986  -0.0001107
           37          38          39          40          41          42
    1  -0.0011034   0.0001659  -0.0007834   0.0004426  -0.0003151   0.0003491
    2  -0.0009905  -0.0001038  -0.0003563   0.0015805  -0.0000610  -0.0002227
    3  -0.0009272  -0.0008850   0.0013227   0.0009260  -0.0001036  -0.0001037
           43          44          45          46          47          48
    1  -0.0000147   0.0000716  -0.0000661  -0.0000531   0.0000575  -0.0000727
    2   0.0000184   0.0001612   0.0000374  -0.0000857   0.0000008  -0.0001768
    3   0.0000484   0.0001521   0.0000080   0.0000280   0.0000033  -0.0000928
           49          50          51          52          53          54
    1  -0.0000069   0.0000755  -0.0000064  -0.0002237   0.0001018  -0.0013095
    2   0.0001763   0.0001668  -0.0000380  -0.0001834   0.0000869   0.0000194
    3  -0.0000629  -0.0000441  -0.0000136   0.0001150   0.0001343   0.0005914
           55          56
    1  -0.0000085  -0.0004189
    2  -0.0010119   0.0015373
    3   0.0002028   0.0006092
 Max gradient component =       7.705E-03
 RMS gradient           =       1.480E-03
 Gradient time:  CPU 30.74 s  wall 0.65 s
 Geometry Optimization Parameters
   NAtoms,    NIC,     NZ,  NCons,   NDum,   NFix, NCnnct, MaxDiis
       56     458       0       0       0       0       0       0

 Cartesian Hessian Update
 Hessian Updated using BFGS Update


** GEOMETRY OPTIMIZATION IN DELOCALIZED INTERNAL COORDINATES **
   Searching for a Minimum

   Optimization Cycle:   3

                       Coordinates (Angstroms)
     ATOM                X               Y               Z
      1  O        -4.2887184585    1.9024138306    2.2248038471
      2  C        -4.0791815098    1.5795813865    1.0336760971
      3  C        -4.6579515614    0.3107482982    0.3184710298
      4  C        -4.0133871463   -0.1710332555   -1.0320923705
      5  C        -2.4421885964   -0.0422332180   -1.1424667294
      6  O        -1.8950859247    0.3515113091    0.1107691688
      7  C        -0.4158473824    0.4539332453    0.1098077625
      8  C         0.3575346523   -0.8460987392   -0.3112957096
      9  O         1.7899209445   -0.4695355992   -0.2406999893
     10  C         2.6336391868   -1.6142099647   -0.3242741386
     11  C         4.1434779136   -1.1919474580   -0.2757846888
     12  C         4.5183685772    0.3331676500   -0.5055466176
     13  C         3.3265494681    1.3446986154   -0.6621771660
     14  O         2.7921822675    2.0476195345    0.2226175096
     15  O        -3.3745302596    2.3979646097    0.0895230777
     16  O         3.0012374564    1.4138747408   -2.0606271398
     17  O         2.2133265919   -2.7907092362   -0.3890385643
     18  C         1.8835346218    2.3578056201   -2.2841511919
     19  C         4.7662783234   -1.4370618660    1.1736629322
     20  C         6.3335157483   -1.5639159611    1.0229631196
     21  C         6.7320599459   -0.0658981095    0.7515346691
     22  C         5.3228628263    0.6441431553    0.8276664314
     23  O         4.5888577565   -0.1353523048    1.8514355129
     24  H         4.6620700244   -1.8232114300   -1.0201666975
     25  H         5.1507592562    0.4238389228   -1.4066023727
     26  H         4.2789384224   -2.2496576174    1.7471883943
     27  H         6.7781949729   -1.9374736430    1.9592018808
     28  H         6.6204766506   -2.2389316348    0.2010504393
     29  H         7.4042964561    0.3228255000    1.5328573035
     30  H         7.2117806833    0.0752781654   -0.2300645949
     31  H         5.3424728518    1.7159986581    1.1038153066
     32  O        -1.7861765107   -0.3287869701   -2.1700639675
     33  C        -2.8363702903    3.6060600846    0.7544591040
     34  C        -4.6879299171   -1.0550449696    1.1488212051
     35  C        -6.0537728837   -1.7527891053    0.7841014521
     36  C        -5.7995309710   -2.0783323010   -0.7374651354
     37  C        -4.2621163332   -1.7373679562   -0.8841418465
     38  O        -3.7075293814   -1.9442459197    0.4800247532
     39  H        -5.7113747147    0.5821542003    0.1075384103
     40  H        -4.4800297943    0.2952350709   -1.9174883675
     41  H        -3.2901581564    3.7105557874    1.7608118841
     42  H        -4.4586583933   -0.9549942530    2.2273990087
     43  H        -6.1828323806   -2.6752961798    1.3732039712
     44  H        -6.9253271979   -1.0989385162    0.9476036960
     45  H        -5.9840037473   -3.1396267652   -0.9663263977
     46  H        -6.4189035456   -1.4619287137   -1.4091583426
     47  H        -3.7115964229   -2.3491447321   -1.6253480718
     48  H        -3.0795665842    4.4836221229    0.1253654741
     49  H        -1.7354109046    3.5168998729    0.8498646898
     50  H         1.0148673202    1.8053033197   -2.6949783997
     51  H         2.2035796169    3.1258626233   -3.0152225184
     52  H         1.6099980803    2.8374405318   -1.3219736942
     53  H         0.1306493139   -1.6873336105    0.3776643742
     54  H         0.0571182670   -1.1334342639   -1.3421509839
     55  H        -0.1526047148    0.7086686869    1.1563784066
     56  H        -0.0990025991    1.2960836105   -0.5434573085
   Point Group: c1    Number of degrees of freedom:   162


   Energy is  -1510.270534050

 Hessian Updated using BFGS Update

152 Hessian modes will be used to form the next step
  Hessian Eigenvalues:
     0.001046    0.002039    0.002079    0.002687    0.003143    0.004060
     0.004290    0.004601    0.004693    0.005022    0.005084    0.006088
     0.006821    0.009691    0.011002    0.011091    0.011527    0.012530
     0.021327    0.022072    0.024179    0.024692    0.027500    0.030607
     0.030836    0.034410    0.035128    0.036740    0.039561    0.041225
     0.042053    0.043406    0.044211    0.044494    0.045832    0.049487
     0.050857    0.051571    0.054616    0.055047    0.055368    0.055807
     0.056317    0.056406    0.056614    0.057794    0.058453    0.059129
     0.060506    0.062013    0.062236    0.063010    0.063818    0.064053
     0.064802    0.069936    0.070601    0.072944    0.074949    0.091759
     0.092646    0.093134    0.094678    0.096214    0.100344    0.100593
     0.101403    0.101858    0.102048    0.104376    0.111577    0.116364
     0.118616    0.125646    0.131144    0.135732    0.141690    0.157588
     0.159986    0.159999    0.160043    0.163826    0.164770    0.177795
     0.215676    0.219480    0.220286    0.226159    0.227951    0.232628
     0.237981    0.239089    0.239483    0.239522    0.243023    0.243651
     0.244802    0.249798    0.249918    0.249970    0.249980    0.250787
     0.252994    0.253219    0.259380    0.259738    0.259993    0.260664
     0.284290    0.290310    0.294433    0.305022    0.307799    0.323629
     0.324718    0.325174    0.326670    0.327197    0.327274    0.327389
     0.327704    0.327957    0.328525    0.328528    0.328579    0.328997
     0.329132    0.329427    0.331063    0.331800    0.332474    0.334478
     0.334489    0.334828    0.334858    0.334998    0.335039    0.335087
     0.335422    0.339483    0.341835    0.345348    0.345883    0.390862
     0.401182    0.404393    0.419236    0.428123    0.823152    0.825496
     0.828730    0.832214

 Minimum Search - Taking Simple RFO Step
 Searching for Lamda that Minimizes Along All modes
 Value Taken    Lamda =  -0.01135624
 Calculated Step too Large.  Step scaled by  0.331398
 Step Taken.  Stepsize is  0.300000

                             Maximum     Tolerance    Cnvgd?
         Gradient           0.005584      0.000300      NO
         Displacement       0.090394      0.001200      NO
         Energy change     -0.003486      0.000001      NO


 New Cartesian Coordinates Obtained by Inverse Iteration

 Displacement from previous Coordinates is:  1.496058
 Adding empirical dispersion correction 
 ----------------------------------------------------------------
 Doing -D3(op) with
 s6 =   1.00000
 s8 =   0.78311
 a1 =   0.30000
 a2 =   4.25000
 n  =  10.00000
 -D3 energy without 3body term =     -0.0684247556 hartrees
 ----------------------------------------------------------------
             Standard Nuclear Orientation (Angstroms)
    I     Atom           X                Y                Z
 ----------------------------------------------------------------
    1      O      -4.1828816821     1.7931720546     2.3153906370
    2      C      -4.0431596631     1.5498732433     1.0960223028
    3      C      -4.6394735490     0.3175204070     0.3371873019
    4      C      -3.9817607715    -0.1160653794    -1.0218145295
    5      C      -2.4167941143     0.0700427849    -1.1089683447
    6      O      -1.8909842899     0.3583758007     0.1816769846
    7      C      -0.4147035300     0.4676530176     0.1723788635
    8      C       0.3382758812    -0.8319287274    -0.2839660058
    9      O       1.7750223169    -0.4742782687    -0.2205060436
   10      C       2.6080548665    -1.6274743765    -0.3025622913
   11      C       4.1192681747    -1.2122200960    -0.2542031735
   12      C       4.4974810105     0.3032381820    -0.5328288410
   13      C       3.3052298974     1.3045533389    -0.7450278971
   14      O       2.7873935375     2.0710728537     0.0956780457
   15      O      -3.4268136650     2.4421378074     0.1582357589
   16      O       2.9753848827     1.2914252850    -2.1442178046
   17      O       2.1777883955    -2.8010859657    -0.3496800457
   18      C       1.8627401379     2.2271973552    -2.4211383741
   19      C       4.7277344061    -1.4066188703     1.2092801765
   20      C       6.2964362096    -1.5370683256     1.0785514300
   21      C       6.6973742894    -0.0490455843     0.7588789892
   22      C       5.2874496379     0.6627010810     0.7951133633
   23      O       4.5430314133    -0.0813917276     1.8382299234
   24      H       4.6431626597    -1.8688421650    -0.9723524281
   25      H       5.1378409793     0.3587551574    -1.4310884820
   26      H       4.2345945594    -2.1982692458     1.8065975371
   27      H       6.7316611608    -1.8770635751     2.0318342520
   28      H       6.5923127144    -2.2404282323     0.2840304612
   29      H       7.3613861939     0.3672656958     1.5329684724
   30      H       7.1876249653     0.0570609280    -0.2219767209
   31      H       5.3030746332     1.7437257149     1.0329251016
   32      O      -1.7346541346    -0.1042479219    -2.1442310340
   33      C      -2.8710864031     3.6218626125     0.8586779636
   34      C      -4.6500711085    -1.0760520081     1.1239108420
   35      C      -6.0029917106    -1.7821473604     0.7296042864
   36      C      -5.7353307751    -2.0546539631    -0.8005212459
   37      C      -4.2018994597    -1.6885215665    -0.9272340570
   38      O      -3.6538384048    -1.9302141947     0.4335391311
   39      H      -5.6963968605     0.5855195064     0.1414497957
   40      H      -4.4519059383     0.3735762251    -1.8929507617
   41      H      -3.2514898005     3.6515952611     1.8998159265
   42      H      -4.4243880704    -1.0060338149     2.2056509764
   43      H      -6.1210034175    -2.7254408303     1.2872621471
   44      H      -6.8856676013    -1.1477814687     0.9089170079
   45      H      -5.9032001132    -3.1103767396    -1.0651605512
   46      H      -6.3593572595    -1.4250981887    -1.4555574576
   47      H      -3.6376133963    -2.2676331959    -1.6841305381
   48      H      -3.1793175655     4.5298973859     0.3058479947
   49      H      -1.7643593420     3.5569379408     0.8696226847
   50      H       0.9872715513     1.6556309632    -2.7895278153
   51      H       2.1834975051     2.9438782314    -3.2023493048
   52      H       1.5996660029     2.7705180700    -1.4904949385
   53      H       0.1066492670    -1.6835564627     0.3905008893
   54      H       0.0314352260    -1.0972885364    -1.3192141782
   55      H      -0.1423738521     0.6900506213     1.2240326744
   56      H      -0.0965640833     1.3243441259    -0.4605911495
 ----------------------------------------------------------------
 Molecular Point Group                 C1    NOp =  1
 Largest Abelian Subgroup              C1    NOp =  1
 Nuclear Repulsion Energy =  3140.0525989289 hartrees
 There are      113 alpha and      113 beta electrons
 Applying Cartesian multipole field
    Component          Value
    ---------          -----
     (2,0,0)        1.00000E-12
     (0,2,0)        2.00000E-11
     (0,0,2)       -3.00000E-11
 Nucleus-field energy     =     0.0000000214 hartrees
 Requested basis set is STO-3G
 There are 86 shells and 176 basis functions
 A cutoff of  1.0D-12 yielded   2127 shell pairs
 There are      9996 function pairs
 Smallest overlap matrix eigenvalue = 2.13E-01
 Guess MOs from SCF MO coefficient file
 Reading MOs from coefficient file
 Reading MOs from coefficient file
 A restricted hybrid HF-DFT SCF calculation will be
 performed using Pulay DIIS extrapolation
 Exchange:     0.2000 Hartree-Fock + 0.0800 Slater + 0.7200 B88
 Correlation:  0.1900 VWN1RPA + 0.8100 LYP
[...]
      6  O        -1.6402097186   -0.8446617838    0.8051516325
      7  C        -0.2150406968   -0.8657590636    1.2167458175
      8  C         0.5495282925   -2.1542222164    0.7203281897
      9  O         2.0005542585   -1.8442766218    0.7092259985
     10  C         2.4222045501   -1.5084124115   -0.6181611880
     11  C         3.8571870224   -0.8729962458   -0.5664470168
     12  C         3.7987061360    0.7212326116   -0.6096463848
     13  C         2.3367537489    1.2775122372   -0.7088168617
     14  O         1.5029761585    1.3639856024    0.2277967665
     15  O        -2.0529388268    1.9805460717    0.1813091092
     16  O         2.0912921316    1.6702423453   -2.0485044716
     17  O         1.7267168237   -1.6820650460   -1.6439374077
     18  C         0.6697438938    2.0686737017   -2.2306131061
     19  C         4.5927221587   -1.1029797567    0.8179032868
     20  C         6.1161855501   -0.7175149458    0.6474736075
     21  C         6.0351324785    0.8541891373    0.6345250396
     22  C         4.4792043143    1.0783568905    0.7799073134
     23  O         4.0507619905   -0.0210470930    1.6727880657
     24  H         4.4378674531   -1.2600324269   -1.4228928788
     25  H         4.3719542110    1.1116296779   -1.4687427512
     26  H         4.4004734170   -2.0913580963    1.2765167305
     27  H         6.7037950303   -1.0851469974    1.5035093289
     28  H         6.5471975950   -1.1288847242   -0.2793446929
     29  H         6.5676423321    1.2930848850    1.4933227992
     30  H         6.4355350051    1.2948265031   -0.2924773638
     31  H         4.1760694355    2.0568404153    1.1999988724
     32  O        -0.7976118050   -0.3002752310   -1.3443464771
     33  C        -1.0778548315    2.6761626312    1.0560361506
     34  C        -5.1350124233   -0.2244616210    0.6746828426
     35  C        -6.2516798916   -0.6354825076   -0.3629347627
     36  C        -5.4820081089   -1.7025276507   -1.2283858352
     37  C        -4.0731850400   -1.7200289166   -0.5105166467
     38  O        -4.4024086485   -1.4900007600    0.9130042064
     39  H        -4.5639450203    1.4208399936   -0.7343353756
     40  H        -3.3693240423   -0.1983440124   -2.0098870844
     41  H        -1.2841768823    2.4357848479    2.1172370483
     42  H        -5.4937203026    0.1999122377    1.6325928109
     43  H        -7.1149137407   -1.0824434200    0.1554435767
     44  H        -6.6013217801    0.2230112791   -0.9582360809
     45  H        -5.9583723308   -2.6939702821   -1.1676413547
     46  H        -5.4016991580   -1.4134292498   -2.2884276669
     47  H        -3.4938335486   -2.6562864707   -0.6290401092
     48  H        -1.1664884153    3.7709507483    0.9069590014
     49  H        -0.0637089804    2.3273452694    0.7583511298
     50  H        -0.0086221766    1.2317347957   -1.9355493412
     51  H         0.5612719256    2.2902048817   -3.3075473314
     52  H         0.4298057664    2.9761005957   -1.6411483499
     53  H         0.3937035602   -3.0135746167    1.4018383596
     54  H         0.2285900315   -2.4140905444   -0.3115091822
     55  H        -0.2320031698   -0.8293545864    2.3232513597
     56  H         0.3347589570    0.0254175482    0.8268859129
   Point Group: c1    Number of degrees of freedom:   162


   Energy is  -1510.300001920

 Hessian Updated using BFGS Update

162 Hessian modes will be used to form the next step
  Hessian Eigenvalues:
     0.001599    0.002407    0.002768    0.003911    0.004773    0.005676
     0.006684    0.007359    0.009599    0.010327    0.013687    0.017045
     0.021016    0.021804    0.022465    0.026190    0.028517    0.028958
     0.030739    0.031009    0.031553    0.032501    0.034590    0.035903
     0.040061    0.041168    0.042952    0.043524    0.044018    0.046570
     0.048177    0.048292    0.049148    0.050020    0.051651    0.052138
     0.053104    0.055751    0.056056    0.056340    0.056513    0.057153
     0.058228    0.059076    0.059636    0.061486    0.062785    0.063339
     0.063923    0.064323    0.065027    0.065253    0.069988    0.070710
     0.072569    0.072850    0.074587    0.077779    0.085856    0.092389
     0.092563    0.093208    0.094431    0.100658    0.102741    0.103290
     0.104468    0.107063    0.108028    0.110509    0.112253    0.115188
     0.122400    0.130435    0.135532    0.143815    0.148411    0.149705
     0.160234    0.161840    0.162013    0.163084    0.165554    0.166159
     0.167654    0.178235    0.193819    0.199732    0.211740    0.219417
     0.224308    0.228975    0.233697    0.236983    0.238127    0.239622
     0.240426    0.242462    0.243704    0.247128    0.248637    0.250274
     0.252299    0.254180    0.254835    0.257336    0.258330    0.261036
     0.264218    0.269690    0.275426    0.276826    0.291453    0.295436
     0.298067    0.306038    0.309354    0.319523    0.325321    0.326377
     0.326444    0.327229    0.328201    0.328221    0.328483    0.328685
     0.328859    0.329054    0.329108    0.329405    0.329777    0.330861
     0.331627    0.332404    0.332813    0.333141    0.333752    0.334745
     0.334881    0.334900    0.335101    0.335259    0.335695    0.336429
     0.337514    0.340224    0.355442    0.366933    0.374983    0.394204
     0.406152    0.428221    0.464496    0.509873    0.625996    0.824461
     0.826747    0.827043    0.833303    1.074037    1.505361    2.796435

 Minimum Search - Taking Simple RFO Step
 Searching for Lamda that Minimizes Along All modes
 Value Taken    Lamda =   0.00000000
 Step Taken.  Stepsize is  0.005345

                             Maximum     Tolerance    Cnvgd?
         Gradient           0.000130      0.000300     YES
         Displacement       0.001503      0.001200      NO
         Energy change     -0.000001      0.000001     YES

 Final energy is   -1510.30000192047     


 ******************************
 **  OPTIMIZATION CONVERGED  **
 ******************************

                       Coordinates (Angstroms)
     ATOM                X               Y               Z
      1  O        -3.3177526110    1.6124053140    2.1629645822
      2  C        -3.1517567810    1.4577217060    0.9347665851
      3  C        -4.0745443361    0.6828254004   -0.0723880932
      4  C        -3.2892095238   -0.4001520642   -0.9274658277
      5  C        -1.7662295234   -0.4790031056   -0.5700545743
      6  O        -1.6402097186   -0.8446617838    0.8051516325
      7  C        -0.2150406968   -0.8657590636    1.2167458175
      8  C         0.5495282925   -2.1542222164    0.7203281897
      9  O         2.0005542585   -1.8442766218    0.7092259985
     10  C         2.4222045501   -1.5084124115   -0.6181611880
     11  C         3.8571870224   -0.8729962458   -0.5664470168
     12  C         3.7987061360    0.7212326116   -0.6096463848
     13  C         2.3367537489    1.2775122372   -0.7088168617
     14  O         1.5029761585    1.3639856024    0.2277967665
     15  O        -2.0529388268    1.9805460717    0.1813091092
     16  O         2.0912921316    1.6702423453   -2.0485044716
     17  O         1.7267168237   -1.6820650460   -1.6439374077
     18  C         0.6697438938    2.0686737017   -2.2306131061
     19  C         4.5927221587   -1.1029797567    0.8179032868
     20  C         6.1161855501   -0.7175149458    0.6474736075
     21  C         6.0351324785    0.8541891373    0.6345250396
     22  C         4.4792043143    1.0783568905    0.7799073134
     23  O         4.0507619905   -0.0210470930    1.6727880657
     24  H         4.4378674531   -1.2600324269   -1.4228928788
     25  H         4.3719542110    1.1116296779   -1.4687427512
     26  H         4.4004734170   -2.0913580963    1.2765167305
     27  H         6.7037950303   -1.0851469974    1.5035093289
     28  H         6.5471975950   -1.1288847242   -0.2793446929
     29  H         6.5676423321    1.2930848850    1.4933227992
     30  H         6.4355350051    1.2948265031   -0.2924773638
     31  H         4.1760694355    2.0568404153    1.1999988724
     32  O        -0.7976118050   -0.3002752310   -1.3443464771
     33  C        -1.0778548315    2.6761626312    1.0560361506
     34  C        -5.1350124233   -0.2244616210    0.6746828426
     35  C        -6.2516798916   -0.6354825076   -0.3629347627
     36  C        -5.4820081089   -1.7025276507   -1.2283858352
     37  C        -4.0731850400   -1.7200289166   -0.5105166467
     38  O        -4.4024086485   -1.4900007600    0.9130042064
     39  H        -4.5639450203    1.4208399936   -0.7343353756
     40  H        -3.3693240423   -0.1983440124   -2.0098870844
     41  H        -1.2841768823    2.4357848479    2.1172370483
     42  H        -5.4937203026    0.1999122377    1.6325928109
     43  H        -7.1149137407   -1.0824434200    0.1554435767
     44  H        -6.6013217801    0.2230112791   -0.9582360809
     45  H        -5.9583723308   -2.6939702821   -1.1676413547
     46  H        -5.4016991580   -1.4134292498   -2.2884276669
     47  H        -3.4938335486   -2.6562864707   -0.6290401092
     48  H        -1.1664884153    3.7709507483    0.9069590014
     49  H        -0.0637089804    2.3273452694    0.7583511298
     50  H        -0.0086221766    1.2317347957   -1.9355493412
     51  H         0.5612719256    2.2902048817   -3.3075473314
     52  H         0.4298057664    2.9761005957   -1.6411483499
     53  H         0.3937035602   -3.0135746167    1.4018383596
     54  H         0.2285900315   -2.4140905444   -0.3115091822
     55  H        -0.2320031698   -0.8293545864    2.3232513597
     56  H         0.3347589570    0.0254175482    0.8268859129

Z-matrix Print:
$molecule
0 1
O 
C  1 1.428558
O  2 1.252873 1 124.280580
C  1 1.483564 2 110.821463 3 4.982298 0
H  4 1.107234 1 105.192883 2 162.252903 0
H  4 1.117348 1 111.379638 2 43.988935 0
C  2 1.566342 1 108.561244 3 177.944126 0
H  7 1.103984 2 107.667171 1 -175.458706 0
C  4 1.578333 1 112.935720 2 -77.275107 0
H  9 1.107801 4 111.816328 1 -83.401897 0
H  9 1.111405 4 110.059561 1 39.728251 0
O  9 1.483801 4 107.791002 1 158.396614 0
C  12 1.432672 9 110.103154 4 -98.850809 0
O  13 1.251429 12 124.287878 9 -11.626247 0
C  13 1.570224 12 109.470071 9 167.209062 0
H  15 1.104756 13 108.242941 12 140.054650 0
C  15 1.584402 13 113.221567 12 14.628575 0
H  17 1.106426 15 114.278216 13 37.031419 0
O  17 1.481596 15 103.199040 13 -82.950220 0
C  19 1.479692 17 95.076091 15 -57.513121 0
H  20 1.107157 19 110.390015 17 179.554949 0
C  20 1.578702 19 103.617499 17 -56.225661 0
H  22 1.101694 20 110.366759 19 -82.662004 0
H  22 1.101734 20 112.264369 19 155.881146 0
C  22 1.573846 20 101.057918 19 35.432243 0
H  25 1.101470 22 111.541744 20 -118.185545 0
H  25 1.101812 22 112.710490 20 119.221149 0
C  7 1.587687 2 113.103529 1 60.819577 0
H  28 1.105601 7 110.599159 2 122.496708 0
C  28 1.570465 7 113.035998 2 0.818752 0
O  30 1.248980 28 127.854178 7 -127.238271 0
O  30 1.431239 28 107.082514 7 53.027705 0
C  32 1.483179 30 111.443530 28 -177.061340 0
H  33 1.107474 32 109.928495 30 13.358372 0
H  33 1.108441 32 109.350041 30 -106.476381 0
H  33 1.113006 32 107.116102 30 134.029806 0
C  28 1.582996 7 101.220573 2 -119.077655 0
H  37 1.107410 28 113.927623 7 154.397913 0
O  37 1.481585 28 103.546172 7 34.469073 0
C  39 1.479092 37 95.053845 28 -56.477485 0
H  40 1.107373 39 110.545408 37 -179.903933 0
C  37 1.578776 28 108.232429 7 -74.908317 0
H  42 1.101655 37 112.132548 28 -46.383512 0
H  42 1.101664 37 110.523497 28 -167.925981 0
C  42 1.574797 37 101.063825 28 73.902062 0
H  45 1.101622 42 111.602295 37 118.347519 0
H  45 1.101688 42 112.743789 37 -118.964824 0
C  20 1.587915 19 103.701174 17 56.554973 0
H  48 1.104115 20 112.263549 19 -151.857407 0
C  48 1.567350 20 112.041460 19 86.365722 0
O  50 1.256944 48 126.583941 20 -35.368544 0
O  50 1.417481 48 108.642187 20 144.948704 0
C  52 1.487518 50 110.818231 48 173.859870 0
H  53 1.104821 52 105.477986 50 -176.337059 0
H  53 1.108360 52 111.165401 50 65.125407 0
H  53 1.117009 52 110.324828 50 -57.144226 0
$end

 
 --------------------------------------------------------------
 
                    Orbital Energies (a.u.)
 --------------------------------------------------------------
 
 Alpha MOs
 -- Occupied --
-18.943 -18.932 -18.930 -18.924 -18.888 -18.885 -18.883 -18.876
-18.874 -18.872 -10.109 -10.101 -10.097 -10.095 -10.061 -10.061
-10.059 -10.059 -10.055 -10.053 -10.046 -10.041 -10.039 -10.038
-10.036 -10.035 -10.021 -10.020 -10.019 -10.018  -1.018  -1.013
 -1.008  -1.000  -0.970  -0.967  -0.941  -0.937  -0.932  -0.930
 -0.765  -0.761  -0.726  -0.722  -0.711  -0.704  -0.688  -0.658
 -0.649  -0.612  -0.595  -0.578  -0.548  -0.543  -0.538  -0.535
 -0.514  -0.507  -0.480  -0.476  -0.462  -0.460  -0.451  -0.441
 -0.433  -0.431  -0.427  -0.418  -0.412  -0.406  -0.401  -0.397
 -0.380  -0.378  -0.369  -0.366  -0.362  -0.359  -0.352  -0.349
 -0.343  -0.337  -0.332  -0.329  -0.326  -0.323  -0.317  -0.311
 -0.308  -0.305  -0.303  -0.301  -0.291  -0.286  -0.282  -0.279
 -0.271  -0.259  -0.245  -0.242  -0.237  -0.234  -0.232  -0.190
 -0.176  -0.170  -0.161  -0.159  -0.156  -0.151  -0.148  -0.143
 -0.141
 -- Virtual --
  0.086   0.095   0.099   0.114   0.221   0.234   0.238   0.258
  0.267   0.281   0.286   0.291   0.304   0.321   0.328   0.334
  0.340   0.342   0.346   0.351   0.354   0.357   0.364   0.369
  0.379   0.381   0.387   0.401   0.403   0.407   0.409   0.412
  0.413   0.417   0.419   0.430   0.433   0.434   0.438   0.439
  0.442   0.447   0.451   0.454   0.460   0.466   0.468   0.471
  0.482   0.490   0.491   0.493   0.501   0.509   0.515   0.535
  0.539   0.551   0.555   0.638   0.648   0.650   0.655
 --------------------------------------------------------------
 
          Ground-State Mulliken Net Atomic Charges

     Atom                 Charge (a.u.)
  ----------------------------------------
      1 O                    -0.211555
      2 C                     0.214320
      3 C                    -0.077913
      4 C                    -0.078732
      5 C                     0.219444
      6 O                    -0.168194
      7 C                    -0.062445
      8 C                    -0.056825
      9 O                    -0.169076
     10 C                     0.205292
     11 C                    -0.077414
     12 C                    -0.078440
     13 C                     0.219221
     14 O                    -0.221831
     15 O                    -0.178738
     16 O                    -0.161435
     17 O                    -0.206691
     18 C                    -0.143522
     19 C                     0.026067
     20 C                    -0.144486
     21 C                    -0.143718
     22 C                     0.025465
     23 O                    -0.184744
     24 H                     0.085958
     25 H                     0.087836
     26 H                     0.089407
     27 H                     0.078247
     28 H                     0.073410
     29 H                     0.078280
     30 H                     0.073649
     31 H                     0.084179
     32 O                    -0.218870
     33 C                    -0.150253
     34 C                     0.024575
     35 C                    -0.143954
     36 C                    -0.143941
     37 C                     0.026177
     38 O                    -0.185375
     39 H                     0.083838
     40 H                     0.084349
     41 H                     0.094574
     42 H                     0.090342
     43 H                     0.077926
     44 H                     0.072728
     45 H                     0.077706
     46 H                     0.073313
     47 H                     0.082305
     48 H                     0.075498
     49 H                     0.109790
     50 H                     0.119894
     51 H                     0.086728
     52 H                     0.081316
     53 H                     0.085905
     54 H                     0.099945
     55 H                     0.089456
     56 H                     0.111009
  ----------------------------------------
  Sum of atomic charges =     0.000000

 -----------------------------------------------------------------
                    Cartesian Multipole Moments
 -----------------------------------------------------------------
    Charge (ESU x 10^10)
                 0.0000
    Dipole Moment (Debye)
         X       1.0634      Y       0.5720      Z      -2.0230
       Tot       2.3559
    Quadrupole Moments (Debye-Ang)
        XX    -138.2249     XY       0.2536     YY    -153.5980
        XZ       7.9893     YZ      -2.0085     ZZ    -168.9881
    Octopole Moments (Debye-Ang^2)
       XXX      38.9383    XXY       4.0600    XYY      10.6675
       YYY      14.2519    XXZ     -50.5492    XYZ      -1.9323
       YYZ      -1.6426    XZZ       1.1972    YZZ       6.0136
       ZZZ     -11.5417
    Hexadecapole Moments (Debye-Ang^3)
      XXXX  -12057.0767   XXXY    -226.4642   XXYY   -2466.5218
      XYYY    -204.8255   YYYY   -1990.5829   XXXZ     -36.9736
      XXYZ      18.4947   XYYZ       1.0728   YYYZ     -13.3502
      XXZZ   -2440.1450   XYZZ     -59.3368   YYZZ    -571.8298
      XZZZ     -87.9182   YZZZ     -51.2843   ZZZZ   -1347.3122
 -----------------------------------------------------------------
Archival summary:
1\1\vega02.cac.cornell.edu\OPT\ProcedureUnspecified\STO-3G\102026\jj585\WedJan1708:55:172018WedJan1708:55:172018\0\\#,OPT,ProcedureUnspecified,STO-3G,\\0,1\O\C,1,1.42856\O,2,1.25287,1,124.281\C,1,1.48356,2,110.821,3,4.9823,0\H,4,1.10723,1,105.193,2,162.253,0\H,4,1.11735,1,111.38,2,43.9889,0\C,2,1.56634,1,108.561,3,177.944,0\H,7,1.10398,2,107.667,1,-175.459,0\C,4,1.57833,1,112.936,2,-77.2751,0\H,9,1.1078,4,111.816,1,-83.4019,0\H,9,1.11141,4,110.06,1,39.7283,0\O,9,1.4838,4,107.791,1,158.397,0\C,12,1.43267,9,110.103,4,-98.8508,0\O,13,1.25143,12,124.288,9,-11.6262,0\C,13,1.57022,12,109.47,9,167.209,0\H,15,1.10476,13,108.243,12,140.055,0\C,15,1.5844,13,113.222,12,14.6286,0\H,17,1.10643,15,114.278,13,37.0314,0\O,17,1.4816,15,103.199,13,-82.9502,0\C,19,1.47969,17,95.0761,15,-57.5131,0\H,20,1.10716,19,110.39,17,179.555,0\C,20,1.5787,19,103.617,17,-56.2257,0\H,22,1.10169,20,110.367,19,-82.662,0\H,22,1.10173,20,112.264,19,155.881,0\C,22,1.57385,20,101.058,19,35.4322,0\H,25,1.10147,22,111.542,20,-118.186,0\H,25,1.10181,22,112.71,20,119.221,0\C,7,1.58769,2,113.104,1,60.8196,0\H,28,1.1056,7,110.599,2,122.497,0\C,28,1.57047,7,113.036,2,0.818752,0\O,30,1.24898,28,127.854,7,-127.238,0\O,30,1.43124,28,107.083,7,53.0277,0\C,32,1.48318,30,111.444,28,-177.061,0\H,33,1.10747,32,109.928,30,13.3584,0\H,33,1.10844,32,109.35,30,-106.476,0\H,33,1.11301,32,107.116,30,134.03,0\C,28,1.583,7,101.221,2,-119.078,0\H,37,1.10741,28,113.928,7,154.398,0\O,37,1.48159,28,103.546,7,34.4691,0\C,39,1.47909,37,95.0538,28,-56.4775,0\H,40,1.10737,39,110.545,37,-179.904,0\C,37,1.57878,28,108.232,7,-74.9083,0\H,42,1.10166,37,112.133,28,-46.3835,0\H,42,1.10166,37,110.523,28,-167.926,0\C,42,1.5748,37,101.064,28,73.9021,0\H,45,1.10162,42,111.602,37,118.348,0\H,45,1.10169,42,112.744,37,-118.965,0\C,20,1.58792,19,103.701,17,56.555,0\H,48,1.10411,20,112.264,19,-151.857,0\C,48,1.56735,20,112.041,19,86.3657,0\O,50,1.25694,48,126.584,20,-35.3685,0\O,50,1.41748,48,108.642,20,144.949,0\C,52,1.48752,50,110.818,48,173.86,0\H,53,1.10482,52,105.478,50,-176.337,0\H,53,1.10836,52,111.165,50,65.1254,0\H,53,1.11701,52,110.325,50,-57.1442,0\\\@

 Total job time:  185.14s(wall), 8828.41s(cpu) 
 Wed Jan 17 08:55:17 2018

        *************************************************************
        *                                                           *
        *  Thank you very much for using Q-Chem.  Have a nice day.  *
        *                                                           *
        *************************************************************


0 sent ACK to 0 
now end server 0 ... 
