mFile = /opt/software/qchem/qchem-5.0.1//bin/mpi/machines
Process 0 of 1 is on vega02.cac.cornell.edu - thread support 0
initial socket setup ...start
initial socket setup ...done 
now start server 0 ... 
vega02.cac.cornell.edu 10.84.3
Q-Chem Developer Version! Running on 10.84.3.*
                  Welcome to Q-Chem
     A Quantum Leap Into The Future Of Chemistry


 Q-Chem 5.0, Q-Chem, Inc., Pleasanton, CA (2017)

 Yihan Shao,  Zhengting Gan,  E. Epifanovsky,  A. T. B. Gilbert,  M. Wormit,  
 J. Kussmann,  A. W. Lange,  A. Behn,  Jia Deng,  Xintian Feng,  D. Ghosh,  
 M. Goldey,  P. R. Horn,  L. D. Jacobson,  I. Kaliman,  T. Kus,  A. Landau,  
 Jie Liu,  E. I. Proynov,  R. M. Richard,  R. P. Steele,  E. J. Sundstrom,  
 H. L. Woodcock III,  P. M. Zimmerman,  D. Zuev,  B. Albrecht,  E. Alguire,  
 S. A. Baeppler,  Z. Benda,  Y. A. Bernard,  E. J. Berquist,  K. B. Bravaya,  
 D. Casanova,  Chun-Min Chang,  Yunqing Chen,  A. Chien,  K. D. Closser,  
 M. P. Coons,  S. Dasgupta,  M. Diedenhofen,  Hainam Do,  R. G. Edgar,  
 Po-Tung Fang,  S. Fatehi,  Qingguo Feng,  Qinghui Ge,  A. Ghysels,  
 J. Gomes,  J. Gonthier,  A. Gunina,  M. W. D. Hanson-Heine,  
 P. H. P. Harbach,  A. W. Hauser,  J. E. Herr,  E. G. Hohenstein,  
 Z. C. Holden,  Kerwin Hui,  T.-C. Jagau,  Hyunjun Ji,  B. Kaduk,  
 K. Khistyaev,  Jaehoon Kim,  P. Klunzinger,  K. Koh,  D. Kosenkov,  
 T. Kowalczyk,  C. M. Krauter,  A. Kunitsa,  Ka Un Lao,  A. Laurent,  
 K. V. Lawler,  Joonho Lee,  D. Lefrancois,  S. Lehtola,  D. S. Levine,  
 Yi-Pei Li,  You-Sheng Lin,  Fenglai Liu,  E. Livshits,  A. Luenser,  
 P. Manohar,  E. Mansoor,  S. F. Manzer,  Shan-Ping Mao,  Yuezhi Mao,  
 N. Mardirossian,  A. V. Marenich,  L. A. Martinez-Martinez,  S. A. Maurer,  
 N. J. Mayhall,  S. C. McKenzie,  J.-M. Mewes,  A. F. Morrison,  K. Nanda,  
 T. S. Nguyen-Beck,  R. Olivares-Amaya,  J. A. Parkhill,  T. M. Perrine,  
 F. Plasser,  S. Prager,  A. Prociuk,  D. R. Rehn,  F. Rob,  M. Schneider,  
 N. Sergueev,  S. M. Sharada,  S. Sharma,  D. W. Small,  T. Stauch,  
 T. Stein,  Yu-Chuan Su,  A. J. W. Thom,  T. Tsuchimochi,  L. Vogt,  
 O. Vydrov,  M. A. Watson,  J. Wenzel,  M. de Wergifosse,  T. A. Wesolowski,  
 A. White,  J. Witte,  A. Yamada,  Jun Yang,  K. Yao,  S. Yeganeh,  
 S. R. Yost,  Zhi-Qiang You,  A. Zech,  Igor Ying Zhang,  Xing Zhang,  
 Yan Zhao,  Ying Zhu,  B. R. Brooks,  G. K. L. Chan,  C. J. Cramer,  
 M. S. Gordon,  W. J. Hehre,  A. Klamt,  M. W. Schmidt,  C. D. Sherrill,  
 D. G. Truhlar,  A. Aspuru-Guzik,  R. Baer,  A. T. Bell,  N. A. Besley,  
 Jeng-Da Chai,  A. Dreuw,  B. D. Dunietz,  T. R. Furlani,  Chao-Ping Hsu,  
 Yousung Jung,  Jing Kong,  D. S. Lambrecht,  WanZhen Liang,  C. Ochsenfeld,  
 V. A. Rassolov,  L. V. Slipchenko,  J. E. Subotnik,  T. Van Voorhis,  
 J. M. Herbert,  A. I. Krylov,  P. M. W. Gill,  M. Head-Gordon

 Contributors to earlier versions of Q-Chem not listed above: 
 R. D. Adamson,  B. Austin,  J. Baker,  G. J. O. Beran,  K. Brandhorst,  
 S. T. Brown,  E. F. C. Byrd,  A. K. Chakraborty,  C.-L. Cheng,  
 Siu Hung Chien,  D. M. Chipman,  D. L. Crittenden,  H. Dachsel,  
 R. A. DiStasio Jr.,  R. J. Doerksen,  A. D. Dutoi,  L. Fusti-Molnar,  
 W. A. Goddard III,  A. Golubeva-Zadorozhnaya,  S. R. Gwaltney,  G. Hawkins,  
 A. Heyden,  S. Hirata,  G. Kedziora,  F. J. Keil,  C. Kelley,  Jihan Kim,  
 R. A. King,  R. Z. Khaliullin,  P. P. Korambath,  W. Kurlancheek,  
 A. M. Lee,  M. S. Lee,  S. V. Levchenko,  Ching Yeh Lin,  D. Liotard,  
 R. C. Lochan,  I. Lotan,  P. E. Maslen,  N. Nair,  D. P. O'Neill,  
 D. Neuhauser,  E. Neuscamman,  C. M. Oana,  R. Olson,  B. Peters,  
 R. Peverati,  P. A. Pieniazek,  Y. M. Rhee,  J. Ritchie,  M. A. Rohrdanz,  
 E. Rosta,  N. J. Russ,  H. F. Schaefer III,  N. E. Schultz,  N. Shenvi,  
 A. C. Simmonett,  A. Sodt,  D. Stuck,  K. S. Thanthiriwatte,  V. Vanovschi,  
 Tao Wang,  A. Warshel,  C. F. Williams,  Q. Wu,  X. Xu,  W. Zhang

 Please cite Q-Chem as follows:
 Y. Shao et al., Mol. Phys. 113, 184-215 (2015)
 DOI: 10.1080/00268976.2014.952696

 Q-Chem 5.0.1 for Intel X86 EM64T Linux

 Parts of Q-Chem use Armadillo 5.200.1 (Boston Tea Smuggler).
 http://arma.sourceforge.net/

 Q-Chem begins on Wed Jan 17 08:50:53 2018  

Host: vega02.cac.cornell.edu
0

     Scratch files written to /scratch/jj585/SOT1001/1443c.save//
 Parallel job on  1  processors

Checking the input file for inconsistencies... 	...done.

--------------------------------------------------------------
User input:
--------------------------------------------------------------
$molecule
0  1
O -3.94934 -3.66094 2.70899
C -3.26408 -4.56952 2.26188
C -3.36658 -6.02376 2.66595
C -2.35212 -6.9985 2.04579
C -1.23757 -6.38279 1.22923
O -1.39218 -5.02661 1.18125
C -0.44166 -4.38135 0.32721
C 0.96324 -4.8981 0.61934
O 1.90723 -4.27755 -0.26761
C 3.21325 -4.48116 0.03569
C 4.15441 -3.85179 -0.96369
C 3.49621 -3.39413 -2.2735
C 1.98377 -3.29988 -2.25526
O 1.33899 -2.31079 -1.9382
O -3.53591 -4.55627 0.90017
O 1.36115 -4.27888 -2.97131
O 3.6035 -4.98194 1.08297
C 0.02839 -4.3148 -3.3361
C 4.8104 -2.54912 -0.48033
C 6.11533 -2.32446 -1.24192
C 5.5836 -1.98511 -2.62083
C 4.07603 -1.9646 -2.33844
O 3.98743 -1.53426 -0.99981
H 4.93345 -4.61994 -1.17191
H 3.80033 -4.01034 -3.14943
H 4.98818 -2.52628 0.61695
H 6.59084 -1.41457 -0.81025
H 6.83942 -3.16675 -1.20753
H 5.94662 -0.96985 -2.8955
H 5.83922 -2.71205 -3.42192
H 3.55085 -1.33389 -3.08964
O -0.77889 -7.04075 0.30123
C -3.74216 -3.44934 0.08757
C -3.03263 -6.19472 4.16019
C -3.62559 -7.5022 4.68548
C -2.69918 -8.51018 4.03983
C -1.72179 -7.57159 3.3266
O -1.65088 -6.45232 4.17515
H -4.41804 -6.34331 2.48087
H -2.83782 -7.79241 1.43412
H -3.60124 -2.49148 0.6329
H -3.37751 -5.34245 4.78626
H -3.46284 -7.52832 5.78677
H -4.70664 -7.64133 4.46887
H -2.16845 -9.06575 4.84501
H -3.18527 -9.22651 3.34269
H -0.76 -8.09577 3.12937
H -4.77001 -3.48688 -0.32772
H -3.01999 -3.47474 -0.75371
H -0.43069 -5.24802 -2.95097
H -0.04251 -4.32475 -4.44309
H -0.54512 -3.44379 -2.95361
H 1.18121 -4.60259 1.67114
H 1.14686 -5.98356 0.54084
H -0.50179 -3.28103 0.46444
H -0.69491 -4.61333 -0.72418
$end

$opt
CONSTRAINT
tors           1           2           3           4    -176.358
tors           3           4           5           6      -1.675
tors           4           5           6           7    -174.801
tors           5           6           7           8     -47.506
tors           6           7           8           9    +178.257
tors           7           8           9          10    +169.388
tors           8           9          10          11    +177.657
tors           9          10          11          12     -13.382
tors          11          12          13          14     +89.466
ENDCONSTRAINT
$end

$rem
JOBTYPE                   OPT
METHOD                    B3LYP
DFT_D                     d3_op
BASIS                     STO-3G
GEOM_OPT_MAX_CYCLES       100
GEOM_OPT_TOL_GRADIENT     300
GEOM_OPT_TOL_DISPLACEMENT 1200
GEOM_OPT_TOL_ENERGY       100
SYMMETRY                  False
THRESH                    12
SCF_CONVERGENCE           8
MAX_SUB_FILE_NUM          128
MEM_STATIC                400
MEM_TOTAL                 4000
$end
--------------------------------------------------------------
 Adding empirical dispersion correction 
 ----------------------------------------------------------------
 Doing -D3(op) with
 s6 =   1.00000
 s8 =   0.78311
 a1 =   0.30000
 a2 =   4.25000
 n  =  10.00000
 -D3 energy without 3body term =     -0.0701864198 hartrees
 ----------------------------------------------------------------
             Standard Nuclear Orientation (Angstroms)
    I     Atom           X                Y                Z
 ----------------------------------------------------------------
    1      O      -4.0519356670     1.7367825845     2.1579182011
    2      C      -3.6466245544     1.1730043579     1.1514971911
    3      C      -4.4931211470     0.3422724673     0.2123907875
    4      C      -3.7720395070    -0.3543786759    -0.9531837652
    5      C      -2.2608571080    -0.2881515818    -0.9474856101
    6      O      -1.8324452301     0.4419988095     0.1243232319
    7      C      -0.4161858872     0.6502040563     0.1339725102
    8      C       0.3101998023    -0.6645746670    -0.1302910864
    9      O       1.7289006419    -0.4425561267    -0.1598785908
   10      C       2.4943626916    -1.5620181813    -0.1628317974
   11      C       3.9722133376    -1.2640323901    -0.2512120173
   12      C       4.3191600584     0.1802308215    -0.6411016174
   13      C       3.1878789704     1.1830967106    -0.5354909079
   14      O       2.9115586772     1.8377587729     0.4593115850
   15      O      -3.1481572957     2.2043887490     0.3665781728
   16      O       2.7031090032     1.5971205842    -1.7406492286
   17      O       2.0608801360    -2.6890735559     0.0413987731
   18      C       1.8566370622     2.6660856320    -1.9673873768
   19      C       4.7270166330    -1.4107616424     1.0790704378
   20      C       6.2051229496    -1.6745197877     0.7980595725
   21      C       6.6389685359    -0.3208165114     0.2702779411
   22      C       5.3469447453     0.4812253534     0.4711148122
   23      O       4.7551331725    -0.1074794440     1.6060855062
   24      H       4.3803278798    -1.9751504497    -1.0049141720
   25      H       4.7660812385     0.2589469766    -1.6577246198
   26      H       4.3066516561    -2.2004818237     1.7392114180
   27      H       6.6971429302    -1.8468991475     1.7822090815
   28      H       6.4176299139    -2.5347172645     0.1273565567
   29      H       7.4493032269     0.0670975652     0.9266774800
   30      H       6.9675667001    -0.3067217432    -0.7914909227
   31      H       5.5745883070     1.5676225347     0.5474702288
   32      O      -1.6848270537    -0.2947824240    -2.0303651567
   33      C      -2.4613274523     3.3350266089     0.7885670866
   34      C      -5.0730094308    -0.8817157168     0.9466152798
   35      C      -6.3010329492    -1.4077984410     0.2034932834
   36      C      -5.6470410635    -2.0466325519    -1.0028684713
   37      C      -4.1698248516    -1.8137366508    -0.6734277397
   38      O      -4.1217943350    -1.8936492357     0.7298319339
   39      H      -5.3259560752     0.9924437307    -0.1420076480
   40      H      -4.1344817630    -0.0116156270    -1.9489181025
   41      H      -2.2656116161     3.3280319926     1.8823611356
   42      H      -5.3315447174    -0.6735535715     2.0082640160
   43      H      -6.7538212858    -2.2120477205     0.8265304410
   44      H      -7.0708269813    -0.6389799544    -0.0229607610
   45      H      -5.8693173593    -3.1370368864    -0.9867804043
   46      H      -5.9358837559    -1.6158551570    -1.9859336124
   47      H      -3.5335082784    -2.5411567073    -1.2253929829
   48      H      -3.0489183513     4.2387643582     0.5271370308
   49      H      -1.4846869624     3.3850024271     0.2654968442
   50      H       0.9474196867     2.3072711778    -2.4913674175
   51      H       2.3688112149     3.3988574633    -2.6241032614
   52      H       1.5557272524     3.1817362649    -1.0306758676
   53      H       0.0490106983    -1.3309366271     0.7234432464
   54      H       0.0733813283    -1.2144372006    -1.0574750868
   55      H      -0.1093393492     1.0905527712     1.1061299066
   56      H      -0.1577669428     1.3671376493    -0.6676490261
 ----------------------------------------------------------------
 Molecular Point Group                 C1    NOp =  1
 Largest Abelian Subgroup              C1    NOp =  1
 Nuclear Repulsion Energy =  3228.8461984503 hartrees
 There are      113 alpha and      113 beta electrons
 Requested basis set is STO-3G
 There are 86 shells and 176 basis functions

 Total QAlloc Memory Limit   4000 MB
 Mega-Array Size       392 MB
 MEM_STATIC part       400 MB
 A cutoff of  1.0D-12 yielded   2162 shell pairs
 There are     10145 function pairs
 
 -------------------------------------------------------
 OpenMP Integral Computing Module                       
 Release: version 1.0, May 2013, Q-Chem Inc. Pittsburgh 
 -------------------------------------------------------
 Integral Job Info:
 Integral job number is                      11
 Integral operator is                         1
 short-range coefficients                     0
 long-range coefficients              100000000
 Omega coefficients                           0
 if combine SR and LR in K                    0
 Integral screening is                        0
 Integral computing path is                   2
 max size of driver memory is            800000
 size of driver memory is                 45569
 size of scratch memory is              1046100
 max col of scratch BK array                289
 max len of scratch array in speh3           22
 max len of scratch index in speh4            8
 max int batch size is                      520
 min int batch size is                       52
 fixed nKL is                                52
 max L of basis functions is                  1
 order of int derivative is                   0
 number of shells is                         86
 number of basis is                         176
 number of cartesian basis is               176
 number of contracted shell pairs          2162
 number of primitive shell pairs          11327
 maxK2 (contraction) of shell pair            9
 max number of K2 of shell pair               1
 max number of CS2 of shell pair            306
 max number of PS2 of shell pair           1284
 mem total for path MDJ                   54570
 -------------------------------------------------------
 Smallest overlap matrix eigenvalue = 1.93E-01

 Scale SEOQF with 1.000000e-02/1.000000e-01/1.000000e-01

 Standard Electronic Orientation quadrupole field applied
 Nucleus-field energy     =     0.0000000267 hartrees
 Guess from superposition of atomic densities
 Warning:  Energy on first SCF cycle will be non-variational
 A restricted hybrid HF-DFT SCF calculation will be
 performed using Pulay DIIS extrapolation
 Exchange:     0.2000 Hartree-Fock + 0.0800 Slater + 0.7200 B88
 Correlation:  0.1900 VWN1RPA + 0.8100 LYP
 Using SG-1 standard quadrature grid
 Dispersion:   Grimme D3
 SCF converges when DIIS error is below 1.0E-08
 using 48 threads for integral computing
 -------------------------------------------------------
 OpenMP Integral computing Module                
 Release: version 1.0, May 2013, Q-Chem Inc. Pittsburgh 
 -------------------------------------------------------
 -------------------------------------------------------
 OpenMP BLAS3 based DFT computing Module                
 Release: version 1.0, May 2013, Q-Chem Inc. Pittsburgh 
 -------------------------------------------------------
 ---------------------------------------
  Cycle       Energy         DIIS Error
 ---------------------------------------
    1   -1509.4603080893      8.29E-02
    2   -1509.4924830559      1.07E-02
    3   -1507.0306900782      2.76E-02
    4   -1509.9866252164      4.05E-03
    5   -1510.0490182305      1.62E-03
    6   -1510.0577524619      8.53E-04
    7   -1510.0608370780      1.68E-04
    8   -1510.0609464603      4.92E-05
    9   -1510.0609522131      3.42E-05
   10   -1510.0609575300      4.28E-06
   11   -1510.0609576123      1.20E-06
   12   -1510.0609576187      3.84E-07
   13   -1510.0609576191      2.17E-07
   14   -1510.0609576193      4.88E-08
   15   -1510.0609576194      1.38E-08
   16   -1510.0609576194      5.65E-09 Convergence criterion met
 ---------------------------------------
 SCF time:  CPU 120.36 s  wall 2.57 s
 SCF   energy in the final basis set = -1510.06095762
 Total energy in the final basis set = -1510.06095762
 
 --------------------------------------------------------------
 
                    Orbital Energies (a.u.)
 --------------------------------------------------------------
 
 Alpha MOs
 -- Occupied --
-18.973 -18.963 -18.913 -18.902 -18.899 -18.880 -18.878 -18.869
-18.855 -18.833 -10.119 -10.118 -10.106 -10.106 -10.099 -10.092
-10.075 -10.070 -10.070 -10.067 -10.066 -10.063 -10.045 -10.040
-10.039 -10.035 -10.017 -10.017 -10.016 -10.016  -1.067  -1.056
 -1.032  -1.029  -1.027  -1.022  -0.968  -0.960  -0.932  -0.919
 -0.789  -0.784  -0.754  -0.744  -0.732  -0.725  -0.720  -0.679
 -0.666  -0.642  -0.607  -0.601  -0.558  -0.556  -0.539  -0.537
 -0.530  -0.526  -0.512  -0.497  -0.481  -0.478  -0.476  -0.466
 -0.459  -0.446  -0.442  -0.429  -0.423  -0.419  -0.416  -0.413
 -0.406  -0.399  -0.395  -0.382  -0.382  -0.376  -0.367  -0.364
 -0.355  -0.351  -0.347  -0.342  -0.334  -0.329  -0.324  -0.319
 -0.313  -0.313  -0.309  -0.308  -0.306  -0.303  -0.297  -0.278
 -0.275  -0.242  -0.241  -0.237  -0.234  -0.214  -0.212  -0.200
 -0.191  -0.159  -0.158  -0.157  -0.154  -0.151  -0.143  -0.129
 -0.112
 -- Virtual --
  0.072   0.081   0.105   0.132   0.217   0.249   0.252   0.288
  0.298   0.312   0.326   0.329   0.333   0.338   0.342   0.348
  0.359   0.373   0.379   0.383   0.386   0.390   0.392   0.396
  0.402   0.404   0.408   0.411   0.415   0.416   0.420   0.424
  0.427   0.434   0.437   0.442   0.449   0.452   0.454   0.455
  0.462   0.464   0.467   0.470   0.482   0.484   0.487   0.488
  0.491   0.501   0.506   0.518   0.520   0.546   0.549   0.563
  0.565   0.579   0.582   0.664   0.682   0.693   0.704
 --------------------------------------------------------------
 
          Ground-State Mulliken Net Atomic Charges

     Atom                 Charge (a.u.)
  ----------------------------------------
      1 O                    -0.224449
      2 C                     0.240118
      3 C                    -0.075098
      4 C                    -0.079610
      5 C                     0.229703
      6 O                    -0.161716
      7 C                    -0.036201
      8 C                    -0.040925
      9 O                    -0.180902
     10 C                     0.235510
     11 C                    -0.083635
     12 C                    -0.083585
     13 C                     0.251679
     14 O                    -0.253141
     15 O                    -0.222810
     16 O                    -0.222065
     17 O                    -0.230036
     18 C                    -0.103763
     19 C                     0.039112
     20 C                    -0.140953
     21 C                    -0.144466
     22 C                     0.043154
     23 O                    -0.206282
     24 H                     0.088524
     25 H                     0.085851
     26 H                     0.088185
     27 H                     0.076126
     28 H                     0.073272
     29 H                     0.076666
     30 H                     0.071814
     31 H                     0.086045
     32 O                    -0.223981
     33 C                    -0.105352
     34 C                     0.037568
     35 C                    -0.142894
     36 C                    -0.143639
     37 C                     0.038576
     38 O                    -0.215174
     39 H                     0.095760
     40 H                     0.091994
     41 H                     0.084732
     42 H                     0.089067
     43 H                     0.075537
     44 H                     0.072585
     45 H                     0.075330
     46 H                     0.072152
     47 H                     0.081938
     48 H                     0.081925
     49 H                     0.072218
     50 H                     0.083896
     51 H                     0.084982
     52 H                     0.088027
     53 H                     0.094137
     54 H                     0.107901
     55 H                     0.109962
     56 H                     0.096630
  ----------------------------------------
  Sum of atomic charges =    -0.000000

 -----------------------------------------------------------------
                    Cartesian Multipole Moments
 -----------------------------------------------------------------
    Charge (ESU x 10^10)
                 0.0000
    Dipole Moment (Debye)
         X       0.1853      Y       0.0762      Z      -2.5537
       Tot       2.5615
    Quadrupole Moments (Debye-Ang)
        XX    -141.6603     XY       0.1928     YY    -161.7634
        XZ       1.2558     YZ      -3.9055     ZZ    -167.8874
    Octopole Moments (Debye-Ang^2)
       XXX      23.4490    XXY     -34.6110    XYY       0.6142
       YYY      51.5020    XXZ     -52.9622    XYZ      -2.8095
       YYZ     -14.5123    XZZ       9.3044    YZZ      -2.8668
       ZZZ       2.4157
    Hexadecapole Moments (Debye-Ang^3)
      XXXX  -14513.7908   XXXY      -1.5605   XXYY   -2985.1243
      XYYY       6.4062   YYYY   -2489.9056   XXXZ      52.7336
      XXYZ     -65.2391   XYYZ       2.5764   YYYZ      -4.0144
      XXZZ   -2843.6731   XYZZ       8.3184   YYZZ    -592.9640
      XZZZ      -7.4758   YZZZ     -31.1659   ZZZZ   -1158.3898
 -----------------------------------------------------------------
 Calculating analytic gradient of the SCF energy
 Gradient of SCF Energy
            1           2           3           4           5           6
    1   0.0355182   0.0187240   0.0201551   0.0261967   0.0357484  -0.0106848
    2   0.0310028  -0.0847103   0.0103713   0.0009012  -0.0434464   0.0196064
    3  -0.1397847   0.0200434   0.0115536   0.0142289   0.0294154  -0.0591713
            7           8           9          10          11          12
    1  -0.0261597  -0.0044674   0.0008586  -0.0178617  -0.0071970  -0.0224863
    2  -0.0254832   0.0450978  -0.0607477   0.0198800   0.0135085   0.0067719
    3   0.0187637  -0.0216028   0.0023167  -0.0139234   0.0482643   0.0429914
           13          14          15          16          17          18
    1   0.0057925   0.0115762  -0.0214500  -0.0385524   0.0266532   0.0305713
    2  -0.0336296  -0.0279999   0.0065700   0.0689149   0.0532871  -0.0401435
    3  -0.0152253  -0.0657746   0.1356855   0.0825139  -0.0029798  -0.0126975
           19          20          21          22          23          24
    1   0.0135522  -0.0298860  -0.0408573  -0.0271782   0.0274321   0.0017593
    2   0.0664708   0.0428705  -0.0121446  -0.0632985  -0.0342373  -0.0034731
    3  -0.0129258  -0.0082416   0.0187228   0.0255028  -0.0747512  -0.0054013
           25          26          27          28          29          30
    1   0.0038726   0.0051860   0.0022975   0.0031759   0.0050264  -0.0007932
    2   0.0032461  -0.0108227   0.0050986  -0.0058882  -0.0034738   0.0020881
    3  -0.0058703  -0.0039921   0.0098860  -0.0047865   0.0115519  -0.0086672
           31          32          33          34          35          36
    1   0.0090377  -0.0480723  -0.0170835   0.0429473   0.0500142   0.0214280
    2   0.0032039   0.0243485  -0.0190631  -0.0339757   0.0001850   0.0244718
    3  -0.0103801   0.0503950  -0.0330941  -0.0468221  -0.0137070   0.0388295
           37          38          39          40          41          42
    1  -0.0146689  -0.0481557  -0.0095774  -0.0054605   0.0011332  -0.0127365
    2   0.0338523   0.0488202   0.0005097   0.0016142  -0.0045482   0.0039602
    3   0.0629679  -0.0532886  -0.0015117  -0.0073646  -0.0025060  -0.0002045
           43          44          45          46          47          48
    1   0.0024240  -0.0061492  -0.0034413  -0.0002260  -0.0043711  -0.0003814
    2  -0.0111536   0.0051708  -0.0084899   0.0041108  -0.0009894  -0.0041855
    3   0.0035858  -0.0021491   0.0086700  -0.0074073  -0.0119266  -0.0018366
           49          50          51          52          53          54
    1  -0.0035646   0.0036368   0.0006897   0.0014518  -0.0016261   0.0149198
    2  -0.0035113  -0.0013917  -0.0034086  -0.0022094   0.0059538  -0.0073343
    3   0.0015151   0.0011736   0.0014165  -0.0018866   0.0018005   0.0058310
           55          56
    1   0.0034022  -0.0020925
    2   0.0033296  -0.0054571
    3   0.0002666   0.0019885
 Max gradient component =       1.398E-01
 RMS gradient           =       3.022E-02
 Gradient time:  CPU 32.75 s  wall 0.70 s
 Geometry Optimization Parameters
   NAtoms,    NIC,     NZ,  NCons,   NDum,   NFix, NCnnct, MaxDiis
       56     458       0       9       0       0       0       0


** CONSTRAINED OPTIMIZATION IN DELOCALIZED INTERNAL COORDINATES **
   Searching for a Minimum

   Optimization Cycle:   1

                       Coordinates (Angstroms)
     ATOM                X               Y               Z
      1  O        -4.0519356670    1.7367825845    2.1579182011
      2  C        -3.6466245544    1.1730043579    1.1514971911
      3  C        -4.4931211470    0.3422724673    0.2123907875
      4  C        -3.7720395070   -0.3543786759   -0.9531837652
      5  C        -2.2608571080   -0.2881515818   -0.9474856101
      6  O        -1.8324452301    0.4419988095    0.1243232319
      7  C        -0.4161858872    0.6502040563    0.1339725102
      8  C         0.3101998023   -0.6645746670   -0.1302910864
      9  O         1.7289006419   -0.4425561267   -0.1598785908
     10  C         2.4943626916   -1.5620181813   -0.1628317974
     11  C         3.9722133376   -1.2640323901   -0.2512120173
     12  C         4.3191600584    0.1802308215   -0.6411016174
     13  C         3.1878789704    1.1830967106   -0.5354909079
     14  O         2.9115586772    1.8377587729    0.4593115850
     15  O        -3.1481572957    2.2043887490    0.3665781728
     16  O         2.7031090032    1.5971205842   -1.7406492286
     17  O         2.0608801360   -2.6890735559    0.0413987731
     18  C         1.8566370622    2.6660856320   -1.9673873768
     19  C         4.7270166330   -1.4107616424    1.0790704378
     20  C         6.2051229496   -1.6745197877    0.7980595725
     21  C         6.6389685359   -0.3208165114    0.2702779411
     22  C         5.3469447453    0.4812253534    0.4711148122
     23  O         4.7551331725   -0.1074794440    1.6060855062
     24  H         4.3803278798   -1.9751504497   -1.0049141720
     25  H         4.7660812385    0.2589469766   -1.6577246198
     26  H         4.3066516561   -2.2004818237    1.7392114180
     27  H         6.6971429302   -1.8468991475    1.7822090815
     28  H         6.4176299139   -2.5347172645    0.1273565567
     29  H         7.4493032269    0.0670975652    0.9266774800
     30  H         6.9675667001   -0.3067217432   -0.7914909227
     31  H         5.5745883070    1.5676225347    0.5474702288
     32  O        -1.6848270537   -0.2947824240   -2.0303651567
     33  C        -2.4613274523    3.3350266089    0.7885670866
     34  C        -5.0730094308   -0.8817157168    0.9466152798
     35  C        -6.3010329492   -1.4077984410    0.2034932834
     36  C        -5.6470410635   -2.0466325519   -1.0028684713
     37  C        -4.1698248516   -1.8137366508   -0.6734277397
     38  O        -4.1217943350   -1.8936492357    0.7298319339
     39  H        -5.3259560752    0.9924437307   -0.1420076480
     40  H        -4.1344817630   -0.0116156270   -1.9489181025
     41  H        -2.2656116161    3.3280319926    1.8823611356
     42  H        -5.3315447174   -0.6735535715    2.0082640160
     43  H        -6.7538212858   -2.2120477205    0.8265304410
     44  H        -7.0708269813   -0.6389799544   -0.0229607610
     45  H        -5.8693173593   -3.1370368864   -0.9867804043
     46  H        -5.9358837559   -1.6158551570   -1.9859336124
     47  H        -3.5335082784   -2.5411567073   -1.2253929829
     48  H        -3.0489183513    4.2387643582    0.5271370308
     49  H        -1.4846869624    3.3850024271    0.2654968442
     50  H         0.9474196867    2.3072711778   -2.4913674175
     51  H         2.3688112149    3.3988574633   -2.6241032614
     52  H         1.5557272524    3.1817362649   -1.0306758676
     53  H         0.0490106983   -1.3309366271    0.7234432464
     54  H         0.0733813283   -1.2144372006   -1.0574750868
     55  H        -0.1093393492    1.0905527712    1.1061299066
     56  H        -0.1577669428    1.3671376493   -0.6676490261
   Point Group: c1    Number of degrees of freedom:   162


   Energy is  -1510.060957619

              Constraints and their Current Values
                                        Value     Constraint
   Dihedral:        1   2   3   4     -176.358     -176.358
   Dihedral:        3   4   5   6       -1.675       -1.675
   Dihedral:        4   5   6   7     -174.802     -174.801
   Dihedral:        5   6   7   8      -47.506      -47.506
   Dihedral:        6   7   8   9      178.257      178.257
   Dihedral:        7   8   9  10      169.388      169.388
   Dihedral:        8   9  10  11      177.658      177.657
   Dihedral:        9  10  11  12      -13.382      -13.382
   Dihedral:       11  12  13  14       89.466       89.466

 Attempting to Generate Delocalized Internal Coordinates

   Using Lagrange Multiplier Algorithm


167 Hessian modes will be used to form the next step
  Hessian Eigenvalues:
    -0.977753   -0.977753   -0.977753   -0.977753   -0.977753   -0.977753
    -0.977753    0.045000    0.045000    0.045000    0.045000    0.045289
     0.045557    0.045586    0.046337    0.048869    0.048891    0.050554
     0.054275    0.058206    0.059958    0.060230    0.062542    0.064246
     0.067065    0.067139    0.067759    0.068186    0.069935    0.071734
     0.072525    0.073928    0.075865    0.075939    0.076282    0.076881
     0.077219    0.082400    0.082631    0.083109    0.083397    0.084368
     0.084450    0.084586    0.085201    0.085709    0.086450    0.086949
     0.087128    0.088676    0.088934    0.089099    0.089277    0.089748
     0.089866    0.093772    0.093898    0.096603    0.096616    0.111555
     0.111563    0.112751    0.113104    0.115974    0.116189    0.116832
     0.117339    0.118019    0.118417    0.118566    0.124091    0.125634
     0.129796    0.130949    0.131320    0.138422    0.140727    0.160000
     0.160000    0.160000    0.160000    0.160000    0.160000    0.170911
     0.171360    0.172039    0.172905    0.203723    0.213587    0.219162
     0.220697    0.240531    0.242185    0.244705    0.247611    0.250000
     0.250000    0.250000    0.250000    0.250000    0.250000    0.250000
     0.250000    0.258282    0.258746    0.267190    0.267599    0.277910
     0.279676    0.285075    0.285754    0.295021    0.295879    0.298749
     0.308058    0.310698    0.310863    0.313322    0.321364    0.321744
     0.322104    0.322109    0.322121    0.322263    0.322522    0.322875
     0.322902    0.323215    0.323248    0.323549    0.324078    0.324372
     0.324425    0.324647    0.324650    0.324746    0.325157    0.325499
     0.326740    0.326836    0.327014    0.327039    0.330206    0.332788
     0.368003    0.369631    0.383125    0.385054    0.401011    0.407725
     0.475562    0.475668    0.486935    0.517908    0.522687    0.537339
     0.925291    0.933341    0.941950    0.942732    1.022753    1.022753
     1.022753    1.022753    1.022753    1.022753    1.022753

 Minimum Search - Taking P-RFO Step
 Searching for Lamda that Maximizes Along the Constraint modes Only
 Value Taken    Lamda =   0.00643083
 Searching for Lamda that Minimizes Along All other modes
 Value Taken    Lamda =  -0.23477803
 Calculated Step too Large.  Step scaled by  0.449267
 Step Taken.  Stepsize is  0.300000

                             Maximum     Tolerance    Cnvgd?
         Gradient            0.105956       0.000300      NO
         Displacement        0.109993       0.001200      NO
         Energy change     *********       0.000001      NO


 New Cartesian Coordinates Obtained by Inverse Iteration

 Displacement from previous Coordinates is:  2.395359
 Adding empirical dispersion correction 
 ----------------------------------------------------------------
 Doing -D3(op) with
 s6 =   1.00000
 s8 =   0.78311
 a1 =   0.30000
 a2 =   4.25000
 n  =  10.00000
 -D3 energy without 3body term =     -0.0678183506 hartrees
 ----------------------------------------------------------------
             Standard Nuclear Orientation (Angstroms)
    I     Atom           X                Y                Z
 ----------------------------------------------------------------
    1      O      -4.3844506924     1.8271321173     2.1957517662
    2      C      -3.8806217752     1.2687232211     1.2030493080
    3      C      -4.6463379600     0.3575056883     0.2355912835
    4      C      -3.8548051221    -0.3365547469    -0.9216042247
    5      C      -2.3120705860    -0.2849917650    -0.9091380815
    6      O      -1.8143857316     0.4353822059     0.1604817436
    7      C      -0.3763696589     0.6152702319     0.1515115209
    8      C       0.3594883343    -0.7067782537    -0.1291785429
    9      O       1.7867047192    -0.4584517913    -0.1677268869
   10      C       2.5690858624    -1.5864882850    -0.1820211602
   11      C       4.0666018305    -1.2844782738    -0.2802090578
   12      C       4.4510829180     0.1729574054    -0.6694064122
   13      C       3.3414763106     1.2244576644    -0.5641865877
   14      O       3.0791016339     1.8962950895     0.4406419873
   15      O      -3.3784196985     2.2910488538     0.3573466848
   16      O       2.8857888211     1.6255382783    -1.8042148596
   17      O       2.1286861735    -2.7249131962     0.0165977998
   18      C       2.0619297781     2.7411316810    -2.0025577325
   19      C       4.8252419193    -1.4475581656     1.0661113137
   20      C       6.3132619502    -1.7402224575     0.7770879798
   21      C       6.7767834776    -0.3790644498     0.2465988415
   22      C       5.4906109448     0.4592563401     0.4554246984
   23      O       4.8757629273    -0.1258679995     1.6070596530
   24      H       4.4619692129    -1.9969430909    -1.0353232233
   25      H       4.8983073354     0.2394932426    -1.6834299616
   26      H       4.3888597641    -2.2278682410     1.7246427619
   27      H       6.8039304917    -1.9278827374     1.7547771955
   28      H       6.5050325577    -2.5998015867     0.1050139136
   29      H       7.5944447607    -0.0062032554     0.8959205855
   30      H       7.1022703632    -0.3707900924    -0.8125986796
   31      H       5.7361234369     1.5396181166     0.5355282147
   32      O      -1.7238408179    -0.3306806539    -2.0001713782
   33      C      -2.7683178508     3.4705800777     0.8132464627
   34      C      -5.2166379957    -0.8860217821     0.9757791997
   35      C      -6.4165623520    -1.4631094375     0.1930412171
   36      C      -5.7025559780    -2.1021912968    -0.9974751978
   37      C      -4.2266337424    -1.8213737616    -0.6282581394
   38      O      -4.2104669856    -1.8854122874     0.8003933564
   39      H      -5.4801417103     0.9766229844    -0.1591886769
   40      H      -4.2007663849    -0.0137810933    -1.9256227079
   41      H      -2.6587884259     3.4956008284     1.9196887095
   42      H      -5.5129823980    -0.6717706387     2.0246987252
   43      H      -6.8668187235    -2.2672131302     0.8111739492
   44      H      -7.1974092307    -0.7211336472    -0.0655908442
   45      H      -5.8922483191    -3.1947584820    -0.9796344892
   46      H      -5.9750633588    -1.6914107868    -1.9897770429
   47      H      -3.5562215929    -2.5355030471    -1.1530606806
   48      H      -3.3714474405     4.3457021423     0.4917471527
   49      H      -1.7555069481     3.5605134120     0.3662248320
   50      H       1.1317667335     2.4261121674    -2.5206759164
   51      H       2.5877688643     3.4720296022    -2.6525121472
   52      H       1.7901526234     3.2496428498    -1.0516371369
   53      H       0.1137556731    -1.3887095891     0.7178292682
   54      H       0.1035221406    -1.2395647767    -1.0634339341
   55      H      -0.0584642653     1.0448777253     1.1237120347
   56      H      -0.1213343338     1.3383938278    -0.6488120156
 ----------------------------------------------------------------
 Molecular Point Group                 C1    NOp =  1
 Largest Abelian Subgroup              C1    NOp =  1
 Nuclear Repulsion Energy =  3160.3361887257 hartrees
 There are      113 alpha and      113 beta electrons
 Applying Cartesian multipole field
    Component          Value
    ---------          -----
     (2,0,0)        1.00000E-12
     (0,2,0)        2.00000E-11
     (0,0,2)       -3.00000E-11
 Nucleus-field energy     =     0.0000000292 hartrees
 Requested basis set is STO-3G
 There are 86 shells and 176 basis functions
 A cutoff of  1.0D-12 yielded   2111 shell pairs
 There are      9941 function pairs
 Smallest overlap matrix eigenvalue = 2.00E-01
 Guess MOs from SCF MO coefficient file
 Reading MOs from coefficient file
 Reading MOs from coefficient file
 A restricted hybrid HF-DFT SCF calculation will be
 performed using Pulay DIIS extrapolation
 Exchange:     0.2000 Hartree-Fock + 0.0800 Slater + 0.7200 B88
 Correlation:  0.1900 VWN1RPA + 0.8100 LYP
 Using SG-1 standard quadrature grid
 Dispersion:   Grimme D3
 SCF converges when DIIS error is below 1.0E-08
 Geometry optimization detected.  Setting ReadMinima to 0
 Setting SaveMinima to 0
 using 48 threads for integral computing
 -------------------------------------------------------
 OpenMP Integral computing Module                
 Release: version 1.0, May 2013, Q-Chem Inc. Pittsburgh 
 -------------------------------------------------------
 -------------------------------------------------------
 OpenMP BLAS3 based DFT computing Module                
 Release: version 1.0, May 2013, Q-Chem Inc. Pittsburgh 
 -------------------------------------------------------
 ---------------------------------------
  Cycle       Energy         DIIS Error
 ---------------------------------------
    1   -1509.9698880940      3.76E-03
    2   -1510.1356532299      9.85E-04
    3   -1510.1270131206      1.74E-03
    4   -1510.1395116084      3.48E-04
    5   -1510.1400650393      7.21E-05
    6   -1510.1400814391      4.68E-05
    7   -1510.1400905567      1.39E-05
    8   -1510.1400913853      3.45E-06
    9   -1510.1400914361      1.49E-06
   10   -1510.1400914450      6.89E-07
   11   -1510.1400914471      1.98E-07
   12   -1510.1400914472      4.91E-08
   13   -1510.1400914473      4.11E-08
   14   -1510.1400914473      1.12E-08
   15   -1510.1400914473      2.15E-09 Convergence criterion met
 ---------------------------------------
 SCF time:  CPU 108.36 s  wall 2.26 s
 SCF   energy in the final basis set = -1510.14009145
 Total energy in the final basis set = -1510.14009145
 
 --------------------------------------------------------------
 
                    Orbital Energies (a.u.)
 --------------------------------------------------------------
 
 Alpha MOs
 -- Occupied --
-18.959 -18.955 -18.919 -18.899 -18.897 -18.896 -18.872 -18.867
-18.865 -18.841 -10.113 -10.111 -10.102 -10.100 -10.094 -10.087
-10.072 -10.067 -10.066 -10.065 -10.064 -10.063 -10.046 -10.041
-10.039 -10.036 -10.017 -10.017 -10.016 -10.016  -1.047  -1.041
 -1.021  -1.019  -1.010  -1.007  -0.954  -0.950  -0.930  -0.921
 -0.779  -0.776  -0.746  -0.736  -0.726  -0.719  -0.713  -0.674
 -0.662  -0.633  -0.604  -0.597  -0.553  -0.550  -0.537  -0.536
 -0.525  -0.521  -0.504  -0.488  -0.474  -0.471  -0.470  -0.458
 -0.452  -0.440  -0.437  -0.420  -0.419  -0.415  -0.412  -0.409
 -0.400  -0.397  -0.388  -0.378  -0.376  -0.372  -0.362  -0.360
 -0.350  -0.347  -0.345  -0.341  -0.332  -0.326  -0.325  -0.317
 -0.311  -0.309  -0.306  -0.302  -0.300  -0.298  -0.295  -0.276
 -0.271  -0.245  -0.240  -0.238  -0.235  -0.222  -0.219  -0.192
 -0.184  -0.160  -0.156  -0.154  -0.153  -0.152  -0.150  -0.134
 -0.128
 -- Virtual --
  0.063   0.080   0.103   0.122   0.210   0.245   0.248   0.276
  0.288   0.301   0.314   0.316   0.321   0.336   0.338   0.348
  0.354   0.363   0.372   0.373   0.379   0.383   0.385   0.390
  0.394   0.397   0.402   0.403   0.409   0.410   0.413   0.419
  0.423   0.424   0.427   0.432   0.434   0.445   0.446   0.449
  0.452   0.458   0.462   0.465   0.476   0.477   0.478   0.482
  0.484   0.491   0.492   0.503   0.506   0.522   0.532   0.552
  0.553   0.566   0.566   0.632   0.657   0.663   0.682
 --------------------------------------------------------------
 
          Ground-State Mulliken Net Atomic Charges

     Atom                 Charge (a.u.)
  ----------------------------------------
      1 O                    -0.211701
      2 C                     0.221887
      3 C                    -0.072256
      4 C                    -0.075697
      5 C                     0.221544
      6 O                    -0.168949
      7 C                    -0.037199
      8 C                    -0.042245
      9 O                    -0.180210
     10 C                     0.225945
     11 C                    -0.081257
     12 C                    -0.081651
     13 C                     0.238995
     14 O                    -0.240276
     15 O                    -0.205830
     16 O                    -0.209523
     17 O                    -0.226904
     18 C                    -0.109575
     19 C                     0.035045
     20 C                    -0.141841
     21 C                    -0.145085
     22 C                     0.038570
     23 O                    -0.198677
     24 H                     0.088005
     25 H                     0.086044
     26 H                     0.087894
     27 H                     0.076396
     28 H                     0.073871
     29 H                     0.076722
     30 H                     0.072269
     31 H                     0.085826
     32 O                    -0.222975
     33 C                    -0.110983
     34 C                     0.033194
     35 C                    -0.143689
     36 C                    -0.144512
     37 C                     0.033909
     38 O                    -0.206241
     39 H                     0.095109
     40 H                     0.092162
     41 H                     0.087488
     42 H                     0.088886
     43 H                     0.076040
     44 H                     0.073076
     45 H                     0.075857
     46 H                     0.072737
     47 H                     0.082057
     48 H                     0.082844
     49 H                     0.076093
     50 H                     0.083984
     51 H                     0.084660
     52 H                     0.090419
     53 H                     0.092967
     54 H                     0.105863
     55 H                     0.107324
     56 H                     0.093596
  ----------------------------------------
  Sum of atomic charges =    -0.000000

 -----------------------------------------------------------------
                    Cartesian Multipole Moments
 -----------------------------------------------------------------
    Charge (ESU x 10^10)
                 0.0000
    Dipole Moment (Debye)
         X       0.1157      Y       0.3723      Z      -2.4772
       Tot       2.5077
    Quadrupole Moments (Debye-Ang)
        XX    -140.5937     XY      -0.0329     YY    -160.2863
        XZ       1.0541     YZ      -3.7767     ZZ    -167.6098
    Octopole Moments (Debye-Ang^2)
       XXX      26.1639    XXY     -37.0628    XYY      -0.9812
       YYY      55.0891    XXZ     -58.8805    XYZ      -4.2155
       YYZ     -14.5654    XZZ       9.6020    YZZ      -2.0846
       ZZZ       1.5381
    Hexadecapole Moments (Debye-Ang^3)
      XXXX  -15335.1497   XXXY      55.9569   XXYY   -3147.1648
      XYYY      45.7064   YYYY   -2603.3481   XXXZ     132.1422
      XXYZ     -73.6655   XYYZ      23.2788   YYYZ      -7.0684
      XXZZ   -3011.4297   XYZZ      25.2389   YYZZ    -615.8229
      XZZZ      62.1322   YZZZ     -32.0315   ZZZZ   -1171.8543
 -----------------------------------------------------------------
 Calculating analytic gradient of the SCF energy
 Gradient of SCF Energy
            1           2           3           4           5           6
    1   0.0117937   0.0290921   0.0049194   0.0135726   0.0210879   0.0067273
    2   0.0352796  -0.0900165   0.0160974   0.0061705  -0.0513559   0.0071496
    3  -0.0813961   0.0178255   0.0080207  -0.0049577   0.0362031  -0.0566003
            7           8           9          10          11          12
    1  -0.0144019  -0.0038740  -0.0033567  -0.0102341  -0.0019315  -0.0134256
    2  -0.0162978   0.0370116  -0.0517016   0.0216140   0.0036389   0.0084382
    3   0.0245842  -0.0196009   0.0029691  -0.0146974   0.0355217   0.0264651
           13          14          15          16          17          18
    1   0.0050054   0.0085990  -0.0252105  -0.0294872   0.0158587   0.0256047
    2  -0.0328021  -0.0122408   0.0332057   0.0574052   0.0315892  -0.0346648
    3  -0.0199579  -0.0356121   0.0908237   0.0610160   0.0007328  -0.0121440
           19          20          21          22          23          24
    1   0.0077186  -0.0196285  -0.0261043  -0.0220698   0.0185406   0.0001154
    2   0.0474235   0.0277843  -0.0068631  -0.0415764  -0.0228582  -0.0023002
    3  -0.0059582  -0.0067776   0.0113747   0.0203666  -0.0505713  -0.0040194
           25          26          27          28          29          30
    1   0.0028355   0.0048823   0.0011989   0.0028800   0.0030025  -0.0006141
    2   0.0029047  -0.0098816   0.0044205  -0.0043448  -0.0035070   0.0021403
    3  -0.0038106  -0.0045356   0.0070973  -0.0024964   0.0087531  -0.0058277
           31          32          33          34          35          36
    1   0.0083061  -0.0297576  -0.0143094   0.0337948   0.0332344   0.0122637
    2   0.0019357   0.0253705  -0.0206265  -0.0240995   0.0019745   0.0172281
    3  -0.0099849   0.0279082  -0.0306564  -0.0283940  -0.0091863   0.0253025
           37          38          39          40          41          42
    1  -0.0075849  -0.0320774  -0.0058987  -0.0042650   0.0020668  -0.0123542
    2   0.0227557   0.0311076   0.0006510   0.0002456  -0.0027043   0.0035823
    3   0.0457626  -0.0357412   0.0003836  -0.0047766  -0.0005316  -0.0016636
           43          44          45          46          47          48
    1   0.0028750  -0.0047165  -0.0028097   0.0002456  -0.0045367   0.0001074
    2  -0.0081731   0.0026037  -0.0056107   0.0022426  -0.0002372  -0.0019253
    3   0.0024627  -0.0013469   0.0073633  -0.0052098  -0.0114389  -0.0012693
           49          50          51          52          53          54
    1  -0.0014551   0.0016462   0.0001291   0.0001888  -0.0017691   0.0127751
    2  -0.0013267  -0.0005421  -0.0013191  -0.0000302   0.0044208  -0.0073640
    3   0.0010924   0.0000438   0.0004923  -0.0010762   0.0022109   0.0046973
           55          56
    1   0.0037012  -0.0028964
    2   0.0025920  -0.0046137
    3  -0.0006666   0.0014320
 Max gradient component =       9.082E-02
 RMS gradient           =       2.248E-02
 Gradient time:  CPU 30.26 s  wall 0.64 s
 Geometry Optimization Parameters
   NAtoms,    NIC,     NZ,  NCons,   NDum,   NFix, NCnnct, MaxDiis
       56     458       0       9       0       0       0       0

 Cartesian Hessian Update
 Hessian Updated using BFGS Update


** CONSTRAINED OPTIMIZATION IN DELOCALIZED INTERNAL COORDINATES **
   Searching for a Minimum

   Optimization Cycle:   2

                       Coordinates (Angstroms)
     ATOM                X               Y               Z
      1  O        -4.3844506924    1.8271321173    2.1957517662
      2  C        -3.8806217752    1.2687232211    1.2030493080
      3  C        -4.6463379600    0.3575056883    0.2355912835
      4  C        -3.8548051221   -0.3365547469   -0.9216042247
      5  C        -2.3120705860   -0.2849917650   -0.9091380815
      6  O        -1.8143857316    0.4353822059    0.1604817436
      7  C        -0.3763696589    0.6152702319    0.1515115209
      8  C         0.3594883343   -0.7067782537   -0.1291785429
      9  O         1.7867047192   -0.4584517913   -0.1677268869
     10  C         2.5690858624   -1.5864882850   -0.1820211602
     11  C         4.0666018305   -1.2844782738   -0.2802090578
     12  C         4.4510829180    0.1729574054   -0.6694064122
     13  C         3.3414763106    1.2244576644   -0.5641865877
     14  O         3.0791016339    1.8962950895    0.4406419873
     15  O        -3.3784196985    2.2910488538    0.3573466848
     16  O         2.8857888211    1.6255382783   -1.8042148596
     17  O         2.1286861735   -2.7249131962    0.0165977998
     18  C         2.0619297781    2.7411316810   -2.0025577325
     19  C         4.8252419193   -1.4475581656    1.0661113137
     20  C         6.3132619502   -1.7402224575    0.7770879798
     21  C         6.7767834776   -0.3790644498    0.2465988415
     22  C         5.4906109448    0.4592563401    0.4554246984
     23  O         4.8757629273   -0.1258679995    1.6070596530
     24  H         4.4619692129   -1.9969430909   -1.0353232233
     25  H         4.8983073354    0.2394932426   -1.6834299616
     26  H         4.3888597641   -2.2278682410    1.7246427619
     27  H         6.8039304917   -1.9278827374    1.7547771955
     28  H         6.5050325577   -2.5998015867    0.1050139136
     29  H         7.5944447607   -0.0062032554    0.8959205855
     30  H         7.1022703632   -0.3707900924   -0.8125986796
     31  H         5.7361234369    1.5396181166    0.5355282147
     32  O        -1.7238408179   -0.3306806539   -2.0001713782
     33  C        -2.7683178508    3.4705800777    0.8132464627
     34  C        -5.2166379957   -0.8860217821    0.9757791997
     35  C        -6.4165623520   -1.4631094375    0.1930412171
     36  C        -5.7025559780   -2.1021912968   -0.9974751978
     37  C        -4.2266337424   -1.8213737616   -0.6282581394
     38  O        -4.2104669856   -1.8854122874    0.8003933564
     39  H        -5.4801417103    0.9766229844   -0.1591886769
     40  H        -4.2007663849   -0.0137810933   -1.9256227079
     41  H        -2.6587884259    3.4956008284    1.9196887095
     42  H        -5.5129823980   -0.6717706387    2.0246987252
     43  H        -6.8668187235   -2.2672131302    0.8111739492
     44  H        -7.1974092307   -0.7211336472   -0.0655908442
     45  H        -5.8922483191   -3.1947584820   -0.9796344892
     46  H        -5.9750633588   -1.6914107868   -1.9897770429
     47  H        -3.5562215929   -2.5355030471   -1.1530606806
     48  H        -3.3714474405    4.3457021423    0.4917471527
     49  H        -1.7555069481    3.5605134120    0.3662248320
     50  H         1.1317667335    2.4261121674   -2.5206759164
     51  H         2.5877688643    3.4720296022   -2.6525121472
     52  H         1.7901526234    3.2496428498   -1.0516371369
     53  H         0.1137556731   -1.3887095891    0.7178292682
     54  H         0.1035221406   -1.2395647767   -1.0634339341
     55  H        -0.0584642653    1.0448777253    1.1237120347
     56  H        -0.1213343338    1.3383938278   -0.6488120156
   Point Group: c1    Number of degrees of freedom:   162


   Energy is  -1510.140091447

              Constraints and their Current Values
                                        Value     Constraint
   Dihedral:        1   2   3   4     -176.601     -176.358
   Dihedral:        3   4   5   6       -1.675       -1.675
   Dihedral:        4   5   6   7     -174.715     -174.801
   Dihedral:        5   6   7   8      -47.506      -47.506
   Dihedral:        6   7   8   9      178.223      178.257
   Dihedral:        7   8   9  10      169.352      169.388
   Dihedral:        8   9  10  11      177.656      177.657
   Dihedral:        9  10  11  12      -13.400      -13.382
   Dihedral:       11  12  13  14       89.460       89.466
 Hessian Updated using BFGS Update

   Using Lagrange Multiplier Algorithm


155 Hessian modes will be used to form the next step
  Hessian Eigenvalues:
    -0.977753   -0.977753   -0.977753   -0.977753   -0.977753   -0.977753
    -0.971902    0.044951    0.045008    0.045259    0.045585    0.045716
     0.046183    0.048869    0.048964    0.050555    0.054275    0.056075
     0.060044    0.060185    0.062644    0.064231    0.067065    0.067215
     0.067707    0.067922    0.069835    0.071624    0.073885    0.074220
     0.074599    0.075946    0.076553    0.077010    0.077716    0.082406
     0.082831    0.083116    0.083398    0.084346    0.084510    0.084700
     0.085212    0.085785    0.086470    0.086949    0.087847    0.088676
     0.089084    0.089237    0.089579    0.089846    0.090389    0.093782
     0.094092    0.096598    0.096623    0.111549    0.111593    0.112749
     0.113077    0.115973    0.116177    0.116790    0.117324    0.117497
     0.118552    0.120563    0.124096    0.125326    0.129226    0.131263
     0.131955    0.139138    0.145669    0.159957    0.160237    0.168050
     0.171008    0.171734    0.173144    0.205529    0.214009    0.214288
     0.220879    0.224361    0.240534    0.242344    0.244799    0.247626
     0.256083    0.258599    0.266869    0.267527    0.270542    0.278567
     0.279981    0.285379    0.288052    0.295329    0.297450    0.300196
     0.307888    0.310207    0.312769    0.321246    0.321728    0.321790
     0.322106    0.322118    0.322224    0.322483    0.322805    0.322880
     0.323146    0.323243    0.323540    0.324058    0.324243    0.324401
     0.324575    0.324648    0.324731    0.325142    0.325494    0.326723
     0.326824    0.326990    0.327029    0.330137    0.332741    0.342555
     0.368076    0.369592    0.383648    0.400223    0.405719    0.451204
     0.468809    0.483341    0.511957    0.520374    0.534549    0.636890
     0.921934    0.931741    0.942186    0.967348    1.022753    1.022753
     1.022753    1.022753    1.022753    1.022753    1.092525

 Minimum Search - Taking P-RFO Step
 Searching for Lamda that Maximizes Along the Constraint modes Only
 Value Taken    Lamda =   0.00062576
 Searching for Lamda that Minimizes Along All other modes
 Value Taken    Lamda =  -0.14329668
 Calculated Step too Large.  Step scaled by  0.421146
 Step Taken.  Stepsize is  0.300000

                             Maximum     Tolerance    Cnvgd?
         Gradient            0.063649       0.000300      NO
         Displacement        0.076170       0.001200      NO
         Energy change     -0.079134       0.000001      NO


 New Cartesian Coordinates Obtained by Inverse Iteration

 Displacement from previous Coordinates is:  2.352938
 Adding empirical dispersion correction 
 ----------------------------------------------------------------
 Doing -D3(op) with
 s6 =   1.00000
 s8 =   0.78311
 a1 =   0.30000
 a2 =   4.25000
 n  =  10.00000
 -D3 energy without 3body term =     -0.0688257106 hartrees
 ----------------------------------------------------------------
             Standard Nuclear Orientation (Angstroms)
    I     Atom           X                Y                Z
 ----------------------------------------------------------------
    1      O      -4.2033838378     1.8360614199     2.2004440649
    2      C      -3.7761423615     1.2508533292     1.1673004321
    3      C      -4.6408137853     0.3658871898     0.2296052255
    4      C      -3.9125080622    -0.3498534896    -0.9610603119
    5      C      -2.3550462099    -0.3361445208    -0.9707282539
    6      O      -1.8449269467     0.3798735636     0.1213815140
    7      C      -0.3907766871     0.5415439503     0.1204775345
    8      C       0.3625738561    -0.7839820605    -0.1658439339
    9      O       1.7947225225    -0.4916466052    -0.1833149339
   10      C       2.6073178775    -1.6218169354    -0.1972769357
   11      C       4.1080510534    -1.2591925891    -0.2739285872
   12      C       4.4432127198     0.2268818408    -0.6465924748
   13      C       3.2713933456     1.2345530179    -0.5486854802
   14      O       2.9508372119     1.8928508127     0.4626234929
   15      O      -3.1682071409     2.1900376688     0.2619972447
   16      O       2.8200117436     1.5881945109    -1.8241443444
   17      O       2.1857044887    -2.7829019960    -0.0209742224
   18      C       1.9162501297     2.6798848407    -1.9592796906
   19      C       4.8610623531    -1.4083147497     1.0955575791
   20      C       6.3760637700    -1.6412676045     0.8087653038
   21      C       6.7934976831    -0.2410996274     0.2900814699
   22      C       5.4638174155     0.5552441325     0.5030841069
   23      O       4.8521227405    -0.0717262093     1.6612644857
   24      H       4.5404111320    -1.9467437950    -1.0279875754
   25      H       4.8969190177     0.3169681463    -1.6525968762
   26      H       4.4431718584    -2.2047341791     1.7442282116
   27      H       6.8690394035    -1.8245572755     1.7818202151
   28      H       6.6006869374    -2.4824410291     0.1291609770
   29      H       7.5913735819     0.1594468402     0.9409746693
   30      H       7.1226513321    -0.2116253679    -0.7640625419
   31      H       5.6569980415     1.6428030169     0.6007245162
   32      O      -1.7470424533    -0.4174017112    -2.0634464270
   33      C      -2.4303529178     3.2970347132     0.7720053395
   34      C      -5.2636583347    -0.8549674837     0.9905062066
   35      C      -6.5222853827    -1.3610665548     0.2195649985
   36      C      -5.8609909802    -2.0349922981    -1.0076479220
   37      C      -4.3487402333    -1.8379866381    -0.6657167965
   38      O      -4.3011964586    -1.9197142018     0.7828812997
   39      H      -5.4462963170     1.0284099325    -0.1452638521
   40      H      -4.2637825282    -0.0101063395    -1.9536659435
   41      H      -2.3511868933     3.2864387043     1.8812303314
   42      H      -5.5114626701    -0.6333908076     2.0488368626
   43      H      -7.0073681548    -2.1382467682     0.8388835175
   44      H      -7.2609106047    -0.5744333006    -0.0158630345
   45      H      -6.1084412486    -3.1121444006    -1.0029558016
   46      H      -6.1302345813    -1.5986836907    -1.9860708347
   47      H      -3.7204626041    -2.5783983127    -1.2023151519
   48      H      -2.9220145263     4.2435769286     0.4611572156
   49      H      -1.4013384014     3.2835666025     0.3515102741
   50      H       0.9924416238     2.3361668264    -2.4717418761
   51      H       2.3851419096     3.4689700967    -2.5851840897
   52      H       1.6387772151     3.1272755358    -0.9793107341
   53      H       0.1216405423    -1.4876674966     0.6649355039
   54      H       0.1033459610    -1.2926211749    -1.1151179310
   55      H      -0.0852051635     0.9593541553     1.1007387875
   56      H      -0.1246205023     1.2743843922    -0.6717383814
 ----------------------------------------------------------------
 Molecular Point Group                 C1    NOp =  1
 Largest Abelian Subgroup              C1    NOp =  1
 Nuclear Repulsion Energy =  3155.8005822880 hartrees
 There are      113 alpha and      113 beta electrons
 Applying Cartesian multipole field
    Component          Value
    ---------          -----
     (2,0,0)        1.00000E-12
     (0,2,0)        2.00000E-11
     (0,0,2)       -3.00000E-11
 Nucleus-field energy     =     0.0000000272 hartrees
 Requested basis set is STO-3G
 There are 86 shells and 176 basis functions
 A cutoff of  1.0D-12 yielded   2127 shell pairs
 There are      9999 function pairs
 Smallest overlap matrix eigenvalue = 2.06E-01
 Guess MOs from SCF MO coefficient file
 Reading MOs from coefficient file
 Reading MOs from coefficient file
 A restricted hybrid HF-DFT SCF calculation will be
 performed using Pulay DIIS extrapolation
 Exchange:     0.2000 Hartree-Fock + 0.0800 Slater + 0.7200 B88
 Correlation:  0.1900 VWN1RPA + 0.8100 LYP
 Using SG-1 standard quadrature grid
 Dispersion:   Grimme D3
 SCF converges when DIIS error is below 1.0E-08
 Geometry optimization detected.  Setting ReadMinima to 0
 Setting SaveMinima to 0
 using 48 threads for integral computing
 -------------------------------------------------------
 OpenMP Integral computing Module                
 Release: version 1.0, May 2013, Q-Chem Inc. Pittsburgh 
 -------------------------------------------------------
 -------------------------------------------------------
 OpenMP BLAS3 based DFT computing Module                
 Release: version 1.0, May 2013, Q-Chem Inc. Pittsburgh 
 -------------------------------------------------------
 ---------------------------------------
  Cycle       Energy         DIIS Error
 ---------------------------------------
    1   -1510.0144553672      3.97E-03
    2   -1510.1809095023      9.76E-04
    3   -1510.1691418631      1.93E-03
    4   -1510.1849117983      3.23E-04
    5   -1510.1853636624      9.67E-05
    6   -1510.1853936711      5.73E-05
    7   -1510.1854073393      1.64E-05
    8   -1510.1854085468      3.96E-06
    9   -1510.1854086161      2.16E-06
   10   -1510.1854086366      7.64E-07
   11   -1510.1854086395      2.90E-07
   12   -1510.1854086400      5.59E-08
   13   -1510.1854086401      3.93E-08
   14   -1510.1854086401      1.80E-08
   15   -1510.1854086401      3.64E-09 Convergence criterion met
 ---------------------------------------
 SCF time:  CPU 106.09 s  wall 2.22 s
 SCF   energy in the final basis set = -1510.18540864
 Total energy in the final basis set = -1510.18540864
 
 --------------------------------------------------------------
 
                    Orbital Energies (a.u.)
 --------------------------------------------------------------
 
 Alpha MOs
 -- Occupied --
-18.956 -18.954 -18.921 -18.901 -18.898 -18.896 -18.871 -18.870
-18.866 -18.844 -10.109 -10.108 -10.098 -10.096 -10.090 -10.084
-10.067 -10.065 -10.064 -10.064 -10.062 -10.059 -10.045 -10.041
-10.040 -10.035 -10.018 -10.018 -10.017 -10.017  -1.036  -1.031
 -1.012  -1.006  -0.995  -0.992  -0.948  -0.945  -0.925  -0.918
 -0.774  -0.771  -0.740  -0.731  -0.720  -0.713  -0.708  -0.669
 -0.658  -0.628  -0.601  -0.594  -0.551  -0.549  -0.537  -0.536
 -0.522  -0.518  -0.499  -0.483  -0.469  -0.467  -0.465  -0.453
 -0.447  -0.436  -0.433  -0.418  -0.415  -0.412  -0.410  -0.404
 -0.396  -0.392  -0.385  -0.372  -0.371  -0.369  -0.359  -0.355
 -0.348  -0.344  -0.342  -0.338  -0.331  -0.326  -0.324  -0.315
 -0.311  -0.309  -0.305  -0.301  -0.300  -0.299  -0.294  -0.273
 -0.269  -0.241  -0.239  -0.237  -0.236  -0.228  -0.227  -0.193
 -0.185  -0.161  -0.155  -0.154  -0.153  -0.150  -0.149  -0.136
 -0.131
 -- Virtual --
  0.064   0.078   0.098   0.118   0.204   0.242   0.246   0.271
  0.281   0.293   0.303   0.306   0.312   0.328   0.335   0.345
  0.349   0.355   0.360   0.362   0.366   0.371   0.375   0.382
  0.387   0.389   0.394   0.396   0.399   0.408   0.411   0.412
  0.414   0.416   0.421   0.424   0.432   0.435   0.440   0.444
  0.450   0.453   0.457   0.459   0.464   0.466   0.470   0.472
  0.479   0.482   0.485   0.490   0.494   0.511   0.521   0.545
  0.546   0.556   0.557   0.609   0.638   0.645   0.665
 --------------------------------------------------------------
 
          Ground-State Mulliken Net Atomic Charges

     Atom                 Charge (a.u.)
  ----------------------------------------
      1 O                    -0.208337
      2 C                     0.215234
      3 C                    -0.073226
      4 C                    -0.076064
      5 C                     0.212730
      6 O                    -0.160440
      7 C                    -0.040252
      8 C                    -0.044543
      9 O                    -0.174431
     10 C                     0.218554
     11 C                    -0.080603
     12 C                    -0.080913
     13 C                     0.230589
     14 O                    -0.235645
     15 O                    -0.192787
     16 O                    -0.198101
     17 O                    -0.219926
     18 C                    -0.117914
     19 C                     0.031184
     20 C                    -0.142634
     21 C                    -0.145631
     22 C                     0.034013
     23 O                    -0.191489
     24 H                     0.087637
     25 H                     0.085973
     26 H                     0.087429
     27 H                     0.076891
     28 H                     0.074519
     29 H                     0.076976
     30 H                     0.072890
     31 H                     0.085766
     32 O                    -0.218800
     33 C                    -0.118318
     34 C                     0.029503
     35 C                    -0.144263
     36 C                    -0.145135
     37 C                     0.030218
     38 O                    -0.199108
     39 H                     0.093261
     40 H                     0.091984
     41 H                     0.089486
     42 H                     0.088935
     43 H                     0.076526
     44 H                     0.073765
     45 H                     0.076531
     46 H                     0.073368
     47 H                     0.082179
     48 H                     0.081666
     49 H                     0.075564
     50 H                     0.083274
     51 H                     0.084072
     52 H                     0.092209
     53 H                     0.092844
     54 H                     0.105033
     55 H                     0.105519
     56 H                     0.092239
  ----------------------------------------
  Sum of atomic charges =    -0.000000

 -----------------------------------------------------------------
                    Cartesian Multipole Moments
 -----------------------------------------------------------------
    Charge (ESU x 10^10)
                 0.0000
    Dipole Moment (Debye)
         X       0.1007      Y       0.4181      Z      -2.3654
       Tot       2.4042
    Quadrupole Moments (Debye-Ang)
        XX    -138.6427     XY       0.1838     YY    -161.0072
        XZ       1.3551     YZ      -3.9088     ZZ    -168.0043
    Octopole Moments (Debye-Ang^2)
       XXX      21.6377    XXY     -33.4203    XYY       1.4170
       YYY      55.1858    XXZ     -54.1127    XYZ      -4.0400
       YYZ     -13.4188    XZZ       7.4407    YZZ      -2.2986
       ZZZ       5.2006
    Hexadecapole Moments (Debye-Ang^3)
      XXXX  -15255.6902   XXXY     -20.5064   XXYY   -3141.5191
      XYYY     -15.7824   YYYY   -2520.0725   XXXZ      59.8895
      XXYZ     -63.7959   XYYZ      12.0527   YYYZ     -14.0643
      XXZZ   -3009.3120   XYZZ      -2.6504   YYZZ    -603.9603
      XZZZ      -4.9811   YZZZ     -38.6139   ZZZZ   -1190.6812
 -----------------------------------------------------------------
 Calculating analytic gradient of the SCF energy
 Gradient of SCF Energy
            1           2           3           4           5           6
    1  -0.0054792   0.0347239   0.0009975   0.0069210   0.0086389  -0.0071439
    2   0.0382360  -0.0912584   0.0122114   0.0156137  -0.0486407   0.0269825
    3  -0.0385468   0.0089492   0.0010652  -0.0121908   0.0392613  -0.0369803
            7           8           9          10          11          12
    1  -0.0095315  -0.0031200  -0.0003253  -0.0046893   0.0002180  -0.0087811
    2  -0.0093846   0.0269172  -0.0301893   0.0226990  -0.0002097   0.0054763
    3   0.0246662  -0.0172495   0.0028351  -0.0154524   0.0243851   0.0119199
           13          14          15          16          17          18
    1   0.0036811   0.0037213  -0.0035217  -0.0223559   0.0072242   0.0209989
    2  -0.0305254  -0.0018434   0.0195526   0.0374095   0.0100304  -0.0246032
    3  -0.0231145  -0.0125948   0.0522275   0.0418740   0.0039936  -0.0088377
           19          20          21          22          23          24
    1   0.0008793  -0.0114401  -0.0124679  -0.0142566   0.0116635  -0.0007473
    2   0.0299328   0.0123577  -0.0027447  -0.0238532  -0.0115295  -0.0009641
    3  -0.0000656  -0.0054643   0.0040448   0.0157074  -0.0285112  -0.0028094
           25          26          27          28          29          30
    1   0.0017177   0.0047834  -0.0002453   0.0027314   0.0010900  -0.0005336
    2   0.0023055  -0.0081096   0.0037765  -0.0026492  -0.0033086   0.0021710
    3  -0.0018071  -0.0047785   0.0042906  -0.0001447   0.0058851  -0.0029797
           31          32          33          34          35          36
    1   0.0070801  -0.0149410  -0.0112841   0.0222754   0.0160268   0.0073326
    2   0.0011527   0.0214662  -0.0158836  -0.0172446   0.0031611   0.0083872
    3  -0.0090521   0.0048028  -0.0231875  -0.0141350  -0.0050665   0.0105188
           37          38          39          40          41          42
    1  -0.0004756  -0.0184787  -0.0033874  -0.0025143   0.0023245  -0.0104681
    2   0.0116492   0.0192081  -0.0005782  -0.0006896  -0.0010112   0.0039652
    3   0.0317940  -0.0188349   0.0000528  -0.0024593   0.0007901  -0.0018643
           43          44          45          46          47          48
    1   0.0029134  -0.0033147  -0.0019603   0.0007649  -0.0045424  -0.0003223
    2  -0.0051527   0.0006965  -0.0026921   0.0003879   0.0009568  -0.0006534
    3   0.0012900  -0.0000772   0.0056600  -0.0031036  -0.0096214  -0.0009688
           49          50          51          52          53          54
    1   0.0006152  -0.0000237   0.0000288  -0.0014510  -0.0021903   0.0092046
    2  -0.0005151  -0.0000080   0.0001422   0.0015840   0.0027471  -0.0072452
    3   0.0007289  -0.0001352  -0.0000687  -0.0005953   0.0021323   0.0034798
           55          56
    1   0.0031143  -0.0016782
    2   0.0021150  -0.0018043
    3  -0.0009337  -0.0007238
 Max gradient component =       9.126E-02
 RMS gradient           =       1.603E-02
 Gradient time:  CPU 30.22 s  wall 0.64 s
 Geometry Optimization Parameters
   NAtoms,    NIC,     NZ,  NCons,   NDum,   NFix, NCnnct, MaxDiis
       56     458       0       9       0       0       0       0

 Cartesian Hessian Update
 Hessian Updated using BFGS Update


** CONSTRAINED OPTIMIZATION IN DELOCALIZED INTERNAL COORDINATES **
   Searching for a Minimum

   Optimization Cycle:   3

                       Coordinates (Angstroms)
     ATOM                X               Y               Z
      1  O        -4.2033838378    1.8360614199    2.2004440649
      2  C        -3.7761423615    1.2508533292    1.1673004321
      3  C        -4.6408137853    0.3658871898    0.2296052255
      4  C        -3.9125080622   -0.3498534896   -0.9610603119
      5  C        -2.3550462099   -0.3361445208   -0.9707282539
      6  O        -1.8449269467    0.3798735636    0.1213815140
      7  C        -0.3907766871    0.5415439503    0.1204775345
      8  C         0.3625738561   -0.7839820605   -0.1658439339
      9  O         1.7947225225   -0.4916466052   -0.1833149339
     10  C         2.6073178775   -1.6218169354   -0.1972769357
     11  C         4.1080510534   -1.2591925891   -0.2739285872
     12  C         4.4432127198    0.2268818408   -0.6465924748
     13  C         3.2713933456    1.2345530179   -0.5486854802
     14  O         2.9508372119    1.8928508127    0.4626234929
     15  O        -3.1682071409    2.1900376688    0.2619972447
     16  O         2.8200117436    1.5881945109   -1.8241443444
     17  O         2.1857044887   -2.7829019960   -0.0209742224
     18  C         1.9162501297    2.6798848407   -1.9592796906
     19  C         4.8610623531   -1.4083147497    1.0955575791
     20  C         6.3760637700   -1.6412676045    0.8087653038
     21  C         6.7934976831   -0.2410996274    0.2900814699
     22  C         5.4638174155    0.5552441325    0.5030841069
     23  O         4.8521227405   -0.0717262093    1.6612644857
     24  H         4.5404111320   -1.9467437950   -1.0279875754
     25  H         4.8969190177    0.3169681463   -1.6525968762
     26  H         4.4431718584   -2.2047341791    1.7442282116
     27  H         6.8690394035   -1.8245572755    1.7818202151
     28  H         6.6006869374   -2.4824410291    0.1291609770
     29  H         7.5913735819    0.1594468402    0.9409746693
     30  H         7.1226513321   -0.2116253679   -0.7640625419
     31  H         5.6569980415    1.6428030169    0.6007245162
     32  O        -1.7470424533   -0.4174017112   -2.0634464270
     33  C        -2.4303529178    3.2970347132    0.7720053395
     34  C        -5.2636583347   -0.8549674837    0.9905062066
     35  C        -6.5222853827   -1.3610665548    0.2195649985
     36  C        -5.8609909802   -2.0349922981   -1.0076479220
     37  C        -4.3487402333   -1.8379866381   -0.6657167965
     38  O        -4.3011964586   -1.9197142018    0.7828812997
     39  H        -5.4462963170    1.0284099325   -0.1452638521
     40  H        -4.2637825282   -0.0101063395   -1.9536659435
     41  H        -2.3511868933    3.2864387043    1.8812303314
     42  H        -5.5114626701   -0.6333908076    2.0488368626
     43  H        -7.0073681548   -2.1382467682    0.8388835175
     44  H        -7.2609106047   -0.5744333006   -0.0158630345
     45  H        -6.1084412486   -3.1121444006   -1.0029558016
     46  H        -6.1302345813   -1.5986836907   -1.9860708347
     47  H        -3.7204626041   -2.5783983127   -1.2023151519
     48  H        -2.9220145263    4.2435769286    0.4611572156
     49  H        -1.4013384014    3.2835666025    0.3515102741
     50  H         0.9924416238    2.3361668264   -2.4717418761
     51  H         2.3851419096    3.4689700967   -2.5851840897
     52  H         1.6387772151    3.1272755358   -0.9793107341
     53  H         0.1216405423   -1.4876674966    0.6649355039
     54  H         0.1033459610   -1.2926211749   -1.1151179310
     55  H        -0.0852051635    0.9593541553    1.1007387875
     56  H        -0.1246205023    1.2743843922   -0.6717383814
   Point Group: c1    Number of degrees of freedom:   162


   Energy is  -1510.185408640

              Constraints and their Current Values
                                        Value     Constraint
   Dihedral:        1   2   3   4     -176.427     -176.358
   Dihedral:        3   4   5   6       -1.675       -1.675
   Dihedral:        4   5   6   7     -174.804     -174.801
   Dihedral:        5   6   7   8      -47.506      -47.506
   Dihedral:        6   7   8   9      178.241      178.257
   Dihedral:        7   8   9  10      169.364      169.388
   Dihedral:        8   9  10  11      177.658      177.657
   Dihedral:        9  10  11  12      -13.394      -13.382
   Dihedral:       11  12  13  14       89.478       89.466
 Hessian Updated using BFGS Update

   Using Lagrange Multiplier Algorithm


158 Hessian modes will be used to form the next step
  Hessian Eigenvalues:
    -0.977753   -0.977753   -0.977753   -0.977753   -0.977753   -0.977089
    -0.974426    0.044775    0.045000    0.045020    0.045262    0.045553
     0.045629    0.046396    0.048839    0.048931    0.050254    0.054276
     0.059483    0.060027    0.062482    0.062916    0.064951    0.067064
     0.067110    0.067766    0.069070    0.069627    0.071282    0.072964
     0.073919    0.075942    0.076378    0.076526    0.077396    0.081615
     0.082399    0.082698    0.083136    0.083401    0.084476    0.084677
     0.084983    0.085343    0.085775    0.086460    0.086903    0.087642
     0.088672    0.089106    0.089216    0.089561    0.089848    0.091861
     0.093768    0.093898    0.096603    0.096624    0.111573    0.111591
     0.112751    0.113090    0.115974    0.116120    0.116699    0.117005
     0.117401    0.118524    0.121767    0.124105    0.125141    0.129097
     0.131379    0.131900    0.140976    0.153906    0.159794    0.160023
     0.160292    0.170529    0.171228    0.172863    0.186571    0.205159
     0.211178    0.216385    0.220611    0.221903    0.240536    0.242519
     0.244884    0.247630    0.256013    0.257992    0.262902    0.267339
     0.267546    0.278302    0.279973    0.285309    0.287839    0.295324
     0.297307    0.300109    0.307451    0.309890    0.312213    0.319903
     0.321509    0.321733    0.322105    0.322118    0.322215    0.322461
     0.322723    0.322879    0.323090    0.323242    0.323533    0.323843
     0.324090    0.324388    0.324459    0.324601    0.324648    0.325033
     0.325491    0.326329    0.326788    0.326893    0.327022    0.329727
     0.332375    0.333332    0.367893    0.369196    0.383292    0.388675
     0.400273    0.411184    0.454058    0.481904    0.490538    0.517409
     0.523557    0.533808    0.716608    0.927330    0.935046    0.942000
     0.995675    1.022753    1.022753    1.022753    1.022753    1.022753
     1.029292    1.053814

 Minimum Search - Taking P-RFO Step
 Searching for Lamda that Maximizes Along the Constraint modes Only
 Value Taken    Lamda =   0.00018680
 Searching for Lamda that Minimizes Along All other modes
 Value Taken    Lamda =  -0.08503801
 Calculated Step too Large.  Step scaled by  0.477792
 Step Taken.  Stepsize is  0.300000

                             Maximum     Tolerance    Cnvgd?
         Gradient            0.056445       0.000300      NO
         Displacement        0.092425       0.001200      NO
         Energy change     -0.045317       0.000001      NO


 New Cartesian Coordinates Obtained by Inverse Iteration

 Displacement from previous Coordinates is:  1.838989
 Adding empirical dispersion correction 
 ----------------------------------------------------------------
 Doing -D3(op) with
 s6 =   1.00000
 s8 =   0.78311
 a1 =   0.30000
 a2 =   4.25000
 n  =  10.00000
 -D3 energy without 3body term =     -0.0678386955 hartrees
 ----------------------------------------------------------------
             Standard Nuclear Orientation (Angstroms)
    I     Atom           X                Y                Z
 ----------------------------------------------------------------
    1      O      -4.4222310668     1.9790294677     2.1467141675
    2      C      -3.9224940623     1.3918466674     1.1450634806
    3      C      -4.6950140941     0.3990805632     0.2092330767
    4      C      -3.8920717853    -0.3143724259    -0.9492745952
    5      C      -2.3212638608    -0.3048489677    -0.9244516588
    6      O      -1.8040265525     0.4142400101     0.1779583476
    7      C      -0.3376328119     0.5362896735     0.1496220210
    8      C       0.3951932313    -0.8087200425    -0.1426667417
    9      O       1.8347689594    -0.5040174488    -0.1777696409
   10      C       2.6375954310    -1.6604814706    -0.1964777730
   11      C       4.1471894322    -1.2952820908    -0.2926993355
   12      C       4.4872795399     0.1941067406    -0.6750734839
   13      C       3.3059075313     1.2103492837    -0.5784051766
   14      O       2.9744228218     1.8817197144     0.4259016354
   15      O      -3.2990791161     2.3253107960     0.2306072754
   16      O       2.8491037640     1.5175027341    -1.8822159339
   17      O       2.1980643370    -2.8204965296    -0.0214058364
   18      C       1.9118319915     2.6183463053    -1.9334214982
   19      C       4.9139453681    -1.4447642153     1.0816185550
   20      C       6.4330741949    -1.6859169267     0.7704364086
   21      C       6.8519765200    -0.2784055448     0.2379420025
   22      C       5.5229334626     0.5329817825     0.4704234949
   23      O       4.9138436684    -0.0919658246     1.6519088767
   24      H       4.5726763694    -1.9861001529    -1.0451589093
   25      H       4.9302638509     0.2737638897    -1.6844675549
   26      H       4.4920016027    -2.2279827362     1.7418385250
   27      H       6.9426653776    -1.8743073033     1.7310977023
   28      H       6.6374420532    -2.5271122470     0.0879254364
   29      H       7.6620630392     0.1242046319     0.8680729073
   30      H       7.1631182496    -0.2573827731    -0.8195662369
   31      H       5.7105019334     1.6199614723     0.5700393473
   32      O      -1.6691026245    -0.4528898742    -1.9910462100
[...]
     15  O        -3.2158770499    2.3567649674    0.0108817946
     16  O         3.0646567835    1.5771813234   -1.9475229675
     17  O         2.2548353664   -2.8247086045   -0.5447468604
     18  C         1.9554181317    2.5503993201   -2.0585584926
     19  C         4.8551844397   -1.5855421629    1.0080438224
     20  C         6.4148165145   -1.7134299633    0.7943842845
     21  C         6.8185924814   -0.2029241717    0.6192248975
     22  C         5.4194834362    0.5093383092    0.7946911293
     23  O         4.7127234903   -0.3360568141    1.7841319528
     24  H         4.6746158509   -1.8123255699   -1.2001221931
     25  H         5.1776697171    0.4605296656   -1.4406439020
     26  H         4.3799638686   -2.4344497767    1.5375274192
     27  H         6.8872537562   -2.1578032782    1.6850351197
     28  H         6.6666009949   -2.3286853329   -0.0840827486
     29  H         7.5201965942    0.1227476475    1.4035427947
     30  H         7.2664581900    0.0066785201   -0.3651760026
     31  H         5.4595535508    1.5578500183    1.1476817149
     32  O        -1.7549526423   -0.7032876166   -2.0664418885
     33  C        -2.7431295770    3.6243880962    0.6116618201
     34  C        -4.8669485637   -0.9387432793    1.1105884632
     35  C        -6.2706247299   -1.5223249880    0.6926187493
     36  C        -5.9693220389   -1.9229692179   -0.8015626343
     37  C        -4.4013625005   -1.7280468407   -0.8741191200
     38  O        -3.9383042448   -1.9351948553    0.5249252716
     39  H        -5.6736970493    0.7215628700   -0.0665869473
     40  H        -4.3654536540    0.2658237527   -1.9969687039
     41  H        -3.3324338947    3.8459997725    1.5244600037
     42  H        -4.6902705450   -0.8174764102    2.1968383406
     43  H        -6.5150525029   -2.4070257748    1.3027222591
     44  H        -7.0849644721   -0.7861752898    0.7870470276
     45  H        -6.2392443725   -2.9707925723   -1.0065013111
     46  H        -6.4936593886   -1.2779935070   -1.5252772182
     47  H        -3.8742540060   -2.4168511176   -1.5629106419
     48  H        -2.8694603162    4.4293811650   -0.1373401985
     49  H        -1.6698219492    3.5327680649    0.8739870263
     50  H         1.0827416236    2.0576844581   -2.5320697194
     51  H         2.2826056337    3.3966777438   -2.6938515988
     52  H         1.6846932608    2.9153962810   -1.0465362273
     53  H         0.1788355369   -1.7737017284    0.3181226428
     54  H         0.0921756330   -1.1563117231   -1.3786357747
     55  H        -0.1320784639    0.6147433270    1.1770332700
     56  H        -0.0751857942    1.2250383038   -0.5136878234
   Point Group: c1    Number of degrees of freedom:   162


   Energy is  -1510.262921958

              Constraints and their Current Values
                                        Value     Constraint
   Dihedral:        1   2   3   4     -176.358     -176.358
   Dihedral:        3   4   5   6       -1.675       -1.675
   Dihedral:        4   5   6   7     -174.801     -174.801
   Dihedral:        5   6   7   8      -47.506      -47.506
   Dihedral:        6   7   8   9      178.257      178.257
   Dihedral:        7   8   9  10      169.388      169.388
   Dihedral:        8   9  10  11      177.657      177.657
   Dihedral:        9  10  11  12      -13.382      -13.382
   Dihedral:       11  12  13  14       89.466       89.466
 Hessian Updated using BFGS Update

153 Hessian modes will be used to form the next step
  Hessian Eigenvalues:
     0.001368    0.004806    0.007671    0.016358    0.024626    0.037086
     0.045066    0.045345    0.045447    0.048218    0.048254    0.050668
     0.054530    0.055136    0.060450    0.062144    0.062976    0.067110
     0.067155    0.067695    0.068944    0.070399    0.070743    0.073800
     0.075121    0.075701    0.076078    0.076499    0.079492    0.081527
     0.082535    0.082598    0.083285    0.083460    0.084573    0.084719
     0.085522    0.085616    0.086190    0.086736    0.087609    0.087936
     0.089135    0.089259    0.089501    0.089846    0.091723    0.091938
     0.093963    0.094348    0.096614    0.096726    0.111592    0.111632
     0.112822    0.113274    0.116062    0.116280    0.116328    0.117375
     0.118422    0.120706    0.122777    0.124542    0.126077    0.129547
     0.130259    0.132040    0.155942    0.158984    0.159881    0.160102
     0.160375    0.161210    0.161593    0.163407    0.170095    0.172336
     0.192627    0.204678    0.210418    0.220738    0.222233    0.234771
     0.240431    0.241440    0.245804    0.247809    0.250496    0.257282
     0.258538    0.266932    0.267428    0.269118    0.277242    0.279613
     0.284968    0.287527    0.294661    0.296896    0.299631    0.304053
     0.309016    0.311271    0.314800    0.319343    0.321544    0.322069
     0.322102    0.322209    0.322371    0.322652    0.322888    0.323005
     0.323136    0.323623    0.323716    0.323832    0.324153    0.324369
     0.324464    0.324576    0.324730    0.325337    0.325854    0.326366
     0.326803    0.326924    0.327043    0.329643    0.332231    0.333708
     0.365499    0.367520    0.378932    0.380301    0.391330    0.393581
     0.402984    0.414161    0.474934    0.489717    0.493986    0.523504
     0.555634    0.582604    0.631615    0.661918    0.755611    0.928524
     0.938811    0.947627    1.029498

 Minimum Search - Taking Simple RFO Step
 Searching for Lamda that Minimizes Along All modes
 Value Taken    Lamda =   0.00000000
 Step Taken.  Stepsize is  0.006222

                             Maximum     Tolerance    Cnvgd?
         Gradient           0.000035      0.000300     YES
         Displacement       0.001668      0.001200      NO
         Energy change     -0.000001      0.000001     YES

 Final energy is   -1510.26292195785     


 ******************************
 **  OPTIMIZATION CONVERGED  **
 ******************************

                       Coordinates (Angstroms)
     ATOM                X               Y               Z
      1  O        -4.4872549854    2.1535536167    1.9975162834
      2  C        -4.0690968851    1.6559366559    0.9274702767
      3  C        -4.6637469846    0.3795132832    0.2350831504
      4  C        -3.9932188216   -0.1976715598   -1.0667083606
      5  C        -2.4125659735   -0.2619037975   -1.0960797323
      6  O        -1.8710521770    0.2752930920    0.1055015730
      7  C        -0.3899520181    0.3721637239    0.1262737533
      8  C         0.3959035531   -0.9053154279   -0.3396188704
      9  O         1.8259869111   -0.5195102582   -0.2610191215
     10  C         2.6737011694   -1.6523867788   -0.4211994021
     11  C         4.1856107880   -1.2317299082   -0.3967554814
     12  C         4.5688638572    0.3049562390   -0.5322081113
     13  C         3.3900684147    1.3428488981   -0.5670875796
     14  O         2.8436175325    1.9225121650    0.3962512339
     15  O        -3.2158770499    2.3567649674    0.0108817946
     16  O         3.0646567835    1.5771813234   -1.9475229675
     17  O         2.2548353664   -2.8247086045   -0.5447468604
     18  C         1.9554181317    2.5503993201   -2.0585584926
     19  C         4.8551844397   -1.5855421629    1.0080438224
     20  C         6.4148165145   -1.7134299633    0.7943842845
     21  C         6.8185924814   -0.2029241717    0.6192248975
     22  C         5.4194834362    0.5093383092    0.7946911293
     23  O         4.7127234903   -0.3360568141    1.7841319528
     24  H         4.6746158509   -1.8123255699   -1.2001221931
     25  H         5.1776697171    0.4605296656   -1.4406439020
     26  H         4.3799638686   -2.4344497767    1.5375274192
     27  H         6.8872537562   -2.1578032782    1.6850351197
     28  H         6.6666009949   -2.3286853329   -0.0840827486
     29  H         7.5201965942    0.1227476475    1.4035427947
     30  H         7.2664581900    0.0066785201   -0.3651760026
     31  H         5.4595535508    1.5578500183    1.1476817149
     32  O        -1.7549526423   -0.7032876166   -2.0664418885
     33  C        -2.7431295770    3.6243880962    0.6116618201
     34  C        -4.8669485637   -0.9387432793    1.1105884632
     35  C        -6.2706247299   -1.5223249880    0.6926187493
     36  C        -5.9693220389   -1.9229692179   -0.8015626343
     37  C        -4.4013625005   -1.7280468407   -0.8741191200
     38  O        -3.9383042448   -1.9351948553    0.5249252716
     39  H        -5.6736970493    0.7215628700   -0.0665869473
     40  H        -4.3654536540    0.2658237527   -1.9969687039
     41  H        -3.3324338947    3.8459997725    1.5244600037
     42  H        -4.6902705450   -0.8174764102    2.1968383406
     43  H        -6.5150525029   -2.4070257748    1.3027222591
     44  H        -7.0849644721   -0.7861752898    0.7870470276
     45  H        -6.2392443725   -2.9707925723   -1.0065013111
     46  H        -6.4936593886   -1.2779935070   -1.5252772182
     47  H        -3.8742540060   -2.4168511176   -1.5629106419
     48  H        -2.8694603162    4.4293811650   -0.1373401985
     49  H        -1.6698219492    3.5327680649    0.8739870263
     50  H         1.0827416236    2.0576844581   -2.5320697194
     51  H         2.2826056337    3.3966777438   -2.6938515988
     52  H         1.6846932608    2.9153962810   -1.0465362273
     53  H         0.1788355369   -1.7737017284    0.3181226428
     54  H         0.0921756330   -1.1563117231   -1.3786357747
     55  H        -0.1320784639    0.6147433270    1.1770332700
     56  H        -0.0751857942    1.2250383038   -0.5136878234

Z-matrix Print:
$molecule
0 1
O 
C  1 1.423241
O  2 1.252548 1 125.965850
C  1 1.484410 2 114.587142 3 3.785951 0
H  4 1.108801 1 105.045696 2 -169.381353 0
H  4 1.111766 1 108.935200 2 74.923973 0
C  4 1.570534 1 116.233229 2 -47.505977 0
H  7 1.110782 4 111.251529 1 -61.575910 0
H  7 1.111218 4 108.925121 1 58.455611 0
O  7 1.483294 4 104.781799 1 178.257027 0
C  10 1.423969 7 111.166013 4 169.387982 0
O  11 1.251020 10 123.870275 7 -3.292414 0
C  11 1.569529 10 111.007188 7 177.656976 0
H  13 1.105267 11 105.907286 10 -137.774073 0
C  2 1.582230 1 110.432586 3 -178.586976 0
H  15 1.103980 2 109.769743 1 129.687178 0
C  15 1.573980 2 117.117926 1 -1.675009 0
H  17 1.108152 15 106.039132 2 157.799771 0
C  17 1.569161 15 120.118815 2 42.668256 0
O  19 1.251989 17 125.020146 15 -176.358054 0
O  19 1.435019 17 109.922425 15 17.990364 0
C  21 1.480302 19 110.417768 17 175.050990 0
H  22 1.106787 21 108.163072 19 -133.312270 0
H  22 1.108692 21 109.537777 19 107.625959 0
H  22 1.108870 21 109.603251 19 -12.712457 0
C  13 1.589539 11 119.342826 10 -13.382033 0
H  26 1.104583 13 109.824134 11 -118.372139 0
C  26 1.570986 13 117.365838 11 4.883682 0
O  28 1.250056 26 128.116088 13 89.465989 0
O  28 1.437500 26 107.390243 13 -93.210227 0
C  30 1.479829 28 110.422759 26 179.985914 0
H  31 1.107626 30 108.910803 28 123.970756 0
H  31 1.108398 30 109.260837 28 -116.946592 0
H  31 1.109371 30 109.320385 28 3.615069 0
C  26 1.589335 13 100.499033 11 123.552995 0
H  35 1.107061 26 114.039735 13 -156.412218 0
O  35 1.480944 26 103.236194 13 -36.881920 0
C  37 1.477776 35 94.920880 26 57.910068 0
H  38 1.107624 37 110.830894 35 -179.442015 0
C  38 1.579385 37 103.574311 35 56.427755 0
H  40 1.101653 38 112.258680 37 -156.356405 0
H  40 1.101782 38 110.287579 37 82.211243 0
C  40 1.573322 38 100.996553 37 -35.862642 0
H  43 1.101574 40 111.594004 38 118.711816 0
H  43 1.101618 40 112.736487 38 -118.588193 0
C  17 1.595494 15 101.836230 2 -90.682775 0
H  46 1.107185 17 115.311643 15 141.864334 0
O  46 1.482666 17 104.996675 15 19.157202 0
C  48 1.488173 46 94.755894 17 -50.468560 0
H  49 1.107578 48 110.486945 46 -177.547877 0
C  46 1.576570 17 105.887821 15 -88.060013 0
H  51 1.101809 46 112.830510 17 -54.314905 0
H  51 1.102119 46 110.354981 17 -176.473190 0
C  51 1.576032 46 100.092077 17 66.173961 0
H  54 1.101268 51 111.804727 46 127.358117 0
H  54 1.102128 51 112.509064 46 -110.193477 0
$end

 
 --------------------------------------------------------------
 
                    Orbital Energies (a.u.)
 --------------------------------------------------------------
 
 Alpha MOs
 -- Occupied --
-18.942 -18.938 -18.931 -18.925 -18.888 -18.887 -18.875 -18.873
-18.872 -18.867 -10.106 -10.101 -10.101 -10.097 -10.075 -10.065
-10.061 -10.061 -10.060 -10.058 -10.057 -10.055 -10.041 -10.039
-10.038 -10.036 -10.023 -10.021 -10.020 -10.019  -1.018  -1.014
 -1.007  -1.002  -0.971  -0.970  -0.942  -0.937  -0.933  -0.929
 -0.765  -0.762  -0.730  -0.722  -0.709  -0.704  -0.698  -0.659
 -0.659  -0.615  -0.598  -0.588  -0.546  -0.543  -0.538  -0.537
 -0.515  -0.510  -0.491  -0.472  -0.463  -0.458  -0.455  -0.442
 -0.435  -0.430  -0.429  -0.411  -0.410  -0.408  -0.407  -0.400
 -0.389  -0.386  -0.376  -0.366  -0.365  -0.362  -0.352  -0.348
 -0.344  -0.340  -0.333  -0.332  -0.329  -0.325  -0.318  -0.314
 -0.309  -0.308  -0.306  -0.302  -0.298  -0.294  -0.292  -0.273
 -0.270  -0.248  -0.247  -0.244  -0.240  -0.235  -0.234  -0.187
 -0.179  -0.167  -0.164  -0.157  -0.155  -0.149  -0.148  -0.146
 -0.144
 -- Virtual --
  0.097   0.098   0.101   0.110   0.203   0.238   0.242   0.250
  0.263   0.272   0.281   0.285   0.302   0.313   0.328   0.328
  0.331   0.337   0.342   0.344   0.350   0.352   0.364   0.372
  0.376   0.380   0.384   0.388   0.394   0.399   0.408   0.413
  0.415   0.418   0.419   0.422   0.426   0.429   0.436   0.438
  0.439   0.440   0.443   0.446   0.451   0.452   0.456   0.466
  0.468   0.469   0.488   0.490   0.491   0.504   0.507   0.535
  0.543   0.553   0.554   0.626   0.637   0.647   0.653
 --------------------------------------------------------------
 
          Ground-State Mulliken Net Atomic Charges

     Atom                 Charge (a.u.)
  ----------------------------------------
      1 O                    -0.218480
      2 C                     0.215647
      3 C                    -0.079150
      4 C                    -0.073825
      5 C                     0.220064
      6 O                    -0.162652
      7 C                    -0.045776
      8 C                    -0.056810
      9 O                    -0.171266
     10 C                     0.210652
     11 C                    -0.078651
     12 C                    -0.079781
     13 C                     0.220217
     14 O                    -0.217788
     15 O                    -0.168440
     16 O                    -0.174075
     17 O                    -0.214407
     18 C                    -0.137138
     19 C                     0.025761
     20 C                    -0.143297
     21 C                    -0.144730
     22 C                     0.026003
     23 O                    -0.187307
     24 H                     0.086378
     25 H                     0.085200
     26 H                     0.085213
     27 H                     0.078408
     28 H                     0.074328
     29 H                     0.077978
     30 H                     0.073351
     31 H                     0.085862
     32 O                    -0.220353
     33 C                    -0.136288
     34 C                     0.025168
     35 C                    -0.140397
     36 C                    -0.146315
     37 C                     0.022498
     38 O                    -0.192427
     39 H                     0.083904
     40 H                     0.088104
     41 H                     0.101920
     42 H                     0.088973
     43 H                     0.078559
     44 H                     0.074558
     45 H                     0.079357
     46 H                     0.073761
     47 H                     0.085925
     48 H                     0.085061
     49 H                     0.084353
     50 H                     0.083366
     51 H                     0.083754
     52 H                     0.098288
     53 H                     0.092403
     54 H                     0.109149
     55 H                     0.097607
     56 H                     0.087585
  ----------------------------------------
  Sum of atomic charges =    -0.000000

 -----------------------------------------------------------------
                    Cartesian Multipole Moments
 -----------------------------------------------------------------
    Charge (ESU x 10^10)
                 0.0000
    Dipole Moment (Debye)
         X      -0.1932      Y       1.2319      Z      -1.8341
       Tot       2.2178
    Quadrupole Moments (Debye-Ang)
        XX    -134.6406     XY       0.8384     YY    -159.7292
        XZ       2.6118     YZ      -5.7229     ZZ    -167.0038
    Octopole Moments (Debye-Ang^2)
       XXX      25.0390    XXY     -34.3902    XYY      -5.0868
       YYY      57.9315    XXZ     -41.3235    XYZ       2.6555
       YYZ       0.8391    XZZ      -0.0319    YZZ      -1.5071
       ZZZ      22.6606
    Hexadecapole Moments (Debye-Ang^3)
      XXXX  -15271.0417   XXXY     181.3955   XXYY   -3164.5632
      XYYY     117.2958   YYYY   -2686.6648   XXXZ     113.6003
      XXYZ     -63.6006   XYYZ      30.7750   YYYZ     -38.3988
      XXZZ   -3031.5127   XYZZ      64.4140   YYZZ    -643.0101
      XZZZ     -23.6620   YZZZ     -37.8840   ZZZZ   -1237.8542
 -----------------------------------------------------------------
Archival summary:
1\1\vega02.cac.cornell.edu\OPT\ProcedureUnspecified\STO-3G\102026\jj585\WedJan1708:52:092018WedJan1708:52:092018\0\\#,OPT,ProcedureUnspecified,STO-3G,\\0,1\O\C,1,1.42324\O,2,1.25255,1,125.966\C,1,1.48441,2,114.587,3,3.78595,0\H,4,1.1088,1,105.046,2,-169.381,0\H,4,1.11177,1,108.935,2,74.924,0\C,4,1.57053,1,116.233,2,-47.506,0\H,7,1.11078,4,111.252,1,-61.5759,0\H,7,1.11122,4,108.925,1,58.4556,0\O,7,1.48329,4,104.782,1,178.257,0\C,10,1.42397,7,111.166,4,169.388,0\O,11,1.25102,10,123.87,7,-3.29241,0\C,11,1.56953,10,111.007,7,177.657,0\H,13,1.10527,11,105.907,10,-137.774,0\C,2,1.58223,1,110.433,3,-178.587,0\H,15,1.10398,2,109.77,1,129.687,0\C,15,1.57398,2,117.118,1,-1.67501,0\H,17,1.10815,15,106.039,2,157.8,0\C,17,1.56916,15,120.119,2,42.6683,0\O,19,1.25199,17,125.02,15,-176.358,0\O,19,1.43502,17,109.922,15,17.9904,0\C,21,1.4803,19,110.418,17,175.051,0\H,22,1.10679,21,108.163,19,-133.312,0\H,22,1.10869,21,109.538,19,107.626,0\H,22,1.10887,21,109.603,19,-12.7125,0\C,13,1.58954,11,119.343,10,-13.382,0\H,26,1.10458,13,109.824,11,-118.372,0\C,26,1.57099,13,117.366,11,4.88368,0\O,28,1.25006,26,128.116,13,89.466,0\O,28,1.4375,26,107.39,13,-93.2102,0\C,30,1.47983,28,110.423,26,179.986,0\H,31,1.10763,30,108.911,28,123.971,0\H,31,1.1084,30,109.261,28,-116.947,0\H,31,1.10937,30,109.32,28,3.61507,0\C,26,1.58934,13,100.499,11,123.553,0\H,35,1.10706,26,114.04,13,-156.412,0\O,35,1.48094,26,103.236,13,-36.8819,0\C,37,1.47778,35,94.9209,26,57.9101,0\H,38,1.10762,37,110.831,35,-179.442,0\C,38,1.57939,37,103.574,35,56.4278,0\H,40,1.10165,38,112.259,37,-156.356,0\H,40,1.10178,38,110.288,37,82.2112,0\C,40,1.57332,38,100.997,37,-35.8626,0\H,43,1.10157,40,111.594,38,118.712,0\H,43,1.10162,40,112.736,38,-118.588,0\C,17,1.59549,15,101.836,2,-90.6828,0\H,46,1.10719,17,115.312,15,141.864,0\O,46,1.48267,17,104.997,15,19.1572,0\C,48,1.48817,46,94.7559,17,-50.4686,0\H,49,1.10758,48,110.487,46,-177.548,0\C,46,1.57657,17,105.888,15,-88.06,0\H,51,1.10181,46,112.831,17,-54.3149,0\H,51,1.10212,46,110.355,17,-176.473,0\C,51,1.57603,46,100.092,17,66.174,0\H,54,1.10127,51,111.805,46,127.358,0\H,54,1.10213,51,112.509,46,-110.193,0\\\@

 Total job time:  76.51s(wall), 3638.04s(cpu) 
 Wed Jan 17 08:52:09 2018

        *************************************************************
        *                                                           *
        *  Thank you very much for using Q-Chem.  Have a nice day.  *
        *                                                           *
        *************************************************************


0 sent ACK to 0 
now end server 0 ... 
