mFile = /opt/software/qchem/qchem-5.0.1//bin/mpi/machines
Process 0 of 1 is on vega02.cac.cornell.edu - thread support 0
initial socket setup ...start
initial socket setup ...done 
now start server 0 ... 
vega02.cac.cornell.edu 10.84.3
Q-Chem Developer Version! Running on 10.84.3.*
                  Welcome to Q-Chem
     A Quantum Leap Into The Future Of Chemistry


 Q-Chem 5.0, Q-Chem, Inc., Pleasanton, CA (2017)

 Yihan Shao,  Zhengting Gan,  E. Epifanovsky,  A. T. B. Gilbert,  M. Wormit,  
 J. Kussmann,  A. W. Lange,  A. Behn,  Jia Deng,  Xintian Feng,  D. Ghosh,  
 M. Goldey,  P. R. Horn,  L. D. Jacobson,  I. Kaliman,  T. Kus,  A. Landau,  
 Jie Liu,  E. I. Proynov,  R. M. Richard,  R. P. Steele,  E. J. Sundstrom,  
 H. L. Woodcock III,  P. M. Zimmerman,  D. Zuev,  B. Albrecht,  E. Alguire,  
 S. A. Baeppler,  Z. Benda,  Y. A. Bernard,  E. J. Berquist,  K. B. Bravaya,  
 D. Casanova,  Chun-Min Chang,  Yunqing Chen,  A. Chien,  K. D. Closser,  
 M. P. Coons,  S. Dasgupta,  M. Diedenhofen,  Hainam Do,  R. G. Edgar,  
 Po-Tung Fang,  S. Fatehi,  Qingguo Feng,  Qinghui Ge,  A. Ghysels,  
 J. Gomes,  J. Gonthier,  A. Gunina,  M. W. D. Hanson-Heine,  
 P. H. P. Harbach,  A. W. Hauser,  J. E. Herr,  E. G. Hohenstein,  
 Z. C. Holden,  Kerwin Hui,  T.-C. Jagau,  Hyunjun Ji,  B. Kaduk,  
 K. Khistyaev,  Jaehoon Kim,  P. Klunzinger,  K. Koh,  D. Kosenkov,  
 T. Kowalczyk,  C. M. Krauter,  A. Kunitsa,  Ka Un Lao,  A. Laurent,  
 K. V. Lawler,  Joonho Lee,  D. Lefrancois,  S. Lehtola,  D. S. Levine,  
 Yi-Pei Li,  You-Sheng Lin,  Fenglai Liu,  E. Livshits,  A. Luenser,  
 P. Manohar,  E. Mansoor,  S. F. Manzer,  Shan-Ping Mao,  Yuezhi Mao,  
 N. Mardirossian,  A. V. Marenich,  L. A. Martinez-Martinez,  S. A. Maurer,  
 N. J. Mayhall,  S. C. McKenzie,  J.-M. Mewes,  A. F. Morrison,  K. Nanda,  
 T. S. Nguyen-Beck,  R. Olivares-Amaya,  J. A. Parkhill,  T. M. Perrine,  
 F. Plasser,  S. Prager,  A. Prociuk,  D. R. Rehn,  F. Rob,  M. Schneider,  
 N. Sergueev,  S. M. Sharada,  S. Sharma,  D. W. Small,  T. Stauch,  
 T. Stein,  Yu-Chuan Su,  A. J. W. Thom,  T. Tsuchimochi,  L. Vogt,  
 O. Vydrov,  M. A. Watson,  J. Wenzel,  M. de Wergifosse,  T. A. Wesolowski,  
 A. White,  J. Witte,  A. Yamada,  Jun Yang,  K. Yao,  S. Yeganeh,  
 S. R. Yost,  Zhi-Qiang You,  A. Zech,  Igor Ying Zhang,  Xing Zhang,  
 Yan Zhao,  Ying Zhu,  B. R. Brooks,  G. K. L. Chan,  C. J. Cramer,  
 M. S. Gordon,  W. J. Hehre,  A. Klamt,  M. W. Schmidt,  C. D. Sherrill,  
 D. G. Truhlar,  A. Aspuru-Guzik,  R. Baer,  A. T. Bell,  N. A. Besley,  
 Jeng-Da Chai,  A. Dreuw,  B. D. Dunietz,  T. R. Furlani,  Chao-Ping Hsu,  
 Yousung Jung,  Jing Kong,  D. S. Lambrecht,  WanZhen Liang,  C. Ochsenfeld,  
 V. A. Rassolov,  L. V. Slipchenko,  J. E. Subotnik,  T. Van Voorhis,  
 J. M. Herbert,  A. I. Krylov,  P. M. W. Gill,  M. Head-Gordon

 Contributors to earlier versions of Q-Chem not listed above: 
 R. D. Adamson,  B. Austin,  J. Baker,  G. J. O. Beran,  K. Brandhorst,  
 S. T. Brown,  E. F. C. Byrd,  A. K. Chakraborty,  C.-L. Cheng,  
 Siu Hung Chien,  D. M. Chipman,  D. L. Crittenden,  H. Dachsel,  
 R. A. DiStasio Jr.,  R. J. Doerksen,  A. D. Dutoi,  L. Fusti-Molnar,  
 W. A. Goddard III,  A. Golubeva-Zadorozhnaya,  S. R. Gwaltney,  G. Hawkins,  
 A. Heyden,  S. Hirata,  G. Kedziora,  F. J. Keil,  C. Kelley,  Jihan Kim,  
 R. A. King,  R. Z. Khaliullin,  P. P. Korambath,  W. Kurlancheek,  
 A. M. Lee,  M. S. Lee,  S. V. Levchenko,  Ching Yeh Lin,  D. Liotard,  
 R. C. Lochan,  I. Lotan,  P. E. Maslen,  N. Nair,  D. P. O'Neill,  
 D. Neuhauser,  E. Neuscamman,  C. M. Oana,  R. Olson,  B. Peters,  
 R. Peverati,  P. A. Pieniazek,  Y. M. Rhee,  J. Ritchie,  M. A. Rohrdanz,  
 E. Rosta,  N. J. Russ,  H. F. Schaefer III,  N. E. Schultz,  N. Shenvi,  
 A. C. Simmonett,  A. Sodt,  D. Stuck,  K. S. Thanthiriwatte,  V. Vanovschi,  
 Tao Wang,  A. Warshel,  C. F. Williams,  Q. Wu,  X. Xu,  W. Zhang

 Please cite Q-Chem as follows:
 Y. Shao et al., Mol. Phys. 113, 184-215 (2015)
 DOI: 10.1080/00268976.2014.952696

 Q-Chem 5.0.1 for Intel X86 EM64T Linux

 Parts of Q-Chem use Armadillo 5.200.1 (Boston Tea Smuggler).
 http://arma.sourceforge.net/

 Q-Chem begins on Wed Jan 17 10:12:38 2018  

Host: vega02.cac.cornell.edu
0

     Scratch files written to /scratch/jj585/SOT1001/1465c.save//
 Parallel job on  1  processors

Checking the input file for inconsistencies... 	...done.

--------------------------------------------------------------
User input:
--------------------------------------------------------------
$molecule
0  1
O -3.94934 -3.66094 2.70899
C -3.26408 -4.56952 2.26188
C -3.36658 -6.02376 2.66595
C -2.44047 -6.50644 3.79431
C -1.64206 -5.44176 4.5134
O -0.93232 -4.70409 3.60922
C 0.11112 -3.92947 4.20962
C -0.35445 -3.36972 5.54979
O 0.69608 -2.59398 6.14769
C 0.35546 -1.33226 6.50991
C 1.47242 -0.60097 7.2158
C 2.72567 -1.44455 7.49155
C 2.82546 -2.74915 6.72687
O 3.5053 -2.93501 5.72795
O -2.2954 -4.27178 1.35556
O 2.43619 -3.8439 7.44398
O -0.70779 -0.78639 6.24244
C 2.68307 -5.1526 7.08402
C 2.05936 0.56542 6.40419
C 2.71 1.5687 7.35408
C 3.92176 0.78062 7.80865
C 3.78405 -0.468 6.928
O 3.17278 0.00876 5.75285
H 1.03527 -0.21872 8.16591
H 2.90379 -1.65265 8.57024
H 1.31239 1.07195 5.75478
H 3.05537 2.42642 6.7332
H 2.05761 1.94724 8.17018
H 4.83468 1.35619 7.5378
H 3.94164 0.51808 8.88854
H 4.77681 -0.95328 6.79813
O -2.14018 -5.06513 5.56678
C -2.02981 -3.00043 0.89157
C -4.74162 -6.36079 3.29335
C -5.04237 -7.8487 3.11994
C -4.05167 -8.4498 4.09275
C -3.47967 -7.17484 4.72369
O -4.54552 -6.2602 4.68153
H -3.28638 -6.61963 1.72873
H -1.69574 -7.24762 3.42915
H -1.73535 -2.33952 1.73491
H -5.57747 -5.75873 2.87376
H -6.07101 -8.01699 3.51288
H -4.98293 -8.23653 2.08031
H -4.6151 -9.04753 4.84329
H -3.2515 -9.06994 3.63375
H -3.06338 -7.40105 5.73017
H -2.92493 -2.58407 0.38201
H -1.19295 -3.04595 0.16496
H 2.25094 -5.82739 7.85092
H 3.77772 -5.33228 7.0261
H 2.21616 -5.38254 6.10652
H -1.31906 -2.82544 5.42769
H -0.39273 -4.16511 6.31888
H 0.35935 -3.09369 3.52216
H 1.01967 -4.55135 4.34031
$end

$opt
CONSTRAINT
tors           1           2           3           4     -93.007
tors           3           4           5           6     -54.082
tors           4           5           6           7    -164.032
tors           5           6           7           8     -38.260
tors           6           7           8           9    +179.985
tors           7           8           9          10    +126.619
tors           8           9          10          11    +176.104
tors           9          10          11          12      -4.744
tors          11          12          13          14    +100.833
ENDCONSTRAINT
$end

$rem
JOBTYPE                   OPT
METHOD                    B3LYP
DFT_D                     d3_op
BASIS                     STO-3G
GEOM_OPT_MAX_CYCLES       100
GEOM_OPT_TOL_GRADIENT     300
GEOM_OPT_TOL_DISPLACEMENT 1200
GEOM_OPT_TOL_ENERGY       100
SYMMETRY                  False
THRESH                    12
SCF_CONVERGENCE           8
MAX_SUB_FILE_NUM          128
MEM_STATIC                400
MEM_TOTAL                 4000
$end
--------------------------------------------------------------
 Adding empirical dispersion correction 
 ----------------------------------------------------------------
 Doing -D3(op) with
 s6 =   1.00000
 s8 =   0.78311
 a1 =   0.30000
 a2 =   4.25000
 n  =  10.00000
 -D3 energy without 3body term =     -0.0691096708 hartrees
 ----------------------------------------------------------------
             Standard Nuclear Orientation (Angstroms)
    I     Atom           X                Y                Z
 ----------------------------------------------------------------
    1      O      -3.4736734263     2.3671798286     0.6275638494
    2      C      -3.7185948144     1.7445283693    -0.3958250845
    3      C      -4.4998808276     0.4510822648    -0.4678121167
    4      C      -3.6963443814    -0.8587982416    -0.4188402624
    5      C      -2.2179578416    -0.7325015147    -0.1247062212
    6      O      -1.6419761616     0.1367587540    -1.0067839153
    7      C      -0.2139570910     0.0420519271    -1.0395785633
    8      C       0.3297901966    -0.1908552130     0.3662038763
    9      O       1.7624177872    -0.2854073770     0.3273668677
   10      C       2.4247191213     0.5460931453     1.1694633559
   11      C       3.9198504664     0.3342460827     1.1502675013
   12      C       4.3961147804    -0.8404642459     0.2833599004
   13      C       3.3807274417    -1.3925686249    -0.6968666110
   14      O       3.3454223804    -1.1476417529    -1.8940850170
   15      O      -3.2267124410     2.2077255981    -1.5756157652
   16      O       2.7395606942    -2.5154083910    -0.2582420459
   17      O       1.9056813221     1.4357583057     1.8321174782
   18      C       1.9848339342    -3.3547594489    -1.0513964731
   19      C       4.7038425212     1.5062376285     0.5375136663
   20      C       6.1343973742     1.4952096864     1.0719155537
   21      C       6.6860779938     0.2688115164     0.3735873419
   22      C       5.4929320598    -0.1005502042    -0.5172185128
   23      O       4.8862449127     1.1366619556    -0.8056026493
   24      H       4.2221264612     0.1908655816     2.2123388039
   25      H       4.8240278615    -1.6880841809     0.8639073157
   26      H       4.2294841582     2.4960699556     0.7149573968
   27      H       6.6413732315     2.3975504822     0.6605609890
   28      H       6.2314978296     1.4938970415     2.1789359836
   29      H       7.5579844386     0.5805671058    -0.2433819263
   30      H       6.9718163237    -0.5719501267     1.0421367749
   31      H       5.8413363070    -0.6884978158    -1.3952090591
   32      O      -1.9204209142    -0.9225809854     1.0478656049
   33      C      -2.4652809268     3.3503829557    -1.7048899048
   34      C      -5.4087468638     0.2473257990     0.7692815796
   35      C      -6.5775302515    -0.6693055704     0.4113289516
   36      C      -5.8617626167    -1.9952731775     0.2747507912
   37      C      -4.4499997394    -1.5908714442     0.7154061005
   38      O      -4.6605688750    -0.5583622452     1.6449034975
   39      H      -5.1731867299     0.5361096435    -1.3505940445
   40      H      -3.7671310527    -1.4230625038    -1.3748253463
   41      H      -1.5297504115     3.2552895929    -1.1128840073
   42      H      -5.7964238494     1.1996297656     1.1935467612
   43      H      -7.2376071727    -0.7139529583     1.3075034247
   44      H      -7.1814285773    -0.3620670102    -0.4694020168
   45      H      -6.3132541470    -2.7137648750     0.9944520403
   46      H      -5.8588165895    -2.4305622480    -0.7480108597
   47      H      -3.8959618935    -2.4818665892     1.0850546301
   48      H      -3.0410949278     4.2353200444    -1.3590988654
   49      H      -2.1991640586     3.4911858180    -2.7724690300
   50      H       1.5850373853    -4.1804610292    -0.4280241040
   51      H       2.6156342493    -3.7881539435    -1.8564793420
   52      H       1.1340402384    -2.8060286305    -1.5002039795
   53      H      -0.0638312203     0.5815910523     1.0662113962
   54      H       0.1326087770    -1.2278827303     0.6998256004
   55      H       0.1858657798     0.9969875339    -1.4408107303
   56      H       0.0976321482    -0.7763286391    -1.7196102596
 ----------------------------------------------------------------
 Molecular Point Group                 C1    NOp =  1
 Largest Abelian Subgroup              C1    NOp =  1
 Nuclear Repulsion Energy =  3205.8945820802 hartrees
 There are      113 alpha and      113 beta electrons
 Requested basis set is STO-3G
 There are 86 shells and 176 basis functions

 Total QAlloc Memory Limit   4000 MB
 Mega-Array Size       392 MB
 MEM_STATIC part       400 MB
 A cutoff of  1.0D-12 yielded   2126 shell pairs
 There are      9989 function pairs
 
 -------------------------------------------------------
 OpenMP Integral Computing Module                       
 Release: version 1.0, May 2013, Q-Chem Inc. Pittsburgh 
 -------------------------------------------------------
 Integral Job Info:
 Integral job number is                      11
 Integral operator is                         1
 short-range coefficients                     0
 long-range coefficients              100000000
 Omega coefficients                           0
 if combine SR and LR in K                    0
 Integral screening is                        0
 Integral computing path is                   2
 max size of driver memory is            800000
 size of driver memory is                 45569
 size of scratch memory is              1046100
 max col of scratch BK array                289
 max len of scratch array in speh3           22
 max len of scratch index in speh4            8
 max int batch size is                      520
 min int batch size is                       52
 fixed nKL is                                52
 max L of basis functions is                  1
 order of int derivative is                   0
 number of shells is                         86
 number of basis is                         176
 number of cartesian basis is               176
 number of contracted shell pairs          2126
 number of primitive shell pairs          11112
 maxK2 (contraction) of shell pair            9
 max number of K2 of shell pair               1
 max number of CS2 of shell pair            295
 max number of PS2 of shell pair           1272
 mem total for path MDJ                   52746
 -------------------------------------------------------
 Smallest overlap matrix eigenvalue = 1.93E-01

 Scale SEOQF with 1.000000e-02/1.000000e-01/1.000000e-01

 Standard Electronic Orientation quadrupole field applied
 Nucleus-field energy     =     0.0000000266 hartrees
 Guess from superposition of atomic densities
 Warning:  Energy on first SCF cycle will be non-variational
 A restricted hybrid HF-DFT SCF calculation will be
 performed using Pulay DIIS extrapolation
 Exchange:     0.2000 Hartree-Fock + 0.0800 Slater + 0.7200 B88
 Correlation:  0.1900 VWN1RPA + 0.8100 LYP
 Using SG-1 standard quadrature grid
 Dispersion:   Grimme D3
 SCF converges when DIIS error is below 1.0E-08
 using 48 threads for integral computing
 -------------------------------------------------------
 OpenMP Integral computing Module                
 Release: version 1.0, May 2013, Q-Chem Inc. Pittsburgh 
 -------------------------------------------------------
 -------------------------------------------------------
 OpenMP BLAS3 based DFT computing Module                
 Release: version 1.0, May 2013, Q-Chem Inc. Pittsburgh 
 -------------------------------------------------------
 ---------------------------------------
  Cycle       Energy         DIIS Error
 ---------------------------------------
    1   -1509.4856775677      8.30E-02
    2   -1509.5478721708      1.06E-02
    3   -1507.2124964719      2.72E-02
    4   -1510.0473027784      3.84E-03
    5   -1510.1045376030      1.37E-03
    6   -1510.1121673436      3.58E-04
    7   -1510.1126816492      1.26E-04
    8   -1510.1127474317      3.30E-05
    9   -1510.1127513144      1.44E-05
   10   -1510.1127521290      4.39E-06
   11   -1510.1127522135      8.27E-07
   12   -1510.1127522166      1.87E-07
   13   -1510.1127522166      9.09E-08
   14   -1510.1127522166      4.28E-08
   15   -1510.1127522167      6.76E-09 Convergence criterion met
 ---------------------------------------
 SCF time:  CPU 112.25 s  wall 2.39 s
 SCF   energy in the final basis set = -1510.11275222
 Total energy in the final basis set = -1510.11275222
 
 --------------------------------------------------------------
 
                    Orbital Energies (a.u.)
 --------------------------------------------------------------
 
 Alpha MOs
 -- Occupied --
-18.963 -18.958 -18.927 -18.909 -18.897 -18.895 -18.886 -18.864
-18.852 -18.837 -10.120 -10.113 -10.107 -10.105 -10.096 -10.084
-10.079 -10.076 -10.068 -10.065 -10.064 -10.064 -10.039 -10.036
-10.034 -10.034 -10.015 -10.015 -10.014 -10.014  -1.061  -1.053
 -1.038  -1.028  -1.022  -1.021  -0.974  -0.957  -0.943  -0.933
 -0.785  -0.780  -0.751  -0.741  -0.730  -0.720  -0.715  -0.679
 -0.677  -0.641  -0.606  -0.600  -0.556  -0.553  -0.536  -0.536
 -0.524  -0.520  -0.509  -0.492  -0.483  -0.479  -0.475  -0.463
 -0.454  -0.443  -0.441  -0.428  -0.425  -0.422  -0.418  -0.417
 -0.407  -0.404  -0.388  -0.387  -0.384  -0.370  -0.366  -0.361
 -0.357  -0.347  -0.345  -0.342  -0.331  -0.329  -0.326  -0.318
 -0.315  -0.308  -0.307  -0.306  -0.296  -0.296  -0.294  -0.278
 -0.275  -0.261  -0.235  -0.234  -0.232  -0.221  -0.213  -0.194
 -0.186  -0.168  -0.158  -0.155  -0.151  -0.150  -0.149  -0.136
 -0.128
 -- Virtual --
  0.075   0.112   0.121   0.130   0.217   0.244   0.253   0.291
  0.298   0.312   0.328   0.336   0.340   0.341   0.344   0.355
  0.360   0.374   0.377   0.383   0.387   0.391   0.394   0.397
  0.400   0.405   0.407   0.408   0.413   0.417   0.421   0.426
  0.429   0.433   0.434   0.440   0.444   0.450   0.453   0.457
  0.460   0.468   0.469   0.473   0.483   0.487   0.489   0.491
  0.500   0.506   0.508   0.518   0.518   0.547   0.549   0.561
  0.566   0.581   0.583   0.671   0.689   0.698   0.700
 --------------------------------------------------------------
 
          Ground-State Mulliken Net Atomic Charges

     Atom                 Charge (a.u.)
  ----------------------------------------
      1 O                    -0.235324
      2 C                     0.235695
      3 C                    -0.082345
      4 C                    -0.080022
      5 C                     0.226295
      6 O                    -0.178420
      7 C                    -0.039509
      8 C                    -0.041985
      9 O                    -0.181437
     10 C                     0.233750
     11 C                    -0.084404
     12 C                    -0.083651
     13 C                     0.250945
     14 O                    -0.250392
     15 O                    -0.209977
     16 O                    -0.222432
     17 O                    -0.232723
     18 C                    -0.098201
     19 C                     0.038685
     20 C                    -0.141069
     21 C                    -0.144722
     22 C                     0.042880
     23 O                    -0.209073
     24 H                     0.088701
     25 H                     0.086172
     26 H                     0.087918
     27 H                     0.075375
     28 H                     0.073178
     29 H                     0.076159
     30 H                     0.071346
     31 H                     0.086417
     32 O                    -0.203218
     33 C                    -0.097090
     34 C                     0.042145
     35 C                    -0.142574
     36 C                    -0.144595
     37 C                     0.042402
     38 O                    -0.207019
     39 H                     0.086779
     40 H                     0.076541
     41 H                     0.084852
     42 H                     0.087803
     43 H                     0.075599
     44 H                     0.071042
     45 H                     0.075586
     46 H                     0.070531
     47 H                     0.085280
     48 H                     0.085834
     49 H                     0.093180
     50 H                     0.089820
     51 H                     0.082907
     52 H                     0.074392
     53 H                     0.116365
     54 H                     0.105321
     55 H                     0.099876
     56 H                     0.090415
  ----------------------------------------
  Sum of atomic charges =     0.000000

 -----------------------------------------------------------------
                    Cartesian Multipole Moments
 -----------------------------------------------------------------
    Charge (ESU x 10^10)
                 0.0000
    Dipole Moment (Debye)
         X      -0.1756      Y      -1.9705      Z      -1.7326
       Tot       2.6297
    Quadrupole Moments (Debye-Ang)
        XX    -142.9375     XY       0.8439     YY    -153.4680
        XZ      16.3077     YZ      -2.8345     ZZ    -170.1718
    Octopole Moments (Debye-Ang^2)
       XXX      -1.8201    XXY     -15.2103    XYY      -6.2232
       YYY       0.9216    XXZ      13.9949    XYZ       9.8897
       YYZ     -25.3688    XZZ       2.5730    YZZ      -0.9198
       ZZZ      -2.4361
    Hexadecapole Moments (Debye-Ang^3)
      XXXX  -15087.2883   XXXY     -80.6328   XXYY   -3038.3835
      XYYY    -104.4150   YYYY   -2327.6193   XXXZ     147.4247
      XXYZ       3.3070   XYYZ      -3.8538   YYYZ     -40.3453
      XXZZ   -2947.6144   XYZZ     -37.7539   YYZZ    -582.3114
      XZZZ       9.1708   YZZZ     -20.6057   ZZZZ   -1120.5317
 -----------------------------------------------------------------
 Calculating analytic gradient of the SCF energy
 Gradient of SCF Energy
            1           2           3           4           5           6
    1  -0.0061485  -0.0169879   0.0282631   0.0185664   0.0584014   0.0012288
    2  -0.0288578  -0.0144537  -0.0093198   0.0386375  -0.0194638  -0.0208439
    3  -0.0658073  -0.0184642   0.0418527   0.0719635  -0.0268013   0.0497398
            7           8           9          10          11          12
    1  -0.0240116  -0.0034037  -0.0143472  -0.0203375  -0.0050044  -0.0217146
    2  -0.0075090   0.0220458   0.0127460  -0.0224703   0.0280847   0.0228012
    3   0.0147539  -0.0234860   0.0354561  -0.0088962  -0.0402832  -0.0307159
           13          14          15          16          17          18
    1  -0.0006471   0.0013013   0.0400133  -0.0201079   0.0324815   0.0203467
    2   0.0182400  -0.0331907   0.0759056   0.0192359  -0.0379694   0.0140108
    3   0.0298615   0.0658652   0.0890161  -0.1200481  -0.0315848   0.0457911
           19          20          21          22          23          24
    1   0.0203946  -0.0258622  -0.0409487  -0.0336686   0.0208591   0.0012075
    2  -0.0500563  -0.0342927   0.0212749   0.0592539  -0.0376297  -0.0008321
    3  -0.0448473  -0.0318401  -0.0062372   0.0326753   0.0758708   0.0061489
           25          26          27          28          29          30
    1   0.0057280   0.0044291   0.0031670   0.0025020   0.0051647  -0.0009382
    2  -0.0064142   0.0039020   0.0047689  -0.0002052   0.0117347  -0.0081273
    3  -0.0006350   0.0110871  -0.0098620   0.0079676  -0.0036109   0.0037085
           31          32          33          34          35          36
    1   0.0098552  -0.0421569  -0.0278223   0.0361243   0.0518227   0.0165709
    2  -0.0093656   0.0277905  -0.0469031  -0.0621908  -0.0101262   0.0426311
    3   0.0047924  -0.0580319  -0.0195080   0.0057898   0.0043059   0.0165403
           37          38          39          40          41          42
    1  -0.0333173  -0.0245989  -0.0101536   0.0084566  -0.0034701  -0.0125005
    2   0.0645888  -0.0121134   0.0075332  -0.0048007  -0.0080924   0.0025910
    3   0.0109175  -0.0830780   0.0012935  -0.0012370  -0.0013387  -0.0069456
           43          44          45          46          47          48
    1  -0.0001837  -0.0055937  -0.0088783   0.0037861  -0.0033079  -0.0058945
    2  -0.0034497   0.0008001   0.0010663  -0.0023202  -0.0109606  -0.0071464
    3   0.0109477  -0.0060635   0.0099158  -0.0077485  -0.0086540  -0.0015385
           49          50          51          52          53          54
    1   0.0019376  -0.0014955   0.0054308   0.0059933  -0.0091628   0.0197262
    2   0.0029431  -0.0015939   0.0036987   0.0034563   0.0039055  -0.0048844
    3   0.0000633  -0.0022785   0.0073983   0.0084665  -0.0024687  -0.0049859
           55          56
    1   0.0020288  -0.0031230
    2  -0.0001078   0.0020446
    3   0.0019978   0.0028092
 Max gradient component =       1.200E-01
 RMS gradient           =       2.828E-02
 Gradient time:  CPU 32.97 s  wall 0.70 s
 Geometry Optimization Parameters
   NAtoms,    NIC,     NZ,  NCons,   NDum,   NFix, NCnnct, MaxDiis
       56     458       0       9       0       0       0       0


** CONSTRAINED OPTIMIZATION IN DELOCALIZED INTERNAL COORDINATES **
   Searching for a Minimum

   Optimization Cycle:   1

                       Coordinates (Angstroms)
     ATOM                X               Y               Z
      1  O        -3.4736734263    2.3671798286    0.6275638494
      2  C        -3.7185948144    1.7445283693   -0.3958250845
      3  C        -4.4998808276    0.4510822648   -0.4678121167
      4  C        -3.6963443814   -0.8587982416   -0.4188402624
      5  C        -2.2179578416   -0.7325015147   -0.1247062212
      6  O        -1.6419761616    0.1367587540   -1.0067839153
      7  C        -0.2139570910    0.0420519271   -1.0395785633
      8  C         0.3297901966   -0.1908552130    0.3662038763
      9  O         1.7624177872   -0.2854073770    0.3273668677
     10  C         2.4247191213    0.5460931453    1.1694633559
     11  C         3.9198504664    0.3342460827    1.1502675013
     12  C         4.3961147804   -0.8404642459    0.2833599004
     13  C         3.3807274417   -1.3925686249   -0.6968666110
     14  O         3.3454223804   -1.1476417529   -1.8940850170
     15  O        -3.2267124410    2.2077255981   -1.5756157652
     16  O         2.7395606942   -2.5154083910   -0.2582420459
     17  O         1.9056813221    1.4357583057    1.8321174782
     18  C         1.9848339342   -3.3547594489   -1.0513964731
     19  C         4.7038425212    1.5062376285    0.5375136663
     20  C         6.1343973742    1.4952096864    1.0719155537
     21  C         6.6860779938    0.2688115164    0.3735873419
     22  C         5.4929320598   -0.1005502042   -0.5172185128
     23  O         4.8862449127    1.1366619556   -0.8056026493
     24  H         4.2221264612    0.1908655816    2.2123388039
     25  H         4.8240278615   -1.6880841809    0.8639073157
     26  H         4.2294841582    2.4960699556    0.7149573968
     27  H         6.6413732315    2.3975504822    0.6605609890
     28  H         6.2314978296    1.4938970415    2.1789359836
     29  H         7.5579844386    0.5805671058   -0.2433819263
     30  H         6.9718163237   -0.5719501267    1.0421367749
     31  H         5.8413363070   -0.6884978158   -1.3952090591
     32  O        -1.9204209142   -0.9225809854    1.0478656049
     33  C        -2.4652809268    3.3503829557   -1.7048899048
     34  C        -5.4087468638    0.2473257990    0.7692815796
     35  C        -6.5775302515   -0.6693055704    0.4113289516
     36  C        -5.8617626167   -1.9952731775    0.2747507912
     37  C        -4.4499997394   -1.5908714442    0.7154061005
     38  O        -4.6605688750   -0.5583622452    1.6449034975
     39  H        -5.1731867299    0.5361096435   -1.3505940445
     40  H        -3.7671310527   -1.4230625038   -1.3748253463
     41  H        -1.5297504115    3.2552895929   -1.1128840073
     42  H        -5.7964238494    1.1996297656    1.1935467612
     43  H        -7.2376071727   -0.7139529583    1.3075034247
     44  H        -7.1814285773   -0.3620670102   -0.4694020168
     45  H        -6.3132541470   -2.7137648750    0.9944520403
     46  H        -5.8588165895   -2.4305622480   -0.7480108597
     47  H        -3.8959618935   -2.4818665892    1.0850546301
     48  H        -3.0410949278    4.2353200444   -1.3590988654
     49  H        -2.1991640586    3.4911858180   -2.7724690300
     50  H         1.5850373853   -4.1804610292   -0.4280241040
     51  H         2.6156342493   -3.7881539435   -1.8564793420
     52  H         1.1340402384   -2.8060286305   -1.5002039795
     53  H        -0.0638312203    0.5815910523    1.0662113962
     54  H         0.1326087770   -1.2278827303    0.6998256004
     55  H         0.1858657798    0.9969875339   -1.4408107303
     56  H         0.0976321482   -0.7763286391   -1.7196102596
   Point Group: c1    Number of degrees of freedom:   162


   Energy is  -1510.112752217

              Constraints and their Current Values
                                        Value     Constraint
   Dihedral:        1   2   3   4      -93.007      -93.007
   Dihedral:        3   4   5   6      -54.082      -54.082
   Dihedral:        4   5   6   7     -164.033     -164.032
   Dihedral:        5   6   7   8      -38.260      -38.260
   Dihedral:        6   7   8   9      179.985      179.985
   Dihedral:        7   8   9  10      126.619      126.619
   Dihedral:        8   9  10  11      176.104      176.104
   Dihedral:        9  10  11  12       -4.743       -4.744
   Dihedral:       11  12  13  14      100.834      100.833

 Attempting to Generate Delocalized Internal Coordinates

   Using Lagrange Multiplier Algorithm


169 Hessian modes will be used to form the next step
  Hessian Eigenvalues:
    -0.977753   -0.977753   -0.977753   -0.977753   -0.977753   -0.977753
    -0.977753   -0.977753    0.045000    0.045000    0.045000    0.045000
     0.045018    0.045068    0.045591    0.045596    0.046677    0.048877
     0.048880    0.050024    0.054619    0.059988    0.059996    0.062635
     0.062681    0.067005    0.067101    0.067105    0.067411    0.070499
     0.070790    0.071810    0.073686    0.073762    0.075803    0.076091
     0.076870    0.077052    0.082448    0.082567    0.083583    0.083587
     0.083657    0.084477    0.084500    0.085043    0.086068    0.086511
     0.086626    0.087092    0.088621    0.088774    0.089024    0.089058
     0.089830    0.089834    0.093871    0.094036    0.096615    0.096624
     0.111516    0.111551    0.114364    0.114659    0.115852    0.115905
     0.116599    0.116818    0.117414    0.118472    0.119511    0.124136
     0.124913    0.130022    0.130868    0.130998    0.140411    0.140464
     0.160000    0.160000    0.160000    0.160000    0.160000    0.160000
     0.171415    0.171854    0.172676    0.173021    0.214484    0.220656
     0.221655    0.239014    0.239457    0.243510    0.249416    0.249922
     0.250000    0.250000    0.250000    0.250000    0.250000    0.250000
     0.250000    0.250000    0.258204    0.258706    0.266934    0.267124
     0.278592    0.279164    0.279987    0.283785    0.295270    0.295583
     0.298744    0.308063    0.310698    0.310862    0.313317    0.321510
     0.321882    0.322054    0.322303    0.322326    0.322922    0.323176
     0.323185    0.323236    0.323455    0.323530    0.323593    0.324021
     0.324373    0.324392    0.324658    0.324728    0.324749    0.324979
     0.325144    0.325692    0.326828    0.326902    0.327351    0.328745
     0.329119    0.369137    0.370271    0.384595    0.385847    0.401015
     0.407700    0.491807    0.492513    0.517908    0.518753    0.530364
     0.537319    0.933089    0.933848    0.941950    0.942732    1.022753
     1.022753    1.022753    1.022753    1.022753    1.022753    1.022753
     1.022753

 Minimum Search - Taking P-RFO Step
 Searching for Lamda that Maximizes Along the Constraint modes Only
 Value Taken    Lamda =   0.00114596
 Searching for Lamda that Minimizes Along All other modes
 Value Taken    Lamda =  -0.20883184
 Calculated Step too Large.  Step scaled by  0.476737
 Step Taken.  Stepsize is  0.300000

                             Maximum     Tolerance    Cnvgd?
         Gradient            0.126978       0.000300      NO
         Displacement        0.102779       0.001200      NO
         Energy change     *********       0.000001      NO


 New Cartesian Coordinates Obtained by Inverse Iteration

 Displacement from previous Coordinates is:  3.856720
 Adding empirical dispersion correction 
 ----------------------------------------------------------------
 Doing -D3(op) with
 s6 =   1.00000
 s8 =   0.78311
 a1 =   0.30000
 a2 =   4.25000
 n  =  10.00000
 -D3 energy without 3body term =     -0.0680914002 hartrees
 ----------------------------------------------------------------
             Standard Nuclear Orientation (Angstroms)
    I     Atom           X                Y                Z
 ----------------------------------------------------------------
    1      O      -3.5428580607     2.3405569941     0.7210240286
    2      C      -3.7353601941     1.7275329397    -0.3374909796
    3      C      -4.5976298863     0.4748244130    -0.4944171144
    4      C      -3.8790039911    -0.8973190392    -0.3799332531
    5      C      -2.4040410264    -0.8543380404     0.0588348300
    6      O      -1.7080245229     0.0003078906    -0.7879009083
    7      C      -0.2520333213    -0.0668394932    -0.7948875906
    8      C       0.3848433281    -0.2963862108     0.5934061369
    9      O       1.8315627373    -0.3454469030     0.4477241414
   10      C       2.5369876942     0.5114902019     1.2585936837
   11      C       4.0562629184     0.3493971269     1.1307039208
   12      C       4.5553883436    -0.8091835064     0.2147567628
   13      C       3.5136803038    -1.4396603197    -0.7187426897
   14      O       3.3903620344    -1.1975829648    -1.9266869242
   15      O      -3.1225225645     2.1313982125    -1.5023521895
   16      O       2.9879602791    -2.6108067077    -0.1992378623
   17      O       2.0216344844     1.3829305695     1.9704991831
   18      C       2.2383440809    -3.4924193725    -0.9909031481
   19      C       4.7403581690     1.5786887096     0.4648990758
   20      C       6.2172678698     1.6430855712     0.9152393031
   21      C       6.7972549076     0.4355079341     0.1676842083
   22      C       5.5629599346    -0.0022046378    -0.6641291202
   23      O       4.8568641407     1.2177994299    -0.9146507282
   24      H       4.4330406274     0.2180372281     2.1670709997
   25      H       5.0634761673    -1.6266686360     0.7670688642
   26      H       4.2215079400     2.5377724559     0.6739392548
   27      H       6.6485276531     2.5705756678     0.4853791674
   28      H       6.3789190112     1.6434713553     2.0107949185
   29      H       7.6105384863     0.7877784054    -0.4976723238
   30      H       7.1668392699    -0.3858427632     0.8124606734
   31      H       5.8833712573    -0.5668360771    -1.5652244267
   32      O      -2.1797444682    -1.0810273544     1.2571846209
   33      C      -2.2698004685     3.2454250046    -1.5230317735
   34      C      -5.6366335912     0.3280007573     0.6671741974
   35      C      -6.8308978571    -0.5251275788     0.1796853171
   36      C      -6.1765335492    -1.9108554517     0.0972140304
   37      C      -4.7768414339    -1.5951818568     0.6864924968
   38      O      -5.0138860737    -0.5382148310     1.6191526909
   39      H      -5.1748411712     0.5992282457    -1.4352792032
   40      H      -3.9001633357    -1.4483841616    -1.3443384301
   41      H      -1.4002261700     3.0926239271    -0.8460442144
   42      H      -5.9949704066     1.3005408501     1.0656727340
   43      H      -7.5778559171    -0.5324079616     1.0002011537
   44      H      -7.3221052029    -0.1765572164    -0.7495808597
   45      H      -6.7328485569    -2.6074772493     0.7555831058
   46      H      -6.1011456137    -2.3364899963    -0.9227036402
   47      H      -4.3099957704    -2.5133924084     1.1011348804
   48      H      -2.8109674252     4.1680270166    -1.2173263582
   49      H      -1.8938281649     3.3805353345    -2.5574202926
   50      H       1.9259501319    -4.3499208279    -0.3609365424
   51      H       2.8446462187    -3.8783878279    -1.8401536029
   52      H       1.3273570132    -3.0017072069    -1.3937195175
   53      H       0.0256211007     0.4573569103     1.3281176084
   54      H       0.2208250756    -1.3382381221     0.9306145469
   55      H       0.1144378504     0.8980030985    -1.2042919158
   56      H       0.0599900878    -0.8788858101    -1.4853906062
 ----------------------------------------------------------------
 Molecular Point Group                 C1    NOp =  1
 Largest Abelian Subgroup              C1    NOp =  1
 Nuclear Repulsion Energy =  3147.2160697175 hartrees
 There are      113 alpha and      113 beta electrons
 Applying Cartesian multipole field
    Component          Value
    ---------          -----
     (2,0,0)        1.00000E-12
     (0,2,0)        2.00000E-11
     (0,0,2)       -3.00000E-11
 Nucleus-field energy     =     0.0000000290 hartrees
 Requested basis set is STO-3G
 There are 86 shells and 176 basis functions
 A cutoff of  1.0D-12 yielded   2098 shell pairs
 There are      9901 function pairs
 Smallest overlap matrix eigenvalue = 2.01E-01
 Guess MOs from SCF MO coefficient file
 Reading MOs from coefficient file
 Reading MOs from coefficient file
 A restricted hybrid HF-DFT SCF calculation will be
 performed using Pulay DIIS extrapolation
 Exchange:     0.2000 Hartree-Fock + 0.0800 Slater + 0.7200 B88
 Correlation:  0.1900 VWN1RPA + 0.8100 LYP
 Using SG-1 standard quadrature grid
 Dispersion:   Grimme D3
 SCF converges when DIIS error is below 1.0E-08
 Geometry optimization detected.  Setting ReadMinima to 0
 Setting SaveMinima to 0
 using 48 threads for integral computing
 -------------------------------------------------------
 OpenMP Integral computing Module                
 Release: version 1.0, May 2013, Q-Chem Inc. Pittsburgh 
 -------------------------------------------------------
 -------------------------------------------------------
 OpenMP BLAS3 based DFT computing Module                
 Release: version 1.0, May 2013, Q-Chem Inc. Pittsburgh 
 -------------------------------------------------------
 ---------------------------------------
  Cycle       Energy         DIIS Error
 ---------------------------------------
    1   -1509.9330645315      5.76E-03
    2   -1510.1804754149      1.23E-03
    3   -1510.1641867871      2.33E-03
    4   -1510.1868439716      4.15E-04
    5   -1510.1876249112      8.15E-05
    6   -1510.1876483146      4.29E-05
    7   -1510.1876543857      2.34E-05
    8   -1510.1876568083      3.77E-06
    9   -1510.1876568587      2.57E-06
   10   -1510.1876568881      5.55E-07
   11   -1510.1876568901      1.50E-07
   12   -1510.1876568902      4.49E-08
   13   -1510.1876568903      1.56E-08
   14   -1510.1876568903      5.46E-09 Convergence criterion met
 ---------------------------------------
 SCF time:  CPU 99.97 s  wall 2.09 s
 SCF   energy in the final basis set = -1510.18765689
 Total energy in the final basis set = -1510.18765689
 
 --------------------------------------------------------------
 
                    Orbital Energies (a.u.)
 --------------------------------------------------------------
 
 Alpha MOs
 -- Occupied --
-18.955 -18.951 -18.929 -18.918 -18.897 -18.892 -18.882 -18.867
-18.853 -18.846 -10.112 -10.111 -10.102 -10.102 -10.093 -10.085
-10.075 -10.074 -10.067 -10.063 -10.061 -10.060 -10.040 -10.037
-10.037 -10.034 -10.017 -10.016 -10.015 -10.013  -1.043  -1.035
 -1.026  -1.021  -1.006  -1.002  -0.957  -0.950  -0.936  -0.931
 -0.777  -0.773  -0.744  -0.734  -0.724  -0.715  -0.709  -0.674
 -0.673  -0.635  -0.603  -0.596  -0.553  -0.549  -0.536  -0.534
 -0.520  -0.516  -0.503  -0.485  -0.476  -0.472  -0.467  -0.457
 -0.450  -0.438  -0.437  -0.422  -0.421  -0.416  -0.415  -0.412
 -0.403  -0.394  -0.383  -0.381  -0.380  -0.365  -0.361  -0.357
 -0.353  -0.345  -0.342  -0.338  -0.332  -0.329  -0.328  -0.316
 -0.313  -0.307  -0.304  -0.301  -0.297  -0.292  -0.290  -0.276
 -0.274  -0.252  -0.238  -0.236  -0.232  -0.226  -0.223  -0.189
 -0.181  -0.168  -0.163  -0.155  -0.153  -0.151  -0.147  -0.138
 -0.135
 -- Virtual --
  0.077   0.106   0.116   0.117   0.201   0.241   0.249   0.282
  0.286   0.299   0.314   0.324   0.329   0.334   0.339   0.352
  0.355   0.362   0.368   0.372   0.375   0.381   0.383   0.387
  0.393   0.399   0.400   0.403   0.407   0.413   0.413   0.416
  0.419   0.426   0.428   0.433   0.436   0.439   0.444   0.446
  0.450   0.458   0.462   0.466   0.471   0.474   0.477   0.482
  0.485   0.491   0.494   0.500   0.502   0.529   0.530   0.552
  0.554   0.565   0.567   0.651   0.663   0.673   0.678
 --------------------------------------------------------------
 
          Ground-State Mulliken Net Atomic Charges

     Atom                 Charge (a.u.)
  ----------------------------------------
      1 O                    -0.227905
      2 C                     0.225881
      3 C                    -0.080987
      4 C                    -0.077792
      5 C                     0.215538
      6 O                    -0.177006
      7 C                    -0.040179
      8 C                    -0.045294
      9 O                    -0.178680
     10 C                     0.224518
     11 C                    -0.081583
     12 C                    -0.081581
     13 C                     0.236616
     14 O                    -0.237538
     15 O                    -0.197989
     16 O                    -0.207622
     17 O                    -0.227392
     18 C                    -0.105045
     19 C                     0.034133
     20 C                    -0.142037
     21 C                    -0.145412
     22 C                     0.037841
     23 O                    -0.200429
     24 H                     0.088762
     25 H                     0.086492
     26 H                     0.087737
     27 H                     0.076111
     28 H                     0.074008
     29 H                     0.076608
     30 H                     0.072087
     31 H                     0.086719
     32 O                    -0.201013
     33 C                    -0.104195
     34 C                     0.037187
     35 C                    -0.143459
     36 C                    -0.145082
     37 C                     0.037139
     38 O                    -0.198888
     39 H                     0.086042
     40 H                     0.077357
     41 H                     0.084934
     42 H                     0.087253
     43 H                     0.075604
     44 H                     0.071481
     45 H                     0.075799
     46 H                     0.071025
     47 H                     0.085910
     48 H                     0.086079
     49 H                     0.092689
     50 H                     0.090528
     51 H                     0.083649
     52 H                     0.077567
     53 H                     0.114775
     54 H                     0.100261
     55 H                     0.099055
     56 H                     0.089724
  ----------------------------------------
  Sum of atomic charges =     0.000000

 -----------------------------------------------------------------
                    Cartesian Multipole Moments
 -----------------------------------------------------------------
    Charge (ESU x 10^10)
                 0.0000
    Dipole Moment (Debye)
         X       0.5306      Y      -1.8926      Z      -1.8933
       Tot       2.7291
    Quadrupole Moments (Debye-Ang)
        XX    -141.5768     XY       0.7230     YY    -152.6525
        XZ      16.8864     YZ      -1.9704     ZZ    -171.3528
    Octopole Moments (Debye-Ang^2)
       XXX      21.3892    XXY     -13.7354    XYY      -2.2191
       YYY       2.3897    XXZ      -2.2265    XYZ       9.5959
       YYZ     -26.8726    XZZ       8.4327    YZZ      -0.5308
       ZZZ     -11.3988
    Hexadecapole Moments (Debye-Ang^3)
      XXXX  -15945.7082   XXXY    -112.4411   XXYY   -3206.1322
      XYYY    -152.0476   YYYY   -2357.1781   XXXZ     242.8552
      XXYZ       5.0289   XYYZ       9.4520   YYYZ     -53.7192
      XXZZ   -3122.1817   XYZZ     -56.3798   YYZZ    -592.1959
      XZZZ      74.2812   YZZZ     -41.4447   ZZZZ   -1087.1759
 -----------------------------------------------------------------
 Calculating analytic gradient of the SCF energy
 Gradient of SCF Energy
            1           2           3           4           5           6
    1  -0.0003396  -0.0154315   0.0192931   0.0052728   0.0350349  -0.0062088
    2  -0.0143494  -0.0151360  -0.0088557   0.0282181  -0.0244803  -0.0124469
    3  -0.0326166  -0.0290362   0.0268189   0.0548826  -0.0335269   0.0333426
            7           8           9          10          11          12
    1  -0.0068341   0.0014941  -0.0095266  -0.0103269  -0.0034910  -0.0141838
    2   0.0009541   0.0187966   0.0125577  -0.0242584   0.0235069   0.0080500
    3   0.0056327  -0.0148030   0.0292742  -0.0096513  -0.0224844  -0.0195402
           13          14          15          16          17          18
    1  -0.0013729   0.0075207   0.0279892  -0.0213340   0.0178706   0.0189898
    2   0.0143328  -0.0202704   0.0529622   0.0079674  -0.0186580   0.0112528
    3   0.0341137   0.0311133   0.0688464  -0.0883953  -0.0193203   0.0373715
           19          20          21          22          23          24
    1   0.0100961  -0.0164931  -0.0249077  -0.0252747   0.0182753   0.0001697
    2  -0.0312884  -0.0222112   0.0102143   0.0395080  -0.0241415  -0.0007684
    3  -0.0336169  -0.0171047  -0.0020521   0.0197667   0.0470489   0.0040064
           25          26          27          28          29          30
    1   0.0044704   0.0047739   0.0009664   0.0029024   0.0021380  -0.0003302
    2  -0.0044727   0.0028624   0.0028089   0.0009795   0.0092327  -0.0057282
    3  -0.0023960   0.0103010  -0.0076426   0.0047771  -0.0021688   0.0016531
           31          32          33          34          35          36
    1   0.0095319  -0.0351742  -0.0220442   0.0233082   0.0303454   0.0116719
    2  -0.0078613   0.0217673  -0.0348689  -0.0416147  -0.0061073   0.0232044
    3   0.0047587  -0.0259180  -0.0193188   0.0101843   0.0036560   0.0105415
           37          38          39          40          41          42
    1  -0.0199715  -0.0109842  -0.0081205   0.0061727  -0.0012394  -0.0099765
    2   0.0438705  -0.0071355   0.0074677  -0.0042080  -0.0050088   0.0025533
    3   0.0086403  -0.0560936   0.0013958  -0.0005506  -0.0008322  -0.0079284
           43          44          45          46          47          48
    1   0.0002282  -0.0044585  -0.0069191   0.0034246  -0.0030116  -0.0042046
    2  -0.0024358   0.0004639   0.0021407  -0.0021851  -0.0088129  -0.0030275
    3   0.0077929  -0.0035314   0.0062510  -0.0044051  -0.0091569  -0.0014705
           49          50          51          52          53          54
    1   0.0022267  -0.0017588   0.0038237   0.0026391  -0.0062081   0.0203020
    2   0.0028895  -0.0021367   0.0014706   0.0022781   0.0018871  -0.0022715
    3  -0.0000586  -0.0020130   0.0035974   0.0047327  -0.0020331  -0.0063382
           55          56
    1   0.0027000  -0.0035054
    2  -0.0000669   0.0006083
    3   0.0017792   0.0017249
 Max gradient component =       8.840E-02
 RMS gradient           =       1.960E-02
 Gradient time:  CPU 29.93 s  wall 0.63 s
 Geometry Optimization Parameters
   NAtoms,    NIC,     NZ,  NCons,   NDum,   NFix, NCnnct, MaxDiis
       56     458       0       9       0       0       0       0

 Cartesian Hessian Update
 Hessian Updated using BFGS Update


** CONSTRAINED OPTIMIZATION IN DELOCALIZED INTERNAL COORDINATES **
   Searching for a Minimum

   Optimization Cycle:   2

                       Coordinates (Angstroms)
     ATOM                X               Y               Z
      1  O        -3.5428580607    2.3405569941    0.7210240286
      2  C        -3.7353601941    1.7275329397   -0.3374909796
      3  C        -4.5976298863    0.4748244130   -0.4944171144
      4  C        -3.8790039911   -0.8973190392   -0.3799332531
      5  C        -2.4040410264   -0.8543380404    0.0588348300
      6  O        -1.7080245229    0.0003078906   -0.7879009083
      7  C        -0.2520333213   -0.0668394932   -0.7948875906
      8  C         0.3848433281   -0.2963862108    0.5934061369
      9  O         1.8315627373   -0.3454469030    0.4477241414
     10  C         2.5369876942    0.5114902019    1.2585936837
     11  C         4.0562629184    0.3493971269    1.1307039208
     12  C         4.5553883436   -0.8091835064    0.2147567628
     13  C         3.5136803038   -1.4396603197   -0.7187426897
     14  O         3.3903620344   -1.1975829648   -1.9266869242
     15  O        -3.1225225645    2.1313982125   -1.5023521895
     16  O         2.9879602791   -2.6108067077   -0.1992378623
     17  O         2.0216344844    1.3829305695    1.9704991831
     18  C         2.2383440809   -3.4924193725   -0.9909031481
     19  C         4.7403581690    1.5786887096    0.4648990758
     20  C         6.2172678698    1.6430855712    0.9152393031
     21  C         6.7972549076    0.4355079341    0.1676842083
     22  C         5.5629599346   -0.0022046378   -0.6641291202
     23  O         4.8568641407    1.2177994299   -0.9146507282
     24  H         4.4330406274    0.2180372281    2.1670709997
     25  H         5.0634761673   -1.6266686360    0.7670688642
     26  H         4.2215079400    2.5377724559    0.6739392548
     27  H         6.6485276531    2.5705756678    0.4853791674
     28  H         6.3789190112    1.6434713553    2.0107949185
     29  H         7.6105384863    0.7877784054   -0.4976723238
     30  H         7.1668392699   -0.3858427632    0.8124606734
     31  H         5.8833712573   -0.5668360771   -1.5652244267
     32  O        -2.1797444682   -1.0810273544    1.2571846209
     33  C        -2.2698004685    3.2454250046   -1.5230317735
     34  C        -5.6366335912    0.3280007573    0.6671741974
     35  C        -6.8308978571   -0.5251275788    0.1796853171
     36  C        -6.1765335492   -1.9108554517    0.0972140304
     37  C        -4.7768414339   -1.5951818568    0.6864924968
     38  O        -5.0138860737   -0.5382148310    1.6191526909
     39  H        -5.1748411712    0.5992282457   -1.4352792032
     40  H        -3.9001633357   -1.4483841616   -1.3443384301
     41  H        -1.4002261700    3.0926239271   -0.8460442144
     42  H        -5.9949704066    1.3005408501    1.0656727340
     43  H        -7.5778559171   -0.5324079616    1.0002011537
     44  H        -7.3221052029   -0.1765572164   -0.7495808597
     45  H        -6.7328485569   -2.6074772493    0.7555831058
     46  H        -6.1011456137   -2.3364899963   -0.9227036402
     47  H        -4.3099957704   -2.5133924084    1.1011348804
     48  H        -2.8109674252    4.1680270166   -1.2173263582
     49  H        -1.8938281649    3.3805353345   -2.5574202926
     50  H         1.9259501319   -4.3499208279   -0.3609365424
     51  H         2.8446462187   -3.8783878279   -1.8401536029
     52  H         1.3273570132   -3.0017072069   -1.3937195175
     53  H         0.0256211007    0.4573569103    1.3281176084
     54  H         0.2208250756   -1.3382381221    0.9306145469
     55  H         0.1144378504    0.8980030985   -1.2042919158
     56  H         0.0599900878   -0.8788858101   -1.4853906062
   Point Group: c1    Number of degrees of freedom:   162


   Energy is  -1510.187656890

              Constraints and their Current Values
                                        Value     Constraint
   Dihedral:        1   2   3   4      -92.993      -93.007
   Dihedral:        3   4   5   6      -54.082      -54.082
   Dihedral:        4   5   6   7     -164.091     -164.032
   Dihedral:        5   6   7   8      -38.220      -38.260
   Dihedral:        6   7   8   9      179.905      179.985
   Dihedral:        7   8   9  10      126.628      126.619
   Dihedral:        8   9  10  11      176.100      176.104
   Dihedral:        9  10  11  12       -4.743       -4.744
   Dihedral:       11  12  13  14      100.856      100.833
 Hessian Updated using BFGS Update

   Using Lagrange Multiplier Algorithm


159 Hessian modes will be used to form the next step
  Hessian Eigenvalues:
    -0.977753   -0.977753   -0.977753   -0.977753   -0.977753   -0.977753
    -0.977753   -0.975321    0.044949    0.045000    0.045000    0.045001
     0.045011    0.045068    0.045589    0.045595    0.046531    0.048872
     0.048882    0.049540    0.054569    0.059864    0.060017    0.062605
     0.062797    0.067005    0.067100    0.067102    0.067364    0.070425
     0.070771    0.071637    0.073676    0.073788    0.075792    0.076107
     0.076740    0.077112    0.082446    0.082564    0.083217    0.083588
     0.083661    0.084496    0.084548    0.085347    0.086227    0.086510
     0.086599    0.087164    0.088547    0.088803    0.089032    0.089072
     0.089797    0.089847    0.093888    0.094031    0.096610    0.096622
     0.111527    0.111570    0.114369    0.114662    0.115852    0.115905
     0.116665    0.116707    0.116982    0.118474    0.119510    0.124175
     0.124894    0.129942    0.130901    0.130976    0.140339    0.141946
     0.158856    0.160236    0.169888    0.171853    0.172412    0.173237
     0.189918    0.219875    0.224484    0.230009    0.239037    0.239459
     0.243615    0.249422    0.249923    0.257910    0.258385    0.266579
     0.267037    0.270880    0.278792    0.279446    0.282436    0.288974
     0.295431    0.297165    0.302471    0.308751    0.310660    0.312411
     0.321428    0.321662    0.321982    0.322243    0.322316    0.322803
     0.323022    0.323180    0.323231    0.323441    0.323518    0.323582
     0.324002    0.324217    0.324383    0.324591    0.324702    0.324733
     0.324957    0.325122    0.325691    0.326820    0.326895    0.327326
     0.328660    0.329040    0.342250    0.369214    0.370273    0.385011
     0.392973    0.401138    0.471271    0.492050    0.500062    0.517169
     0.527512    0.535198    0.672138    0.932831    0.936208    0.942341
     0.970009    1.022753    1.022753    1.022753    1.022753    1.022753
     1.022753    1.022753    1.052862

 Minimum Search - Taking P-RFO Step
 Searching for Lamda that Maximizes Along the Constraint modes Only
 Value Taken    Lamda =   0.00029329
 Searching for Lamda that Minimizes Along All other modes
 Value Taken    Lamda =  -0.11824934
 Calculated Step too Large.  Step scaled by  0.472696
 Step Taken.  Stepsize is  0.300000

                             Maximum     Tolerance    Cnvgd?
         Gradient            0.080789       0.000300      NO
         Displacement        0.105605       0.001200      NO
         Energy change     -0.074905       0.000001      NO


 New Cartesian Coordinates Obtained by Inverse Iteration

 Displacement from previous Coordinates is:  1.147904
 Adding empirical dispersion correction 
 ----------------------------------------------------------------
 Doing -D3(op) with
 s6 =   1.00000
 s8 =   0.78311
 a1 =   0.30000
 a2 =   4.25000
 n  =  10.00000
 -D3 energy without 3body term =     -0.0680857984 hartrees
 ----------------------------------------------------------------
             Standard Nuclear Orientation (Angstroms)
    I     Atom           X                Y                Z
 ----------------------------------------------------------------
    1      O      -3.5390401835     2.3766807351     0.7031304678
    2      C      -3.7509962035     1.7516781357    -0.3584696911
    3      C      -4.6050645332     0.4719194666    -0.5052891246
    4      C      -3.8522799640    -0.8998280150    -0.4101490275
    5      C      -2.3487064759    -0.8198936542     0.0052755576
    6      O      -1.6884817100     0.0636073386    -0.8651054277
    7      C      -0.2282243441    -0.0233532827    -0.8507796667
    8      C       0.3687016340    -0.2613010219     0.5678697322
    9      O       1.8309289524    -0.3283636732     0.4357672576
   10      C       2.5317139020     0.5408751878     1.2732442036
   11      C       4.0644394327     0.3494399307     1.1521105157
   12      C       4.5508416767    -0.8266492167     0.2321321429
   13      C       3.4755086724    -1.4506918415    -0.6968642886
   14      O       3.3304378060    -1.2148938885    -1.9156846305
   15      O      -3.1910451739     2.1418519586    -1.5761515928
   16      O       2.9317324217    -2.6048147027    -0.1109603944
   17      O       2.0009458596     1.4196642647     1.9839342297
   18      C       2.1304587370    -3.4355353182    -0.9528444387
   19      C       4.7743838371     1.5807191902     0.4768795560
   20      C       6.2654073146     1.6109831452     0.9407928116
   21      C       6.8288798725     0.3755560458     0.1866300128
   22      C       5.5800878125    -0.0403468020    -0.6648603046
   23      O       4.8872649082     1.2120238614    -0.9262516620
   24      H       4.4376858789     0.2149125151     2.1864188302
   25      H       5.0396558697    -1.6470371434     0.7916357514
   26      H       4.2656955515     2.5459581370     0.6739346470
   27      H       6.7211820168     2.5268089065     0.5218013019
   28      H       6.4151257849     1.6055348246     2.0343498902
   29      H       7.6537784547     0.6995653578    -0.4719460380
   30      H       7.1735297272    -0.4491376075     0.8347510923
   31      H       5.8803204716    -0.6091437552    -1.5676761862
   32      O      -2.0083853790    -1.0684510804     1.1842919048
   33      C      -2.3526373024     3.3002073468    -1.5522703473
   34      C      -5.6221530665     0.3031446316     0.6927435214
   35      C      -6.8159708989    -0.5840145294     0.2122010311
   36      C      -6.1243711691    -1.9712930794     0.1083934069
   37      C      -4.7073366632    -1.6299684208     0.6853600708
   38      O      -4.9507012093    -0.5660252640     1.6462144676
   39      H      -5.1978844306     0.5817651743    -1.4348365790
   40      H      -3.8879803903    -1.4394834825    -1.3783674998
   41      H      -1.4730776830     3.1553035735    -0.8861593654
   42      H      -5.9806581188     1.2659022732     1.1091473108
   43      H      -7.5523080743    -0.6120864229     1.0364914660
   44      H      -7.3231606664    -0.2387740269    -0.7053605634
   45      H      -6.6492340486    -2.6882714497     0.7637818131
   46      H      -6.0578178271    -2.3833938928    -0.9137450300
   47      H      -4.2061243632    -2.5313528776     1.0918662545
   48      H      -2.9073268277     4.2029814001    -1.2124826430
   49      H      -1.9910491190     3.4727560199    -2.5851090626
   50      H       1.7813392517    -4.2923233596    -0.3431718161
   51      H       2.7127619959    -3.8270196619    -1.8168555269
   52      H       1.2409071901    -2.8968910382    -1.3468792903
   53      H       0.0169815675     0.4994260634     1.2972959733
   54      H       0.1467358946    -1.2957389408     0.9037443808
   55      H       0.1613747692     0.9316529333    -1.2613610228
   56      H       0.0852289356    -0.8477352506    -1.5286980612
 ----------------------------------------------------------------
 Molecular Point Group                 C1    NOp =  1
 Largest Abelian Subgroup              C1    NOp =  1
 Nuclear Repulsion Energy =  3135.3647400312 hartrees
 There are      113 alpha and      113 beta electrons
 Applying Cartesian multipole field
    Component          Value
    ---------          -----
     (2,0,0)        1.00000E-12
     (0,2,0)        2.00000E-11
     (0,0,2)       -3.00000E-11
 Nucleus-field energy     =     0.0000000288 hartrees
 Requested basis set is STO-3G
 There are 86 shells and 176 basis functions
 A cutoff of  1.0D-12 yielded   2100 shell pairs
 There are      9882 function pairs
 Smallest overlap matrix eigenvalue = 2.07E-01
 Guess MOs from SCF MO coefficient file
 Reading MOs from coefficient file
 Reading MOs from coefficient file
 A restricted hybrid HF-DFT SCF calculation will be
 performed using Pulay DIIS extrapolation
 Exchange:     0.2000 Hartree-Fock + 0.0800 Slater + 0.7200 B88
 Correlation:  0.1900 VWN1RPA + 0.8100 LYP
 Using SG-1 standard quadrature grid
 Dispersion:   Grimme D3
 SCF converges when DIIS error is below 1.0E-08
 Geometry optimization detected.  Setting ReadMinima to 0
 Setting SaveMinima to 0
 using 48 threads for integral computing
 -------------------------------------------------------
 OpenMP Integral computing Module                
 Release: version 1.0, May 2013, Q-Chem Inc. Pittsburgh 
 -------------------------------------------------------
 -------------------------------------------------------
 OpenMP BLAS3 based DFT computing Module                
 Release: version 1.0, May 2013, Q-Chem Inc. Pittsburgh 
 -------------------------------------------------------
 ---------------------------------------
  Cycle       Energy         DIIS Error
 ---------------------------------------
    1   -1510.0739755931      3.40E-03
    2   -1510.2263296020      8.69E-04
    3   -1510.2192876173      1.57E-03
    4   -1510.2294024890      3.18E-04
    5   -1510.2298548271      6.03E-05
    6   -1510.2298707062      1.95E-05
    7   -1510.2298716008      1.50E-05
    8   -1510.2298725694      3.00E-06
    9   -1510.2298726097      1.14E-06
   10   -1510.2298726144      5.60E-07
   11   -1510.2298726158      1.47E-07
   12   -1510.2298726159      3.30E-08
   13   -1510.2298726160      1.30E-08
   14   -1510.2298726160      2.11E-09 Convergence criterion met
 ---------------------------------------
 SCF time:  CPU 98.50 s  wall 2.06 s
 SCF   energy in the final basis set = -1510.22987262
 Total energy in the final basis set = -1510.22987262
 
 --------------------------------------------------------------
 
                    Orbital Energies (a.u.)
 --------------------------------------------------------------
 
 Alpha MOs
 -- Occupied --
-18.950 -18.949 -18.933 -18.919 -18.895 -18.892 -18.884 -18.868
-18.859 -18.847 -10.110 -10.106 -10.099 -10.096 -10.088 -10.079
-10.070 -10.068 -10.063 -10.061 -10.060 -10.059 -10.039 -10.038
-10.037 -10.035 -10.017 -10.017 -10.016 -10.015  -1.033  -1.027
 -1.018  -1.010  -0.989  -0.987  -0.951  -0.943  -0.933  -0.925
 -0.771  -0.768  -0.737  -0.728  -0.717  -0.709  -0.704  -0.669
 -0.667  -0.628  -0.600  -0.593  -0.550  -0.548  -0.535  -0.535
 -0.517  -0.513  -0.496  -0.480  -0.469  -0.466  -0.463  -0.451
 -0.446  -0.434  -0.433  -0.418  -0.414  -0.412  -0.410  -0.407
 -0.398  -0.391  -0.379  -0.376  -0.372  -0.360  -0.357  -0.353
 -0.350  -0.341  -0.339  -0.338  -0.332  -0.330  -0.325  -0.315
 -0.312  -0.304  -0.304  -0.299  -0.296  -0.293  -0.289  -0.274
 -0.271  -0.253  -0.238  -0.237  -0.235  -0.232  -0.228  -0.187
 -0.181  -0.171  -0.162  -0.156  -0.152  -0.149  -0.146  -0.141
 -0.135
 -- Virtual --
  0.074   0.102   0.109   0.116   0.203   0.239   0.247   0.276
  0.277   0.292   0.302   0.311   0.319   0.323   0.335   0.347
  0.351   0.356   0.359   0.361   0.364   0.368   0.368   0.376
  0.387   0.392   0.393   0.398   0.403   0.407   0.411   0.413
  0.415   0.421   0.423   0.427   0.431   0.434   0.436   0.437
  0.443   0.446   0.454   0.455   0.458   0.465   0.468   0.469
  0.474   0.478   0.492   0.493   0.496   0.516   0.521   0.546
  0.547   0.556   0.556   0.629   0.646   0.658   0.659
 --------------------------------------------------------------
 
          Ground-State Mulliken Net Atomic Charges

     Atom                 Charge (a.u.)
  ----------------------------------------
      1 O                    -0.220485
      2 C                     0.216477
      3 C                    -0.080263
      4 C                    -0.076742
      5 C                     0.210363
      6 O                    -0.173627
      7 C                    -0.042822
      8 C                    -0.046872
      9 O                    -0.174123
     10 C                     0.216480
     11 C                    -0.080872
     12 C                    -0.080884
     13 C                     0.228239
     14 O                    -0.233095
     15 O                    -0.184136
     16 O                    -0.194620
     17 O                    -0.221286
     18 C                    -0.113012
     19 C                     0.029893
     20 C                    -0.142933
     21 C                    -0.145944
     22 C                     0.032808
     23 O                    -0.192783
     24 H                     0.087995
     25 H                     0.085822
     26 H                     0.086976
     27 H                     0.076446
     28 H                     0.074547
     29 H                     0.076651
     30 H                     0.072620
     31 H                     0.086467
     32 O                    -0.199432
     33 C                    -0.112712
     34 C                     0.032073
     35 C                    -0.144290
     36 C                    -0.145514
     37 C                     0.031579
     38 O                    -0.191035
     39 H                     0.086216
     40 H                     0.079678
     41 H                     0.086338
     42 H                     0.087219
     43 H                     0.076201
     44 H                     0.072380
     45 H                     0.076492
     46 H                     0.071764
     47 H                     0.086266
     48 H                     0.086642
     49 H                     0.091826
     50 H                     0.088972
     51 H                     0.083844
     52 H                     0.077153
     53 H                     0.113037
     54 H                     0.102277
     55 H                     0.097680
     56 H                     0.088060
  ----------------------------------------
  Sum of atomic charges =     0.000000

 -----------------------------------------------------------------
                    Cartesian Multipole Moments
 -----------------------------------------------------------------
    Charge (ESU x 10^10)
                 0.0000
    Dipole Moment (Debye)
         X       0.1345      Y      -1.8052      Z      -1.8252
       Tot       2.5706
    Quadrupole Moments (Debye-Ang)
        XX    -140.2295     XY       1.0932     YY    -152.7457
        XZ      16.4369     YZ      -1.7569     ZZ    -171.0127
    Octopole Moments (Debye-Ang^2)
       XXX      13.2607    XXY     -14.6594    XYY      -6.1907
       YYY       4.5356    XXZ       0.7245    XYZ       9.5341
       YYZ     -26.4349    XZZ       7.5345    YZZ      -0.8802
       ZZZ      -9.4323
    Hexadecapole Moments (Debye-Ang^3)
      XXXX  -15832.9712   XXXY    -110.0923   XXYY   -3196.2916
      XYYY    -144.7421   YYYY   -2378.0344   XXXZ     209.8369
      XXYZ      15.8908   XYYZ       0.1669   YYYZ     -44.8689
      XXZZ   -3106.9418   XYZZ     -54.8877   YYZZ    -597.5811
      XZZZ      35.5183   YZZZ     -28.9108   ZZZZ   -1102.6983
 -----------------------------------------------------------------
 Calculating analytic gradient of the SCF energy
 Gradient of SCF Energy
            1           2           3           4           5           6
    1   0.0009656  -0.0127293   0.0144555  -0.0014524   0.0288396  -0.0013311
    2  -0.0035113  -0.0119304  -0.0067408   0.0200275  -0.0248308  -0.0044351
    3  -0.0083579  -0.0287100   0.0096707   0.0344229  -0.0382065   0.0258309
            7           8           9          10          11          12
    1  -0.0067502  -0.0070971  -0.0056912  -0.0030238  -0.0004268  -0.0079404
    2   0.0008436   0.0180517   0.0004182  -0.0220102   0.0154648  -0.0001304
    3  -0.0001954  -0.0050464   0.0135595  -0.0081566  -0.0119478  -0.0085814
           13          14          15          16          17          18
    1  -0.0045987   0.0050641   0.0186942  -0.0139720   0.0076031   0.0141525
    2   0.0102328  -0.0105365   0.0313622   0.0076485  -0.0031177   0.0068408
    3   0.0335590   0.0063751   0.0422865  -0.0541529  -0.0060536   0.0250637
           19          20          21          22          23          24
    1   0.0021936  -0.0089863  -0.0099997  -0.0155228   0.0097213  -0.0005532
    2  -0.0157152  -0.0109330   0.0026756   0.0244357  -0.0130823  -0.0007584
    3  -0.0222987  -0.0047607  -0.0009419   0.0067978   0.0236415   0.0020130
           25          26          27          28          29          30
    1   0.0028649   0.0041102  -0.0002116   0.0025291   0.0003059  -0.0003912
    2  -0.0027775   0.0015282   0.0007064   0.0019090   0.0062928  -0.0032628
    3  -0.0027301   0.0089877  -0.0052407   0.0018965  -0.0006470  -0.0001120
           31          32          33          34          35          36
    1   0.0075993  -0.0125866  -0.0151702   0.0157646   0.0143618   0.0057918
    2  -0.0066492   0.0184430  -0.0239826  -0.0212665  -0.0006099   0.0086931
    3   0.0051470  -0.0005282  -0.0129709   0.0098559  -0.0017994   0.0033483
           37          38          39          40          41          42
    1  -0.0095953  -0.0059948  -0.0066479   0.0039405   0.0006201  -0.0082059
    2   0.0236841  -0.0041257   0.0060793  -0.0024173  -0.0020590   0.0014731
    3   0.0087142  -0.0287033   0.0025044  -0.0004753  -0.0001724  -0.0072457
           43          44          45          46          47          48
    1   0.0017300  -0.0038251  -0.0042485   0.0024392  -0.0028001  -0.0021299
    2  -0.0015699  -0.0000862   0.0026355  -0.0015871  -0.0069022  -0.0002897
    3   0.0048577  -0.0005854   0.0037558  -0.0016033  -0.0084861  -0.0007421
           49          50          51          52          53          54
    1   0.0016909  -0.0014512   0.0022536   0.0001399  -0.0060330   0.0121645
    2   0.0022853  -0.0016744  -0.0002868   0.0010514   0.0006522  -0.0057069
    3  -0.0000873  -0.0014937   0.0010332   0.0018774  -0.0011168  -0.0046120
           55          56
    1   0.0024335  -0.0030627
    2  -0.0002243  -0.0002249
    3   0.0010627   0.0005002
 Max gradient component =       5.415E-02
 RMS gradient           =       1.227E-02
 Gradient time:  CPU 30.07 s  wall 0.63 s
 Geometry Optimization Parameters
   NAtoms,    NIC,     NZ,  NCons,   NDum,   NFix, NCnnct, MaxDiis
       56     458       0       9       0       0       0       0

 Cartesian Hessian Update
 Hessian Updated using BFGS Update


** CONSTRAINED OPTIMIZATION IN DELOCALIZED INTERNAL COORDINATES **
   Searching for a Minimum

   Optimization Cycle:   3

                       Coordinates (Angstroms)
     ATOM                X               Y               Z
      1  O        -3.5390401835    2.3766807351    0.7031304678
      2  C        -3.7509962035    1.7516781357   -0.3584696911
      3  C        -4.6050645332    0.4719194666   -0.5052891246
      4  C        -3.8522799640   -0.8998280150   -0.4101490275
      5  C        -2.3487064759   -0.8198936542    0.0052755576
      6  O        -1.6884817100    0.0636073386   -0.8651054277
      7  C        -0.2282243441   -0.0233532827   -0.8507796667
      8  C         0.3687016340   -0.2613010219    0.5678697322
      9  O         1.8309289524   -0.3283636732    0.4357672576
     10  C         2.5317139020    0.5408751878    1.2732442036
     11  C         4.0644394327    0.3494399307    1.1521105157
     12  C         4.5508416767   -0.8266492167    0.2321321429
     13  C         3.4755086724   -1.4506918415   -0.6968642886
     14  O         3.3304378060   -1.2148938885   -1.9156846305
     15  O        -3.1910451739    2.1418519586   -1.5761515928
     16  O         2.9317324217   -2.6048147027   -0.1109603944
     17  O         2.0009458596    1.4196642647    1.9839342297
     18  C         2.1304587370   -3.4355353182   -0.9528444387
     19  C         4.7743838371    1.5807191902    0.4768795560
     20  C         6.2654073146    1.6109831452    0.9407928116
     21  C         6.8288798725    0.3755560458    0.1866300128
     22  C         5.5800878125   -0.0403468020   -0.6648603046
     23  O         4.8872649082    1.2120238614   -0.9262516620
     24  H         4.4376858789    0.2149125151    2.1864188302
     25  H         5.0396558697   -1.6470371434    0.7916357514
     26  H         4.2656955515    2.5459581370    0.6739346470
     27  H         6.7211820168    2.5268089065    0.5218013019
     28  H         6.4151257849    1.6055348246    2.0343498902
     29  H         7.6537784547    0.6995653578   -0.4719460380
     30  H         7.1735297272   -0.4491376075    0.8347510923
     31  H         5.8803204716   -0.6091437552   -1.5676761862
     32  O        -2.0083853790   -1.0684510804    1.1842919048
     33  C        -2.3526373024    3.3002073468   -1.5522703473
     34  C        -5.6221530665    0.3031446316    0.6927435214
     35  C        -6.8159708989   -0.5840145294    0.2122010311
     36  C        -6.1243711691   -1.9712930794    0.1083934069
     37  C        -4.7073366632   -1.6299684208    0.6853600708
     38  O        -4.9507012093   -0.5660252640    1.6462144676
     39  H        -5.1978844306    0.5817651743   -1.4348365790
     40  H        -3.8879803903   -1.4394834825   -1.3783674998
     41  H        -1.4730776830    3.1553035735   -0.8861593654
     42  H        -5.9806581188    1.2659022732    1.1091473108
     43  H        -7.5523080743   -0.6120864229    1.0364914660
     44  H        -7.3231606664   -0.2387740269   -0.7053605634
     45  H        -6.6492340486   -2.6882714497    0.7637818131
     46  H        -6.0578178271   -2.3833938928   -0.9137450300
     47  H        -4.2061243632   -2.5313528776    1.0918662545
     48  H        -2.9073268277    4.2029814001   -1.2124826430
     49  H        -1.9910491190    3.4727560199   -2.5851090626
     50  H         1.7813392517   -4.2923233596   -0.3431718161
     51  H         2.7127619959   -3.8270196619   -1.8168555269
     52  H         1.2409071901   -2.8968910382   -1.3468792903
     53  H         0.0169815675    0.4994260634    1.2972959733
     54  H         0.1467358946   -1.2957389408    0.9037443808
     55  H         0.1613747692    0.9316529333   -1.2613610228
     56  H         0.0852289356   -0.8477352506   -1.5286980612
   Point Group: c1    Number of degrees of freedom:   162


   Energy is  -1510.229872616

              Constraints and their Current Values
                                        Value     Constraint
   Dihedral:        1   2   3   4      -93.003      -93.007
   Dihedral:        3   4   5   6      -54.082      -54.082
   Dihedral:        4   5   6   7     -164.039     -164.032
   Dihedral:        5   6   7   8      -38.291      -38.260
   Dihedral:        6   7   8   9      179.961      179.985
   Dihedral:        7   8   9  10      126.619      126.619
   Dihedral:        8   9  10  11      176.097      176.104
   Dihedral:        9  10  11  12       -4.748       -4.744
   Dihedral:       11  12  13  14      100.846      100.833
 Hessian Updated using BFGS Update

   Using Lagrange Multiplier Algorithm


161 Hessian modes will be used to form the next step
  Hessian Eigenvalues:
    -0.977753   -0.977753   -0.977753   -0.977753   -0.977753   -0.977753
    -0.976463   -0.975646    0.044918    0.045000    0.045000    0.045003
     0.045010    0.045066    0.045561    0.045596    0.046904    0.048856
     0.048879    0.050225    0.054540    0.059598    0.060004    0.062678
     0.062765    0.067001    0.067100    0.067114    0.067411    0.070420
     0.070841    0.071560    0.073707    0.073778    0.075776    0.076096
     0.076669    0.077210    0.082445    0.082568    0.083585    0.083640
     0.083818    0.084493    0.084608    0.085493    0.086149    0.086505
     0.086581    0.087218    0.088517    0.088894    0.089051    0.089122
     0.089839    0.089878    0.093871    0.094027    0.096616    0.096622
     0.111526    0.111586    0.114372    0.114667    0.115851    0.115905
     0.116594    0.116821    0.117500    0.118630    0.119516    0.124257
     0.124976    0.130041    0.130861    0.130999    0.140468    0.141933
     0.159323    0.160003    0.161446    0.171698    0.171843    0.173117
     0.173243    0.213331    0.218251    0.224296    0.234474    0.239119
     0.239568    0.244188    0.249426    0.249945    0.252443    0.258338
     0.260315    0.266994    0.267244    0.278784    0.279389    0.282051
     0.286861    0.295423    0.297047    0.299902    0.307732    0.310189
     0.312382    0.320445    0.321491    0.321953    0.322207    0.322309
     0.322528    0.322962    0.323180    0.323230    0.323432    0.323490
     0.323569    0.323781    0.324030    0.324381    0.324420    0.324622
     0.324705    0.324871    0.325079    0.325688    0.326758    0.326873
     0.327244    0.327949    0.328823    0.333214    0.369018    0.370272
     0.383239    0.386592    0.396920    0.406677    0.463942    0.492105
     0.501882    0.515796    0.526557    0.536257    0.693657    0.933079
     0.937361    0.942353    0.987099    1.022753    1.022753    1.022753
     1.022753    1.022753    1.022753    1.031398    1.038345

 Minimum Search - Taking P-RFO Step
 Searching for Lamda that Maximizes Along the Constraint modes Only
 Value Taken    Lamda =   0.00023506
 Searching for Lamda that Minimizes Along All other modes
 Value Taken    Lamda =  -0.05116810
 Calculated Step too Large.  Step scaled by  0.604775
 Step Taken.  Stepsize is  0.300000

                             Maximum     Tolerance    Cnvgd?
         Gradient            0.041935       0.000300      NO
         Displacement        0.081856       0.001200      NO
         Energy change     -0.042216       0.000001      NO


 New Cartesian Coordinates Obtained by Inverse Iteration

 Displacement from previous Coordinates is:  2.074432
 Adding empirical dispersion correction 
 ----------------------------------------------------------------
 Doing -D3(op) with
 s6 =   1.00000
 s8 =   0.78311
 a1 =   0.30000
 a2 =   4.25000
 n  =  10.00000
 -D3 energy without 3body term =     -0.0679400319 hartrees
 ----------------------------------------------------------------
             Standard Nuclear Orientation (Angstroms)
    I     Atom           X                Y                Z
 ----------------------------------------------------------------
    1      O      -3.5190954528     2.3560837870     0.7355026499
    2      C      -3.7134168823     1.7334335998    -0.3323068193
    3      C      -4.6183395889     0.4820348427    -0.5328275756
    4      C      -3.9172162625    -0.9223594631    -0.4063625867
    5      C      -2.4293416739    -0.8813343400     0.0892579574
    6      O      -1.7100072776    -0.0013312301    -0.7624350659
    7      C      -0.2380121835    -0.0879551941    -0.7122939131
    8      C       0.4023309767    -0.3270732601     0.6988478258
    9      O       1.8665732062    -0.3768750107     0.4941826341
   10      C       2.5766857338     0.5157992655     1.3223428537
   11      C       4.1171534342     0.3534634162     1.1368960977
   12      C       4.6124912161    -0.8069370725     0.1902524225
   13      C       3.5116545895    -1.4970687130    -0.6818582613
   14      O       3.2729944728    -1.2884027809    -1.8921876467
   15      O      -3.1034284056     2.0905382891    -1.5554570850
   16      O       3.0522357465    -2.6642175875    -0.0128259031
   17      O       2.0373060148     1.3710324744     2.0592102306
   18      C       2.2048945642    -3.4789835514    -0.8657984792
   19      C       4.7523276559     1.6189306858     0.4282745262
   20      C       6.2671395944     1.6978212976     0.8309018167
   21      C       6.8426000952     0.4762974206     0.0455746582
   22      C       5.5707392004     0.0146555661    -0.7622195353
   23      O       4.8132168974     1.2532549446    -0.9948385512
   24      H       4.5421953169     0.2333975716     2.1514083181
   25      H       5.1521753738    -1.6023691483     0.7360019053
   26      H       4.2071024715     2.5609989454     0.6346877212
   27      H       6.6797977100     2.6292562596     0.4064962831
   28      H       6.4535338173     1.6888696626     1.9171969397
   29      H       7.6320471335     0.8178072794    -0.6440793783
   30      H       7.2375367241    -0.3333673307     0.6810525359
   31      H       5.8356058291    -0.5363074409    -1.6856003623
   32      O      -2.1031054510    -1.1964953090     1.2570889343
   33      C      -2.2226773225     3.2386087047    -1.4104388190
[...]
     15  O        -3.1638400075    2.2483859871   -1.4960475401
     16  O         3.3048205347   -2.7907235623    0.2826668194
     17  O         2.0460298008    1.1861685965    2.2013102899
     18  C         2.2723334629   -3.6560279170   -0.3288956337
     19  C         4.7236723411    1.6309757431    0.4981328489
     20  C         6.2859570780    1.6685145964    0.7281965003
     21  C         6.7769474591    0.6207446839   -0.3379407654
     22  C         5.4014939929    0.1454523896   -0.9481202084
     23  O         4.5816076878    1.3799345765   -0.9521157990
     24  H         4.5947084888    0.1290202938    2.1472306174
     25  H         5.3907120968   -1.4595398983    0.6170963201
     26  H         4.1801804541    2.5494099073    0.7945591502
     27  H         6.6815338720    2.6753409159    0.5203772969
     28  H         6.5570521586    1.3873115424    1.7583154203
     29  H         7.3983169826    1.0955967494   -1.1138654378
     30  H         7.3441921459   -0.2110836025    0.1094555519
     31  H         5.4478158451   -0.2861239557   -1.9667105725
     32  O        -1.9865282821   -1.6416452027    0.9021008348
     33  C        -2.2298976925    3.3712126679   -1.2552352381
     34  C        -5.7578289940    0.3618241420    0.5483710792
     35  C        -6.9181224237   -0.4910557637   -0.0990181127
     36  C        -6.2524734064   -1.9168806268   -0.1473758848
     37  C        -4.8549302272   -1.6266412770    0.5267057361
     38  O        -5.1514403254   -0.5718680391    1.5247226115
     39  H        -5.0649506127    0.7258287267   -1.5501725422
     40  H        -3.9268922894   -1.3413136620   -1.5078661798
     41  H        -1.3649720032    3.0537821506   -0.6380298719
     42  H        -6.0718117143    1.2965385298    1.0518540190
     43  H        -7.8075245384   -0.4842745389    0.5509757343
     44  H        -7.2045159561   -0.1199175547   -1.0959187533
     45  H        -6.8225675005   -2.6507896439    0.4439071991
     46  H        -6.1437910034   -2.2999337344   -1.1748306924
     47  H        -4.3628292167   -2.4907547358    1.0144509785
     48  H        -2.7310876289    4.2200323207   -0.7461995968
     49  H        -1.8747118307    3.6933118198   -2.2513963935
     50  H         2.1295195839   -4.5043230158    0.3655084257
     51  H         2.5898216317   -4.0371303449   -1.3212035042
     52  H         1.3112822284   -3.1161197798   -0.4526870285
     53  H         0.2016580144    0.3926502566    1.4728813181
     54  H         0.0792194795   -1.3707517184    1.0641834972
     55  H         0.1491334490    0.9467461922   -1.0307105922
     56  H         0.1125078982   -0.8061840746   -1.4172849657
   Point Group: c1    Number of degrees of freedom:   162


   Energy is  -1510.275687725

              Constraints and their Current Values
                                        Value     Constraint
   Dihedral:        1   2   3   4      -93.007      -93.007
   Dihedral:        3   4   5   6      -54.082      -54.082
   Dihedral:        4   5   6   7     -164.032     -164.032
   Dihedral:        5   6   7   8      -38.260      -38.260
   Dihedral:        6   7   8   9      179.985      179.985
   Dihedral:        7   8   9  10      126.619      126.619
   Dihedral:        8   9  10  11      176.104      176.104
   Dihedral:        9  10  11  12       -4.744       -4.744
   Dihedral:       11  12  13  14      100.833      100.833
 Hessian Updated using BFGS Update

153 Hessian modes will be used to form the next step
  Hessian Eigenvalues:
     0.002882    0.007455    0.014711    0.021634    0.038822    0.045002
     0.045057    0.045094    0.045871    0.047039    0.048093    0.049435
     0.052869    0.054391    0.058859    0.060144    0.062984    0.066029
     0.066932    0.067360    0.067536    0.068581    0.070777    0.071249
     0.073890    0.074149    0.075878    0.076071    0.077886    0.079135
     0.082346    0.082570    0.083188    0.083561    0.084229    0.084549
     0.084793    0.085259    0.086338    0.086533    0.087477    0.087848
     0.088939    0.089070    0.089442    0.089821    0.090816    0.093212
     0.094141    0.094316    0.096644    0.096751    0.111521    0.111565
     0.114519    0.114964    0.115862    0.115908    0.116717    0.117218
     0.117745    0.120828    0.122341    0.124513    0.125046    0.129966
     0.130818    0.131210    0.156593    0.158160    0.160002    0.160014
     0.160170    0.160500    0.161716    0.162529    0.172205    0.173105
     0.190891    0.202860    0.220018    0.224843    0.232324    0.238159
     0.239064    0.244120    0.248703    0.249345    0.250025    0.251610
     0.253057    0.257424    0.265316    0.266663    0.267132    0.276057
     0.278765    0.279951    0.284612    0.295243    0.296420    0.299949
     0.306117    0.308963    0.310903    0.315983    0.319609    0.320308
     0.321946    0.322240    0.322423    0.322499    0.323153    0.323210
     0.323320    0.323455    0.323535    0.323581    0.323882    0.324082
     0.324401    0.324542    0.324701    0.324783    0.325170    0.325532
     0.326019    0.326947    0.327189    0.327718    0.328223    0.329915
     0.337761    0.340971    0.358290    0.368150    0.371054    0.384190
     0.400488    0.416996    0.434223    0.475649    0.494620    0.502610
     0.514592    0.527553    0.555272    0.665900    0.784641    0.934653
     0.938654    0.942201    1.016441

 Minimum Search - Taking Simple RFO Step
 Searching for Lamda that Minimizes Along All modes
 Value Taken    Lamda =   0.00000000
 Step Taken.  Stepsize is  0.003693

                             Maximum     Tolerance    Cnvgd?
         Gradient           0.000045      0.000300     YES
         Displacement       0.000941      0.001200     YES
         Energy change     -0.000001      0.000001     YES

 Final energy is   -1510.27568772519     


 ******************************
 **  OPTIMIZATION CONVERGED  **
 ******************************

                       Coordinates (Angstroms)
     ATOM                X               Y               Z
      1  O        -3.4671491771    2.3169682227    0.8551560417
      2  C        -3.6793939087    1.7680469016   -0.2473228771
      3  C        -4.6276099775    0.5561867780   -0.5501123576
      4  C        -3.9247309382   -0.8699701427   -0.5075179609
      5  C        -2.4403840438   -0.8767720585    0.0237315429
      6  O        -1.7039632634    0.0639269967   -0.7570489229
      7  C        -0.2235837834   -0.0388445769   -0.6830948255
      8  C         0.4275788970   -0.3808953983    0.7073533308
      9  O         1.8894692662   -0.4147276318    0.4691421493
     10  C         2.5993154633    0.4342965030    1.3683148673
     11  C         4.1471497200    0.2960719467    1.1504705064
     12  C         4.6738270795   -0.7866560704    0.1135670698
     13  C         3.5971810113   -1.6903751389   -0.5932322638
     14  O         3.1345129949   -1.5658507535   -1.7469229162
     15  O        -3.1638400075    2.2483859871   -1.4960475401
     16  O         3.3048205347   -2.7907235623    0.2826668194
     17  O         2.0460298008    1.1861685965    2.2013102899
     18  C         2.2723334629   -3.6560279170   -0.3288956337
     19  C         4.7236723411    1.6309757431    0.4981328489
     20  C         6.2859570780    1.6685145964    0.7281965003
     21  C         6.7769474591    0.6207446839   -0.3379407654
     22  C         5.4014939929    0.1454523896   -0.9481202084
     23  O         4.5816076878    1.3799345765   -0.9521157990
     24  H         4.5947084888    0.1290202938    2.1472306174
     25  H         5.3907120968   -1.4595398983    0.6170963201
     26  H         4.1801804541    2.5494099073    0.7945591502
     27  H         6.6815338720    2.6753409159    0.5203772969
     28  H         6.5570521586    1.3873115424    1.7583154203
     29  H         7.3983169826    1.0955967494   -1.1138654378
     30  H         7.3441921459   -0.2110836025    0.1094555519
     31  H         5.4478158451   -0.2861239557   -1.9667105725
     32  O        -1.9865282821   -1.6416452027    0.9021008348
     33  C        -2.2298976925    3.3712126679   -1.2552352381
     34  C        -5.7578289940    0.3618241420    0.5483710792
     35  C        -6.9181224237   -0.4910557637   -0.0990181127
     36  C        -6.2524734064   -1.9168806268   -0.1473758848
     37  C        -4.8549302272   -1.6266412770    0.5267057361
     38  O        -5.1514403254   -0.5718680391    1.5247226115
     39  H        -5.0649506127    0.7258287267   -1.5501725422
     40  H        -3.9268922894   -1.3413136620   -1.5078661798
     41  H        -1.3649720032    3.0537821506   -0.6380298719
     42  H        -6.0718117143    1.2965385298    1.0518540190
     43  H        -7.8075245384   -0.4842745389    0.5509757343
     44  H        -7.2045159561   -0.1199175547   -1.0959187533
     45  H        -6.8225675005   -2.6507896439    0.4439071991
     46  H        -6.1437910034   -2.2999337344   -1.1748306924
     47  H        -4.3628292167   -2.4907547358    1.0144509785
     48  H        -2.7310876289    4.2200323207   -0.7461995968
     49  H        -1.8747118307    3.6933118198   -2.2513963935
     50  H         2.1295195839   -4.5043230158    0.3655084257
     51  H         2.5898216317   -4.0371303449   -1.3212035042
     52  H         1.3112822284   -3.1161197798   -0.4526870285
     53  H         0.2016580144    0.3926502566    1.4728813181
     54  H         0.0792194795   -1.3707517184    1.0641834972
     55  H         0.1491334490    0.9467461922   -1.0307105922
     56  H         0.1125078982   -0.8061840746   -1.4172849657

Z-matrix Print:
$molecule
0 1
O 
C  1 1.425916
O  2 1.251127 1 123.884475
C  1 1.481558 2 112.099931 3 -4.418753 0
H  4 1.108376 1 109.967924 2 -114.182198 0
H  4 1.111506 1 109.098165 2 6.084070 0
C  2 1.569189 1 110.551646 3 -179.477231 0
H  7 1.105326 2 106.709727 1 -130.237347 0
C  4 1.573009 1 105.742020 2 126.619005 0
H  9 1.109569 4 109.331196 1 -60.201120 0
H  9 1.113913 4 107.933848 1 56.684566 0
O  9 1.485784 4 118.131240 1 179.985003 0
C  12 1.427182 9 116.186657 4 -38.259984 0
O  13 1.250019 12 126.897888 9 11.179388 0
C  13 1.576565 12 107.374936 9 -164.032004 0
H  15 1.105833 13 107.747617 12 70.462923 0
C  15 1.583490 13 109.325286 12 -166.735410 0
H  17 1.107588 15 113.542313 13 -35.733258 0
O  17 1.482060 15 102.548100 13 83.305697 0
C  19 1.480794 17 94.972335 15 58.353855 0
H  20 1.107146 19 110.403236 17 -179.047782 0
C  17 1.578528 15 109.210400 13 -166.858426 0
H  22 1.101474 17 110.579489 15 165.889043 0
H  22 1.101910 17 112.010234 15 44.528635 0
C  22 1.574295 17 101.227264 15 -75.724055 0
H  25 1.101623 22 111.411792 17 -115.325499 0
H  25 1.101624 22 112.783762 17 122.002879 0
C  20 1.588030 19 103.993440 17 -55.893088 0
H  28 1.104611 20 111.301120 19 148.167310 0
C  28 1.568247 20 113.038421 19 -91.136477 0
O  30 1.249729 28 127.765302 20 21.839076 0
O  30 1.433818 28 107.946681 20 -152.814340 0
C  32 1.480195 30 109.834803 28 -178.361825 0
H  33 1.105550 32 106.088722 30 -179.829516 0
H  33 1.108964 32 111.439846 30 61.022430 0
H  33 1.109416 32 111.714888 30 -60.430333 0
C  7 1.588980 2 118.526156 1 -4.744004 0
H  37 1.104644 7 109.433842 2 -124.696078 0
C  37 1.573353 7 117.240267 2 -2.132827 0
O  39 1.249228 37 127.666126 7 100.832991 0
O  39 1.436468 37 107.778606 7 -84.362568 0
C  41 1.479456 39 109.755445 37 178.804339 0
H  42 1.105530 41 106.218322 39 177.266712 0
H  42 1.109254 41 111.474931 39 -63.681689 0
H  42 1.109375 41 111.774061 39 57.787259 0
C  37 1.589184 7 100.839758 2 117.835226 0
H  46 1.107217 37 113.899274 7 -153.499713 0
O  46 1.481950 37 103.713368 7 -33.700302 0
C  48 1.478657 46 94.912090 37 56.661051 0
H  49 1.107598 48 110.862387 46 179.873914 0
C  46 1.578003 37 108.508663 7 75.807157 0
H  51 1.101655 46 110.433136 37 168.507350 0
H  51 1.101757 46 112.233614 37 47.012998 0
C  51 1.573386 46 100.987202 37 -73.429360 0
H  54 1.101530 51 111.640032 46 -119.194523 0
H  54 1.101686 51 112.756846 46 118.032412 0
$end

 
 --------------------------------------------------------------
 
                    Orbital Energies (a.u.)
 --------------------------------------------------------------
 
 Alpha MOs
 -- Occupied --
-18.943 -18.943 -18.928 -18.924 -18.888 -18.886 -18.885 -18.880
-18.869 -18.862 -10.110 -10.107 -10.096 -10.095 -10.078 -10.068
-10.062 -10.060 -10.060 -10.058 -10.057 -10.057 -10.042 -10.040
-10.035 -10.035 -10.021 -10.020 -10.020 -10.018  -1.021  -1.017
 -1.004  -1.001  -0.971  -0.968  -0.948  -0.942  -0.930  -0.928
 -0.764  -0.762  -0.730  -0.722  -0.710  -0.705  -0.699  -0.659
 -0.659  -0.620  -0.597  -0.589  -0.545  -0.544  -0.538  -0.537
 -0.513  -0.509  -0.489  -0.473  -0.460  -0.458  -0.457  -0.443
 -0.440  -0.430  -0.429  -0.411  -0.409  -0.408  -0.406  -0.401
 -0.396  -0.383  -0.377  -0.368  -0.367  -0.355  -0.352  -0.346
 -0.345  -0.339  -0.336  -0.334  -0.331  -0.329  -0.325  -0.313
 -0.311  -0.307  -0.305  -0.302  -0.298  -0.294  -0.285  -0.275
 -0.272  -0.252  -0.249  -0.248  -0.237  -0.235  -0.233  -0.190
 -0.180  -0.171  -0.168  -0.162  -0.158  -0.146  -0.146  -0.144
 -0.143
 -- Virtual --
  0.090   0.095   0.105   0.111   0.197   0.236   0.244   0.262
  0.264   0.272   0.284   0.286   0.300   0.311   0.326   0.330
  0.335   0.336   0.341   0.346   0.350   0.356   0.368   0.373
  0.376   0.382   0.384   0.395   0.400   0.408   0.410   0.411
  0.413   0.417   0.419   0.425   0.426   0.427   0.433   0.434
  0.435   0.437   0.438   0.439   0.441   0.449   0.456   0.467
  0.468   0.473   0.481   0.490   0.490   0.502   0.506   0.542
  0.542   0.552   0.553   0.631   0.637   0.654   0.655
 --------------------------------------------------------------
 
          Ground-State Mulliken Net Atomic Charges

     Atom                 Charge (a.u.)
  ----------------------------------------
      1 O                    -0.214138
      2 C                     0.210382
      3 C                    -0.079768
      4 C                    -0.076362
      5 C                     0.215016
      6 O                    -0.169980
      7 C                    -0.048896
      8 C                    -0.060107
      9 O                    -0.171116
     10 C                     0.213841
     11 C                    -0.077606
     12 C                    -0.081017
     13 C                     0.220765
     14 O                    -0.221756
     15 O                    -0.167534
     16 O                    -0.174198
     17 O                    -0.213337
     18 C                    -0.127862
     19 C                     0.025087
     20 C                    -0.143880
     21 C                    -0.144077
     22 C                     0.024928
     23 O                    -0.189780
     24 H                     0.087631
     25 H                     0.084283
     26 H                     0.085284
     27 H                     0.078516
     28 H                     0.074211
     29 H                     0.078111
     30 H                     0.073554
     31 H                     0.088066
     32 O                    -0.209840
     33 C                    -0.127559
     34 C                     0.024765
     35 C                    -0.143407
     36 C                    -0.144755
     37 C                     0.023347
     38 O                    -0.187906
     39 H                     0.085270
     40 H                     0.085526
     41 H                     0.086880
     42 H                     0.086853
     43 H                     0.078080
     44 H                     0.073106
     45 H                     0.078267
     46 H                     0.072564
     47 H                     0.089517
     48 H                     0.088255
     49 H                     0.089284
     50 H                     0.088642
     51 H                     0.087198
     52 H                     0.083874
     53 H                     0.103435
     54 H                     0.106995
     55 H                     0.093471
     56 H                     0.089875
  ----------------------------------------
  Sum of atomic charges =     0.000000

 -----------------------------------------------------------------
                    Cartesian Multipole Moments
 -----------------------------------------------------------------
    Charge (ESU x 10^10)
                 0.0000
    Dipole Moment (Debye)
         X       0.6775      Y      -1.1130      Z      -1.7717
       Tot       2.1993
    Quadrupole Moments (Debye-Ang)
        XX    -137.0830     XY       1.9137     YY    -154.0625
        XZ      14.2652     YZ      -0.7986     ZZ    -170.3211
    Octopole Moments (Debye-Ang^2)
       XXX      35.0426    XXY      -2.8658    XYY      -3.6007
       YYY      20.4135    XXZ     -18.1031    XYZ       3.5012
       YYZ     -19.5000    XZZ      10.8070    YZZ       1.6899
       ZZZ     -16.3420
    Hexadecapole Moments (Debye-Ang^3)
      XXXX  -15935.7463   XXXY     -34.4688   XXYY   -3284.3244
      XYYY    -135.4205   YYYY   -2564.8120   XXXZ     159.9446
      XXYZ      46.3159   XYYZ      -9.9914   YYYZ       0.0048
      XXZZ   -3106.8825   XYZZ     -36.7719   YYZZ    -634.2679
      XZZZ     -27.0603   YZZZ       2.8123   ZZZZ   -1006.3129
 -----------------------------------------------------------------
Archival summary:
1\1\vega02.cac.cornell.edu\OPT\ProcedureUnspecified\STO-3G\102026\jj585\WedJan1710:13:362018WedJan1710:13:362018\0\\#,OPT,ProcedureUnspecified,STO-3G,\\0,1\O\C,1,1.42592\O,2,1.25113,1,123.884\C,1,1.48156,2,112.1,3,-4.41875,0\H,4,1.10838,1,109.968,2,-114.182,0\H,4,1.11151,1,109.098,2,6.08407,0\C,2,1.56919,1,110.552,3,-179.477,0\H,7,1.10533,2,106.71,1,-130.237,0\C,4,1.57301,1,105.742,2,126.619,0\H,9,1.10957,4,109.331,1,-60.2011,0\H,9,1.11391,4,107.934,1,56.6846,0\O,9,1.48578,4,118.131,1,179.985,0\C,12,1.42718,9,116.187,4,-38.26,0\O,13,1.25002,12,126.898,9,11.1794,0\C,13,1.57657,12,107.375,9,-164.032,0\H,15,1.10583,13,107.748,12,70.4629,0\C,15,1.58349,13,109.325,12,-166.735,0\H,17,1.10759,15,113.542,13,-35.7333,0\O,17,1.48206,15,102.548,13,83.3057,0\C,19,1.48079,17,94.9723,15,58.3539,0\H,20,1.10715,19,110.403,17,-179.048,0\C,17,1.57853,15,109.21,13,-166.858,0\H,22,1.10147,17,110.579,15,165.889,0\H,22,1.10191,17,112.01,15,44.5286,0\C,22,1.57429,17,101.227,15,-75.7241,0\H,25,1.10162,22,111.412,17,-115.325,0\H,25,1.10162,22,112.784,17,122.003,0\C,20,1.58803,19,103.993,17,-55.8931,0\H,28,1.10461,20,111.301,19,148.167,0\C,28,1.56825,20,113.038,19,-91.1365,0\O,30,1.24973,28,127.765,20,21.8391,0\O,30,1.43382,28,107.947,20,-152.814,0\C,32,1.4802,30,109.835,28,-178.362,0\H,33,1.10555,32,106.089,30,-179.83,0\H,33,1.10896,32,111.44,30,61.0224,0\H,33,1.10942,32,111.715,30,-60.4303,0\C,7,1.58898,2,118.526,1,-4.744,0\H,37,1.10464,7,109.434,2,-124.696,0\C,37,1.57335,7,117.24,2,-2.13283,0\O,39,1.24923,37,127.666,7,100.833,0\O,39,1.43647,37,107.779,7,-84.3626,0\C,41,1.47946,39,109.755,37,178.804,0\H,42,1.10553,41,106.218,39,177.267,0\H,42,1.10925,41,111.475,39,-63.6817,0\H,42,1.10937,41,111.774,39,57.7873,0\C,37,1.58918,7,100.84,2,117.835,0\H,46,1.10722,37,113.899,7,-153.5,0\O,46,1.48195,37,103.713,7,-33.7003,0\C,48,1.47866,46,94.9121,37,56.6611,0\H,49,1.1076,48,110.862,46,179.874,0\C,46,1.578,37,108.509,7,75.8072,0\H,51,1.10165,46,110.433,37,168.507,0\H,51,1.10176,46,112.234,37,47.013,0\C,51,1.57339,46,100.987,37,-73.4294,0\H,54,1.10153,51,111.64,46,-119.195,0\H,54,1.10169,51,112.757,46,118.032,0\\\@

 Total job time:  58.68s(wall), 2791.37s(cpu) 
 Wed Jan 17 10:13:36 2018

        *************************************************************
        *                                                           *
        *  Thank you very much for using Q-Chem.  Have a nice day.  *
        *                                                           *
        *************************************************************


0 sent ACK to 0 
now end server 0 ... 
