mFile = /opt/software/qchem/qchem-5.0.1//bin/mpi/machines
Process 0 of 1 is on vega02.cac.cornell.edu - thread support 0
initial socket setup ...start
initial socket setup ...done 
now start server 0 ... 
vega02.cac.cornell.edu 10.84.3
Q-Chem Developer Version! Running on 10.84.3.*
                  Welcome to Q-Chem
     A Quantum Leap Into The Future Of Chemistry


 Q-Chem 5.0, Q-Chem, Inc., Pleasanton, CA (2017)

 Yihan Shao,  Zhengting Gan,  E. Epifanovsky,  A. T. B. Gilbert,  M. Wormit,  
 J. Kussmann,  A. W. Lange,  A. Behn,  Jia Deng,  Xintian Feng,  D. Ghosh,  
 M. Goldey,  P. R. Horn,  L. D. Jacobson,  I. Kaliman,  T. Kus,  A. Landau,  
 Jie Liu,  E. I. Proynov,  R. M. Richard,  R. P. Steele,  E. J. Sundstrom,  
 H. L. Woodcock III,  P. M. Zimmerman,  D. Zuev,  B. Albrecht,  E. Alguire,  
 S. A. Baeppler,  Z. Benda,  Y. A. Bernard,  E. J. Berquist,  K. B. Bravaya,  
 D. Casanova,  Chun-Min Chang,  Yunqing Chen,  A. Chien,  K. D. Closser,  
 M. P. Coons,  S. Dasgupta,  M. Diedenhofen,  Hainam Do,  R. G. Edgar,  
 Po-Tung Fang,  S. Fatehi,  Qingguo Feng,  Qinghui Ge,  A. Ghysels,  
 J. Gomes,  J. Gonthier,  A. Gunina,  M. W. D. Hanson-Heine,  
 P. H. P. Harbach,  A. W. Hauser,  J. E. Herr,  E. G. Hohenstein,  
 Z. C. Holden,  Kerwin Hui,  T.-C. Jagau,  Hyunjun Ji,  B. Kaduk,  
 K. Khistyaev,  Jaehoon Kim,  P. Klunzinger,  K. Koh,  D. Kosenkov,  
 T. Kowalczyk,  C. M. Krauter,  A. Kunitsa,  Ka Un Lao,  A. Laurent,  
 K. V. Lawler,  Joonho Lee,  D. Lefrancois,  S. Lehtola,  D. S. Levine,  
 Yi-Pei Li,  You-Sheng Lin,  Fenglai Liu,  E. Livshits,  A. Luenser,  
 P. Manohar,  E. Mansoor,  S. F. Manzer,  Shan-Ping Mao,  Yuezhi Mao,  
 N. Mardirossian,  A. V. Marenich,  L. A. Martinez-Martinez,  S. A. Maurer,  
 N. J. Mayhall,  S. C. McKenzie,  J.-M. Mewes,  A. F. Morrison,  K. Nanda,  
 T. S. Nguyen-Beck,  R. Olivares-Amaya,  J. A. Parkhill,  T. M. Perrine,  
 F. Plasser,  S. Prager,  A. Prociuk,  D. R. Rehn,  F. Rob,  M. Schneider,  
 N. Sergueev,  S. M. Sharada,  S. Sharma,  D. W. Small,  T. Stauch,  
 T. Stein,  Yu-Chuan Su,  A. J. W. Thom,  T. Tsuchimochi,  L. Vogt,  
 O. Vydrov,  M. A. Watson,  J. Wenzel,  M. de Wergifosse,  T. A. Wesolowski,  
 A. White,  J. Witte,  A. Yamada,  Jun Yang,  K. Yao,  S. Yeganeh,  
 S. R. Yost,  Zhi-Qiang You,  A. Zech,  Igor Ying Zhang,  Xing Zhang,  
 Yan Zhao,  Ying Zhu,  B. R. Brooks,  G. K. L. Chan,  C. J. Cramer,  
 M. S. Gordon,  W. J. Hehre,  A. Klamt,  M. W. Schmidt,  C. D. Sherrill,  
 D. G. Truhlar,  A. Aspuru-Guzik,  R. Baer,  A. T. Bell,  N. A. Besley,  
 Jeng-Da Chai,  A. Dreuw,  B. D. Dunietz,  T. R. Furlani,  Chao-Ping Hsu,  
 Yousung Jung,  Jing Kong,  D. S. Lambrecht,  WanZhen Liang,  C. Ochsenfeld,  
 V. A. Rassolov,  L. V. Slipchenko,  J. E. Subotnik,  T. Van Voorhis,  
 J. M. Herbert,  A. I. Krylov,  P. M. W. Gill,  M. Head-Gordon

 Contributors to earlier versions of Q-Chem not listed above: 
 R. D. Adamson,  B. Austin,  J. Baker,  G. J. O. Beran,  K. Brandhorst,  
 S. T. Brown,  E. F. C. Byrd,  A. K. Chakraborty,  C.-L. Cheng,  
 Siu Hung Chien,  D. M. Chipman,  D. L. Crittenden,  H. Dachsel,  
 R. A. DiStasio Jr.,  R. J. Doerksen,  A. D. Dutoi,  L. Fusti-Molnar,  
 W. A. Goddard III,  A. Golubeva-Zadorozhnaya,  S. R. Gwaltney,  G. Hawkins,  
 A. Heyden,  S. Hirata,  G. Kedziora,  F. J. Keil,  C. Kelley,  Jihan Kim,  
 R. A. King,  R. Z. Khaliullin,  P. P. Korambath,  W. Kurlancheek,  
 A. M. Lee,  M. S. Lee,  S. V. Levchenko,  Ching Yeh Lin,  D. Liotard,  
 R. C. Lochan,  I. Lotan,  P. E. Maslen,  N. Nair,  D. P. O'Neill,  
 D. Neuhauser,  E. Neuscamman,  C. M. Oana,  R. Olson,  B. Peters,  
 R. Peverati,  P. A. Pieniazek,  Y. M. Rhee,  J. Ritchie,  M. A. Rohrdanz,  
 E. Rosta,  N. J. Russ,  H. F. Schaefer III,  N. E. Schultz,  N. Shenvi,  
 A. C. Simmonett,  A. Sodt,  D. Stuck,  K. S. Thanthiriwatte,  V. Vanovschi,  
 Tao Wang,  A. Warshel,  C. F. Williams,  Q. Wu,  X. Xu,  W. Zhang

 Please cite Q-Chem as follows:
 Y. Shao et al., Mol. Phys. 113, 184-215 (2015)
 DOI: 10.1080/00268976.2014.952696

 Q-Chem 5.0.1 for Intel X86 EM64T Linux

 Parts of Q-Chem use Armadillo 5.200.1 (Boston Tea Smuggler).
 http://arma.sourceforge.net/

 Q-Chem begins on Wed Jan 17 10:22:41 2018  

Host: vega02.cac.cornell.edu
0

     Scratch files written to /scratch/jj585/SOT1001/1468c.save//
 Parallel job on  1  processors

Checking the input file for inconsistencies... 	...done.

--------------------------------------------------------------
User input:
--------------------------------------------------------------
$molecule
0  1
O -3.94934 -3.66094 2.70899
C -3.26408 -4.56952 2.26188
C -3.36658 -6.02376 2.66595
C -2.61139 -6.45568 3.93362
C -1.98395 -5.35073 4.75428
O -1.16399 -4.59523 3.96541
C -0.07855 -4.0025 4.68634
C -0.54568 -3.55915 6.06886
O 0.5478 -2.96853 6.78884
C 0.21215 -1.9695 7.64231
C 1.39787 -1.41732 8.39717
C 2.72569 -2.14398 8.13805
C 2.75488 -3.05544 6.92763
O 3.17858 -2.75185 5.8218
O -2.42331 -4.30095 1.22816
O 2.65079 -4.38131 7.23699
O -0.91707 -1.51461 7.77679
C 2.87565 -5.44746 6.38665
C 1.76062 0.0275 8.01765
C 2.51967 0.68019 9.17133
C 3.83653 -0.0667 9.10062
C 3.60735 -0.91004 7.83986
O 2.76418 -0.11117 7.0439
H 1.12354 -1.46768 9.47523
H 3.10458 -2.71098 9.01778
H 0.87993 0.64333 7.73241
H 2.69666 1.7417 8.8846
H 2.00947 0.6482 10.15808
H 4.65036 0.6742 8.93706
H 4.07081 -0.70368 9.98091
H 4.58314 -1.19172 7.38546
O -2.66496 -4.89299 5.66666
C -2.2161 -3.04325 0.70174
C -4.80359 -6.44265 3.02998
C -4.96896 -7.95135 2.85236
C -4.15957 -8.46411 4.02514
C -3.7696 -7.14141 4.69392
O -4.86215 -6.29465 4.42753
H -3.0269 -6.61836 1.78704
H -1.79338 -7.17703 3.71325
H -1.81149 -2.36475 1.48322
H -5.57823 -5.89995 2.44486
H -6.04192 -8.18965 3.03186
H -4.66735 -8.3451 1.85794
H -4.83578 -9.04684 4.68966
H -3.27004 -9.07508 3.75907
H -3.52887 -7.31205 5.76645
H -3.16821 -2.63258 0.30291
H -1.48154 -3.11211 -0.12658
H 1.96116 -6.07345 6.33851
H 3.70209 -6.06587 6.79294
H 3.14746 -5.12661 5.35872
H -1.39707 -2.85225 5.93241
H -0.79246 -4.42661 6.71595
H 0.29869 -3.13187 4.10956
H 0.74168 -4.73945 4.7826
$end

$opt
CONSTRAINT
tors           1           2           3           4     -83.516
tors           3           4           5           6     -54.557
tors           4           5           6           7    -151.039
tors           5           6           7           8     -37.771
tors           6           7           8           9    +179.851
tors           7           8           9          10    +147.253
tors           8           9          10          11    +178.352
tors           9          10          11          12      -4.124
tors          11          12          13          14     +96.421
ENDCONSTRAINT
$end

$rem
JOBTYPE                   OPT
METHOD                    B3LYP
DFT_D                     d3_op
BASIS                     STO-3G
GEOM_OPT_MAX_CYCLES       100
GEOM_OPT_TOL_GRADIENT     300
GEOM_OPT_TOL_DISPLACEMENT 1200
GEOM_OPT_TOL_ENERGY       100
SYMMETRY                  False
THRESH                    12
SCF_CONVERGENCE           8
MAX_SUB_FILE_NUM          128
MEM_STATIC                400
MEM_TOTAL                 4000
$end
--------------------------------------------------------------
 Adding empirical dispersion correction 
 ----------------------------------------------------------------
 Doing -D3(op) with
 s6 =   1.00000
 s8 =   0.78311
 a1 =   0.30000
 a2 =   4.25000
 n  =  10.00000
 -D3 energy without 3body term =     -0.0682842275 hartrees
 ----------------------------------------------------------------
             Standard Nuclear Orientation (Angstroms)
    I     Atom           X                Y                Z
 ----------------------------------------------------------------
    1      O      -3.6612217363     2.2795339216     0.6672359112
    2      C      -3.9028780978     1.6609858347    -0.3594123749
    3      C      -4.5232828607     0.2828341665    -0.4256596545
    4      C      -3.5814303840    -0.9205661334    -0.2565570770
    5      C      -2.1542544450    -0.6099452261     0.1368406641
    6      O      -1.6117932565     0.2778782713    -0.7479959449
    7      C      -0.1934751830     0.1407981857    -0.8852249658
    8      C       0.4367672915    -0.1801400872     0.4660426828
    9      O       1.8589403474    -0.3199740824     0.3219179175
   10      C       2.5950110957     0.0763251340     1.3897567111
   11      C       4.0776538403    -0.1320968316     1.1923255422
   12      C       4.4637977836    -0.8350249458    -0.1172808123
   13      C       3.3811453493    -0.9014889630    -1.1756636377
   14      O       3.2549293600    -0.1236512888    -2.1103222084
   15      O      -3.7274281757     2.2883634561    -1.5523984273
   16      O       2.7777546758    -2.1229921413    -1.2668736988
   17      O       2.1369716635     0.5904194543     2.4027001938
   18      C       1.9331406398    -2.5533923113    -2.2727060812
   19      C       4.8822172846     1.1735918920     1.0875283740
   20      C       6.3345143728     0.9079069214     1.4791702318
   21      C       6.8001193509     0.0858170430     0.2941195696
   22      C       5.5519170525     0.1531715888    -0.5951025583
   23      O       4.9862033288     1.4070152471    -0.2942283140
   24      H       4.4230715716    -0.7195554462     2.0729988126
   25      H       4.8793526138    -1.8571953059     0.0291891261
   26      H       4.4596075629     2.0025411555     1.6961887589
   27      H       6.8608697093     1.8892038040     1.4604747478
   28      H       6.4824401743     0.4325406825     2.4727233803
   29      H       7.6542570562     0.6145933968    -0.1842613463
   30      H       7.0813857043    -0.9646779254     0.5240993137
   31      H       5.8309980039    -0.0127342999    -1.6593291156
   32      O      -1.9046416291    -0.6152107578     1.3382579557
   33      C      -3.2020538995     3.5555578902    -1.6940438531
   34      C      -5.5278007004     0.0246620046     0.7133203531
   35      C      -6.5201715774    -1.0608915827     0.2987781444
   36      C      -5.6329154911    -2.2872838382     0.3455391434
   37      C      -4.3314559465    -1.6696623299     0.8686312055
   38      O      -4.7672222236    -0.6232618782     1.7033679776
   39      H      -5.0584357026     0.2261714277    -1.4012698330
   40      H      -3.5179861340    -1.5405426720    -1.1783233371
   41      H      -2.1690194635     3.5878212737    -1.2858999808
   42      H      -6.0718742010     0.9408793032     1.0318885901
   43      H      -7.2790391779    -1.1421437147     1.1098073409
   44      H      -7.0359173073    -0.8836706548    -0.6694562672
   45      H      -6.0519894267    -2.9947072634     1.0954392577
   46      H      -5.4869567559    -2.8068151179    -0.6261215504
   47      H      -3.7026771153    -2.4523637309     1.3475938782
   48      H      -3.8390378975     4.2963533470    -1.1651751100
   49      H      -3.1686709350     3.8171542967    -2.7714885214
   50      H       0.9613226573    -2.8516979018    -1.8287956360
   51      H       2.3802514661    -3.4412128391    -2.7650191778
   52      H       1.7532984031    -1.7751717262    -3.0443892897
   53      H       0.1585727398     0.6335943546     1.1757152793
   54      H       0.1509258895    -1.1919950675     0.8217910206
   55      H       0.2188108951     1.0903706193    -1.2868643140
   56      H       0.0271079799    -0.6686520817    -1.6072165694
 ----------------------------------------------------------------
 Molecular Point Group                 C1    NOp =  1
 Largest Abelian Subgroup              C1    NOp =  1
 Nuclear Repulsion Energy =  3180.0661432609 hartrees
 There are      113 alpha and      113 beta electrons
 Requested basis set is STO-3G
 There are 86 shells and 176 basis functions

 Total QAlloc Memory Limit   4000 MB
 Mega-Array Size       392 MB
 MEM_STATIC part       400 MB
 A cutoff of  1.0D-12 yielded   2103 shell pairs
 There are      9885 function pairs
 
 -------------------------------------------------------
 OpenMP Integral Computing Module                       
 Release: version 1.0, May 2013, Q-Chem Inc. Pittsburgh 
 -------------------------------------------------------
 Integral Job Info:
 Integral job number is                      11
 Integral operator is                         1
 short-range coefficients                     0
 long-range coefficients              100000000
 Omega coefficients                           0
 if combine SR and LR in K                    0
 Integral screening is                        0
 Integral computing path is                   2
 max size of driver memory is            800000
 size of driver memory is                 45569
 size of scratch memory is              1046100
 max col of scratch BK array                289
 max len of scratch array in speh3           22
 max len of scratch index in speh4            8
 max int batch size is                      520
 min int batch size is                       52
 fixed nKL is                                52
 max L of basis functions is                  1
 order of int derivative is                   0
 number of shells is                         86
 number of basis is                         176
 number of cartesian basis is               176
 number of contracted shell pairs          2103
 number of primitive shell pairs          10986
 maxK2 (contraction) of shell pair            9
 max number of K2 of shell pair               1
 max number of CS2 of shell pair            293
 max number of PS2 of shell pair           1260
 mem total for path MDJ                   50922
 -------------------------------------------------------
 Smallest overlap matrix eigenvalue = 1.93E-01

 Scale SEOQF with 1.000000e-02/1.000000e-01/1.000000e-01

 Standard Electronic Orientation quadrupole field applied
 Nucleus-field energy     =     0.0000000108 hartrees
 Guess from superposition of atomic densities
 Warning:  Energy on first SCF cycle will be non-variational
 A restricted hybrid HF-DFT SCF calculation will be
 performed using Pulay DIIS extrapolation
 Exchange:     0.2000 Hartree-Fock + 0.0800 Slater + 0.7200 B88
 Correlation:  0.1900 VWN1RPA + 0.8100 LYP
 Using SG-1 standard quadrature grid
 Dispersion:   Grimme D3
 SCF converges when DIIS error is below 1.0E-08
 using 48 threads for integral computing
 -------------------------------------------------------
 OpenMP Integral computing Module                
 Release: version 1.0, May 2013, Q-Chem Inc. Pittsburgh 
 -------------------------------------------------------
 -------------------------------------------------------
 OpenMP BLAS3 based DFT computing Module                
 Release: version 1.0, May 2013, Q-Chem Inc. Pittsburgh 
 -------------------------------------------------------
 ---------------------------------------
  Cycle       Energy         DIIS Error
 ---------------------------------------
    1   -1509.4708444997      8.30E-02
    2   -1509.5415703007      1.07E-02
    3   -1507.1323952467      2.76E-02
    4   -1510.0519377658      3.76E-03
    5   -1510.1067250828      1.37E-03
    6   -1510.1145197611      3.34E-04
    7   -1510.1149496667      1.27E-04
    8   -1510.1150132584      3.74E-05
    9   -1510.1150184516      1.53E-05
   10   -1510.1150194599      3.96E-06
   11   -1510.1150195265      7.90E-07
   12   -1510.1150195293      1.90E-07
   13   -1510.1150195294      8.88E-08
   14   -1510.1150195293      4.30E-08
   15   -1510.1150195294      6.94E-09 Convergence criterion met
 ---------------------------------------
 SCF time:  CPU 109.66 s  wall 2.34 s
 SCF   energy in the final basis set = -1510.11501953
 Total energy in the final basis set = -1510.11501953
 
 --------------------------------------------------------------
 
                    Orbital Energies (a.u.)
 --------------------------------------------------------------
 
 Alpha MOs
 -- Occupied --
-18.959 -18.952 -18.926 -18.911 -18.898 -18.897 -18.890 -18.866
-18.850 -18.836 -10.119 -10.114 -10.107 -10.107 -10.095 -10.086
-10.078 -10.076 -10.068 -10.067 -10.065 -10.065 -10.040 -10.037
-10.035 -10.035 -10.016 -10.016 -10.015 -10.015  -1.059  -1.052
 -1.038  -1.028  -1.022  -1.021  -0.969  -0.957  -0.941  -0.933
 -0.785  -0.781  -0.751  -0.741  -0.731  -0.721  -0.717  -0.679
 -0.679  -0.638  -0.607  -0.600  -0.557  -0.554  -0.537  -0.536
 -0.525  -0.522  -0.507  -0.490  -0.484  -0.479  -0.477  -0.463
 -0.455  -0.444  -0.443  -0.428  -0.425  -0.422  -0.419  -0.417
 -0.407  -0.403  -0.391  -0.387  -0.382  -0.374  -0.367  -0.362
 -0.359  -0.346  -0.345  -0.339  -0.331  -0.326  -0.325  -0.317
 -0.315  -0.309  -0.307  -0.306  -0.297  -0.296  -0.295  -0.279
 -0.276  -0.257  -0.236  -0.234  -0.233  -0.222  -0.212  -0.189
 -0.185  -0.167  -0.157  -0.155  -0.153  -0.151  -0.150  -0.135
 -0.131
 -- Virtual --
  0.066   0.111   0.121   0.131   0.218   0.242   0.252   0.291
  0.298   0.311   0.330   0.336   0.341   0.341   0.345   0.356
  0.361   0.378   0.381   0.385   0.390   0.391   0.392   0.396
  0.402   0.407   0.407   0.408   0.415   0.416   0.420   0.423
  0.428   0.430   0.437   0.439   0.446   0.450   0.454   0.456
  0.457   0.468   0.470   0.472   0.483   0.486   0.488   0.490
  0.492   0.500   0.508   0.508   0.519   0.550   0.550   0.559
  0.565   0.581   0.582   0.657   0.688   0.700   0.700
 --------------------------------------------------------------
 
          Ground-State Mulliken Net Atomic Charges

     Atom                 Charge (a.u.)
  ----------------------------------------
      1 O                    -0.235195
      2 C                     0.236612
      3 C                    -0.081557
      4 C                    -0.080936
      5 C                     0.226806
      6 O                    -0.189161
      7 C                    -0.038047
      8 C                    -0.038497
      9 O                    -0.184011
     10 C                     0.235222
     11 C                    -0.084112
     12 C                    -0.083516
     13 C                     0.252495
     14 O                    -0.251734
     15 O                    -0.212099
     16 O                    -0.222736
     17 O                    -0.228955
     18 C                    -0.103023
     19 C                     0.038911
     20 C                    -0.141103
     21 C                    -0.144686
     22 C                     0.043055
     23 O                    -0.208039
     24 H                     0.088789
     25 H                     0.086009
     26 H                     0.088702
     27 H                     0.075695
     28 H                     0.073123
     29 H                     0.076316
     30 H                     0.071310
     31 H                     0.086050
     32 O                    -0.193931
     33 C                    -0.097461
     34 C                     0.042255
     35 C                    -0.142239
     36 C                    -0.144269
     37 C                     0.041629
     38 O                    -0.205009
     39 H                     0.087415
     40 H                     0.075641
     41 H                     0.086481
     42 H                     0.087568
     43 H                     0.076055
     44 H                     0.071843
     45 H                     0.075760
     46 H                     0.070412
     47 H                     0.084895
     48 H                     0.085937
     49 H                     0.092932
     50 H                     0.076991
     51 H                     0.084584
     52 H                     0.088741
     53 H                     0.115009
     54 H                     0.096839
     55 H                     0.103047
     56 H                     0.087186
  ----------------------------------------
  Sum of atomic charges =     0.000000

 -----------------------------------------------------------------
                    Cartesian Multipole Moments
 -----------------------------------------------------------------
    Charge (ESU x 10^10)
                 0.0000
    Dipole Moment (Debye)
         X      -0.0906      Y      -2.6563      Z      -2.6608
       Tot       3.7609
    Quadrupole Moments (Debye-Ang)
        XX    -142.6496     XY      -2.2018     YY    -153.8436
        XZ      14.6293     YZ      -0.5236     ZZ    -169.8963
    Octopole Moments (Debye-Ang^2)
       XXX       9.0739    XXY     -28.5212    XYY     -20.8299
       YYY      24.9654    XXZ       2.4332    XYZ      19.2099
       YYZ     -17.8112    XZZ       9.4377    YZZ      -7.2344
       ZZZ     -22.7796
    Hexadecapole Moments (Debye-Ang^3)
      XXXX  -15619.3007   XXXY    -115.5284   XXYY   -3079.8166
      XYYY    -113.7339   YYYY   -2037.7692   XXXZ     125.3466
      XXYZ       2.4640   XYYZ      24.3954   YYYZ     -42.5622
      XXZZ   -3095.8098   XYZZ     -55.4387   YYZZ    -557.6977
      XZZZ     -25.1301   YZZZ      -2.7579   ZZZZ   -1553.5854
 -----------------------------------------------------------------
 Calculating analytic gradient of the SCF energy
 Gradient of SCF Energy
            1           2           3           4           5           6
    1  -0.0150142  -0.0067326   0.0169310   0.0060547   0.0580987  -0.0011685
    2  -0.0240743  -0.0192863  -0.0032453   0.0463775  -0.0217677  -0.0289424
    3  -0.0671197  -0.0200184   0.0603183   0.0551811  -0.0274014   0.0562171
            7           8           9          10          11          12
    1  -0.0221832  -0.0025572  -0.0078213  -0.0183375  -0.0054551  -0.0222693
    2  -0.0013497   0.0074285   0.0066929  -0.0136673   0.0414513   0.0366226
    3   0.0181738  -0.0260462   0.0521673  -0.0189284  -0.0234728  -0.0166702
           13          14          15          16          17          18
    1   0.0035181   0.0060555   0.0361647  -0.0288688   0.0278062   0.0273791
    2  -0.0011340  -0.0583383   0.0788071   0.0653237  -0.0222750  -0.0050285
    3   0.0350177   0.0422787   0.0900911  -0.0877175  -0.0455641   0.0426844
           19          20          21          22          23          24
    1   0.0160962  -0.0288986  -0.0401947  -0.0292419   0.0226148   0.0014307
    2  -0.0271606  -0.0168454   0.0227231   0.0403271  -0.0666329  -0.0034020
    3  -0.0624077  -0.0416776   0.0060332   0.0558953   0.0511601   0.0051771
           25          26          27          28          29          30
    1   0.0051891   0.0049759   0.0029488   0.0027938   0.0053810  -0.0009584
    2  -0.0058783  -0.0013938   0.0084077  -0.0035673   0.0120359  -0.0089465
    3  -0.0030160   0.0114794  -0.0070302   0.0069186   0.0014262  -0.0001530
           31          32          33          34          35          36
    1   0.0092151  -0.0357049  -0.0233571   0.0415725   0.0507891   0.0103733
    2  -0.0108507   0.0205309  -0.0498010  -0.0523720  -0.0025869   0.0458018
    3  -0.0002873  -0.0616325  -0.0191328   0.0122273   0.0105482   0.0131047
           37          38          39          40          41          42
    1  -0.0397919  -0.0156272  -0.0060320   0.0087894  -0.0022693  -0.0107975
    2   0.0598699  -0.0182729   0.0019511  -0.0051181  -0.0086925   0.0014986
    3   0.0030076  -0.0839224  -0.0039249  -0.0008832  -0.0012863  -0.0087471
           43          44          45          46          47          48
    1  -0.0010716  -0.0041417  -0.0087911   0.0040300  -0.0007013  -0.0045953
    2  -0.0036632   0.0004011   0.0007075  -0.0028574  -0.0116584  -0.0077290
    3   0.0109958  -0.0069504   0.0094754  -0.0071035  -0.0084404  -0.0014693
           49          50          51          52          53          54
    1   0.0013567   0.0036956   0.0010734   0.0011856  -0.0048514   0.0136269
    2   0.0032375   0.0016045   0.0025225  -0.0013223   0.0088995  -0.0068905
    3   0.0000180   0.0016214   0.0029394   0.0031207  -0.0061891  -0.0054082
           55          56
    1   0.0018131  -0.0035252
    2   0.0001032   0.0014252
    3   0.0005113   0.0048112
 Max gradient component =       9.009E-02
 RMS gradient           =       2.798E-02
 Gradient time:  CPU 30.97 s  wall 0.67 s
 Geometry Optimization Parameters
   NAtoms,    NIC,     NZ,  NCons,   NDum,   NFix, NCnnct, MaxDiis
       56     458       0       9       0       0       0       0


** CONSTRAINED OPTIMIZATION IN DELOCALIZED INTERNAL COORDINATES **
   Searching for a Minimum

   Optimization Cycle:   1

                       Coordinates (Angstroms)
     ATOM                X               Y               Z
      1  O        -3.6612217363    2.2795339216    0.6672359112
      2  C        -3.9028780978    1.6609858347   -0.3594123749
      3  C        -4.5232828607    0.2828341665   -0.4256596545
      4  C        -3.5814303840   -0.9205661334   -0.2565570770
      5  C        -2.1542544450   -0.6099452261    0.1368406641
      6  O        -1.6117932565    0.2778782713   -0.7479959449
      7  C        -0.1934751830    0.1407981857   -0.8852249658
      8  C         0.4367672915   -0.1801400872    0.4660426828
      9  O         1.8589403474   -0.3199740824    0.3219179175
     10  C         2.5950110957    0.0763251340    1.3897567111
     11  C         4.0776538403   -0.1320968316    1.1923255422
     12  C         4.4637977836   -0.8350249458   -0.1172808123
     13  C         3.3811453493   -0.9014889630   -1.1756636377
     14  O         3.2549293600   -0.1236512888   -2.1103222084
     15  O        -3.7274281757    2.2883634561   -1.5523984273
     16  O         2.7777546758   -2.1229921413   -1.2668736988
     17  O         2.1369716635    0.5904194543    2.4027001938
     18  C         1.9331406398   -2.5533923113   -2.2727060812
     19  C         4.8822172846    1.1735918920    1.0875283740
     20  C         6.3345143728    0.9079069214    1.4791702318
     21  C         6.8001193509    0.0858170430    0.2941195696
     22  C         5.5519170525    0.1531715888   -0.5951025583
     23  O         4.9862033288    1.4070152471   -0.2942283140
     24  H         4.4230715716   -0.7195554462    2.0729988126
     25  H         4.8793526138   -1.8571953059    0.0291891261
     26  H         4.4596075629    2.0025411555    1.6961887589
     27  H         6.8608697093    1.8892038040    1.4604747478
     28  H         6.4824401743    0.4325406825    2.4727233803
     29  H         7.6542570562    0.6145933968   -0.1842613463
     30  H         7.0813857043   -0.9646779254    0.5240993137
     31  H         5.8309980039   -0.0127342999   -1.6593291156
     32  O        -1.9046416291   -0.6152107578    1.3382579557
     33  C        -3.2020538995    3.5555578902   -1.6940438531
     34  C        -5.5278007004    0.0246620046    0.7133203531
     35  C        -6.5201715774   -1.0608915827    0.2987781444
     36  C        -5.6329154911   -2.2872838382    0.3455391434
     37  C        -4.3314559465   -1.6696623299    0.8686312055
     38  O        -4.7672222236   -0.6232618782    1.7033679776
     39  H        -5.0584357026    0.2261714277   -1.4012698330
     40  H        -3.5179861340   -1.5405426720   -1.1783233371
     41  H        -2.1690194635    3.5878212737   -1.2858999808
     42  H        -6.0718742010    0.9408793032    1.0318885901
     43  H        -7.2790391779   -1.1421437147    1.1098073409
     44  H        -7.0359173073   -0.8836706548   -0.6694562672
     45  H        -6.0519894267   -2.9947072634    1.0954392577
     46  H        -5.4869567559   -2.8068151179   -0.6261215504
     47  H        -3.7026771153   -2.4523637309    1.3475938782
     48  H        -3.8390378975    4.2963533470   -1.1651751100
     49  H        -3.1686709350    3.8171542967   -2.7714885214
     50  H         0.9613226573   -2.8516979018   -1.8287956360
     51  H         2.3802514661   -3.4412128391   -2.7650191778
     52  H         1.7532984031   -1.7751717262   -3.0443892897
     53  H         0.1585727398    0.6335943546    1.1757152793
     54  H         0.1509258895   -1.1919950675    0.8217910206
     55  H         0.2188108951    1.0903706193   -1.2868643140
     56  H         0.0271079799   -0.6686520817   -1.6072165694
   Point Group: c1    Number of degrees of freedom:   162


   Energy is  -1510.115019529

              Constraints and their Current Values
                                        Value     Constraint
   Dihedral:        1   2   3   4      -83.516      -83.516
   Dihedral:        3   4   5   6      -54.556      -54.557
   Dihedral:        4   5   6   7     -151.039     -151.039
   Dihedral:        5   6   7   8      -37.771      -37.771
   Dihedral:        6   7   8   9      179.851      179.851
   Dihedral:        7   8   9  10      147.253      147.253
   Dihedral:        8   9  10  11      178.352      178.352
   Dihedral:        9  10  11  12       -4.124       -4.124
   Dihedral:       11  12  13  14       96.421       96.421

 Attempting to Generate Delocalized Internal Coordinates

   Using Lagrange Multiplier Algorithm


167 Hessian modes will be used to form the next step
  Hessian Eigenvalues:
    -0.977753   -0.977753   -0.977753   -0.977753   -0.977753   -0.977753
    -0.977753    0.045000    0.045000    0.045000    0.045000    0.045021
     0.045179    0.045566    0.045589    0.046609    0.048861    0.048878
     0.051068    0.054777    0.059982    0.059988    0.062491    0.062648
     0.066989    0.067097    0.067489    0.067765    0.070896    0.071211
     0.071786    0.073799    0.074011    0.075890    0.076059    0.077038
     0.077084    0.082441    0.082469    0.083562    0.083811    0.084268
     0.084473    0.084474    0.084981    0.085604    0.085988    0.086699
     0.087039    0.088428    0.088746    0.089064    0.089222    0.089801
     0.089838    0.093831    0.093835    0.096595    0.096617    0.111526
     0.111609    0.112828    0.114659    0.115905    0.116177    0.116673
     0.117413    0.117416    0.118500    0.119042    0.124142    0.124263
     0.128961    0.130985    0.131696    0.140509    0.141005    0.160000
     0.160000    0.160000    0.160000    0.160000    0.160000    0.171405
     0.172195    0.172734    0.173126    0.211086    0.220733    0.222131
     0.239798    0.241307    0.243748    0.249242    0.249822    0.250000
     0.250000    0.250000    0.250000    0.250000    0.250000    0.250000
     0.250000    0.258338    0.258713    0.267106    0.267316    0.278390
     0.279082    0.282679    0.284165    0.295119    0.295551    0.298744
     0.308045    0.310698    0.310867    0.313322    0.320779    0.321606
     0.322107    0.322150    0.322264    0.322749    0.323008    0.323183
     0.323204    0.323211    0.323493    0.323698    0.324043    0.324366
     0.324460    0.324620    0.324679    0.324725    0.324988    0.325350
     0.325580    0.325994    0.326762    0.326778    0.326796    0.329348
     0.368378    0.368879    0.383486    0.384253    0.401000    0.407717
     0.487128    0.492707    0.517908    0.518599    0.530964    0.537342
     0.923118    0.932856    0.941950    0.942766    1.022753    1.022753
     1.022753    1.022753    1.022753    1.022753    1.022753

 Minimum Search - Taking P-RFO Step
 Searching for Lamda that Maximizes Along the Constraint modes Only
 Value Taken    Lamda =   0.00077086
 Searching for Lamda that Minimizes Along All other modes
 Value Taken    Lamda =  -0.19667795
 Calculated Step too Large.  Step scaled by  0.487293
 Step Taken.  Stepsize is  0.300000

                             Maximum     Tolerance    Cnvgd?
         Gradient            0.114798       0.000300      NO
         Displacement        0.091930       0.001200      NO
         Energy change     *********       0.000001      NO


 New Cartesian Coordinates Obtained by Inverse Iteration

 Displacement from previous Coordinates is:  3.290139
 Adding empirical dispersion correction 
 ----------------------------------------------------------------
 Doing -D3(op) with
 s6 =   1.00000
 s8 =   0.78311
 a1 =   0.30000
 a2 =   4.25000
 n  =  10.00000
 -D3 energy without 3body term =     -0.0672014047 hartrees
 ----------------------------------------------------------------
             Standard Nuclear Orientation (Angstroms)
    I     Atom           X                Y                Z
 ----------------------------------------------------------------
    1      O      -3.7039893098     2.2551606558     0.7424872208
    2      C      -3.9089946393     1.6424189590    -0.3145768761
    3      C      -4.6162012362     0.2923212699    -0.4366222158
    4      C      -3.7532332417    -0.9755280275    -0.1977890330
    5      C      -2.3230094178    -0.7249999172     0.3101010502
    6      O      -1.6775370555     0.1507385428    -0.5603661695
    7      C      -0.2305878482     0.0361413066    -0.6761760029
    8      C       0.4809538627    -0.2809579125     0.6580646255
    9      O       1.9112738269    -0.3751708762     0.4156963346
   10      C       2.7087386719     0.0422114476     1.4557041395
   11      C       4.2077902199    -0.1133538093     1.1688201489
   12      C       4.5905420300    -0.7967599254    -0.1799893825
   13      C       3.4712621304    -0.9303727370    -1.2218045412
   14      O       3.2661676057    -0.1518165629    -2.1627365846
   15      O      -3.6150501990     2.2221844484    -1.5291511543
   16      O       2.9576434725    -2.2167285314    -1.2597338590
   17      O       2.2792105209     0.5357011595     2.5066142301
   18      C       2.1022755303    -2.6663574892    -2.2774003319
   19      C       4.9459200501     1.2516131341     1.0351824772
   20      C       6.4424245882     1.0532903409     1.3717494628
   21      C       6.9076556858     0.2509234383     0.1484560766
   22      C       5.6122310901     0.2605467047    -0.7062952464
   23      O       4.9802259830     1.5028330244    -0.3739874944
   24      H       4.6185090569    -0.6863388237     2.0267293180
   25      H       5.0630128934    -1.7923394193    -0.0499519943
   26      H       4.5025031358     2.0542670784     1.6610133263
   27      H       6.9183545573     2.0549055962     1.3444299648
   28      H       6.6486242907     0.5823044065     2.3524576069
   29      H       7.7138624820     0.8154713194    -0.3606034784
   30      H       7.2480031114    -0.7810105695     0.3625458101
   31      H       5.8531250176     0.1154655877    -1.7806647766
   32      O      -2.1220222866    -0.7586149965     1.5359523234
   33      C      -2.9862510948     3.4757301932    -1.5958760125
   34      C      -5.7297066969     0.0902910697     0.6366416618
   35      C      -6.7533049049    -0.9512020460     0.1241480300
   36      C      -5.9276402117    -2.2431624856     0.2317535481
   37      C      -4.6264472366    -1.6960376769     0.8761527823
   38      O      -5.0751736366    -0.6129496622     1.6984385394
   39      H      -5.0743592449     0.2663288135    -1.4485177202
   40      H      -3.6592553181    -1.5915585515    -1.1171477568
   41      H      -1.9890290979     3.4472974729    -1.1032937838
   42      H      -6.2375487828     1.0346521205     0.9244234746
   43      H      -7.5796803228    -0.9939827975     0.8627762148
   44      H      -7.1743548463    -0.7394382918    -0.8778162063
   45      H      -6.4378771207    -2.9343916503     0.9318179125
   46      H      -5.7323316996    -2.7601727401    -0.7279494474
   47      H      -4.0764918850    -2.5057661593     1.4002494093
   48      H      -3.6080015947     4.2613304413    -1.1121255447
   49      H      -2.8464042822     3.7413018471    -2.6633501181
   50      H       1.1497811041    -3.0215534729    -1.8297737582
   51      H       2.5772495598    -3.5209771478    -2.8043669833
   52      H       1.8728759454    -1.8771846115    -3.0268307847
   53      H       0.2284653689     0.5104631670     1.3989514910
   54      H       0.2315491785    -1.2997336612     1.0198208657
   55      H       0.1504527196     0.9966474127    -1.0818665295
   56      H      -0.0064743386    -0.7667138786    -1.4080518316
 ----------------------------------------------------------------
 Molecular Point Group                 C1    NOp =  1
 Largest Abelian Subgroup              C1    NOp =  1
 Nuclear Repulsion Energy =  3124.6443741935 hartrees
 There are      113 alpha and      113 beta electrons
 Applying Cartesian multipole field
    Component          Value
    ---------          -----
     (2,0,0)        1.00000E-12
     (0,2,0)        2.00000E-11
     (0,0,2)       -3.00000E-11
 Nucleus-field energy     =     0.0000000116 hartrees
 Requested basis set is STO-3G
 There are 86 shells and 176 basis functions
 A cutoff of  1.0D-12 yielded   2064 shell pairs
 There are      9657 function pairs
 Smallest overlap matrix eigenvalue = 2.01E-01
 Guess MOs from SCF MO coefficient file
 Reading MOs from coefficient file
 Reading MOs from coefficient file
 A restricted hybrid HF-DFT SCF calculation will be
 performed using Pulay DIIS extrapolation
 Exchange:     0.2000 Hartree-Fock + 0.0800 Slater + 0.7200 B88
 Correlation:  0.1900 VWN1RPA + 0.8100 LYP
 Using SG-1 standard quadrature grid
 Dispersion:   Grimme D3
 SCF converges when DIIS error is below 1.0E-08
 Geometry optimization detected.  Setting ReadMinima to 0
 Setting SaveMinima to 0
 using 48 threads for integral computing
 -------------------------------------------------------
 OpenMP Integral computing Module                
 Release: version 1.0, May 2013, Q-Chem Inc. Pittsburgh 
 -------------------------------------------------------
 -------------------------------------------------------
 OpenMP BLAS3 based DFT computing Module                
 Release: version 1.0, May 2013, Q-Chem Inc. Pittsburgh 
 -------------------------------------------------------
 ---------------------------------------
  Cycle       Energy         DIIS Error
 ---------------------------------------
    1   -1509.9595420511      5.10E-03
    2   -1510.1828229747      1.15E-03
    3   -1510.1689914585      2.16E-03
    4   -1510.1883169056      3.84E-04
    5   -1510.1889892065      7.19E-05
    6   -1510.1890099954      3.02E-05
    7   -1510.1890124777      2.06E-05
    8   -1510.1890143677      3.16E-06
    9   -1510.1890144145      1.66E-06
   10   -1510.1890144255      6.77E-07
   11   -1510.1890144280      1.28E-07
   12   -1510.1890144282      4.13E-08
   13   -1510.1890144282      1.47E-08
   14   -1510.1890144282      6.30E-09 Convergence criterion met
 ---------------------------------------
 SCF time:  CPU 100.30 s  wall 2.10 s
 SCF   energy in the final basis set = -1510.18901443
 Total energy in the final basis set = -1510.18901443
 
 --------------------------------------------------------------
 
                    Orbital Energies (a.u.)
 --------------------------------------------------------------
 
 Alpha MOs
 -- Occupied --
-18.954 -18.942 -18.929 -18.919 -18.897 -18.894 -18.887 -18.867
-18.852 -18.847 -10.111 -10.111 -10.103 -10.101 -10.092 -10.086
-10.074 -10.073 -10.066 -10.064 -10.063 -10.062 -10.040 -10.038
-10.037 -10.035 -10.017 -10.016 -10.016 -10.015  -1.042  -1.033
 -1.025  -1.021  -1.005  -1.002  -0.955  -0.949  -0.935  -0.932
 -0.777  -0.774  -0.743  -0.734  -0.724  -0.715  -0.711  -0.675
 -0.673  -0.632  -0.603  -0.596  -0.553  -0.550  -0.536  -0.535
 -0.521  -0.518  -0.500  -0.484  -0.476  -0.471  -0.469  -0.457
 -0.451  -0.438  -0.438  -0.421  -0.420  -0.416  -0.415  -0.411
 -0.401  -0.396  -0.386  -0.381  -0.378  -0.368  -0.363  -0.358
 -0.355  -0.344  -0.342  -0.336  -0.331  -0.328  -0.325  -0.315
 -0.313  -0.307  -0.305  -0.301  -0.297  -0.294  -0.291  -0.277
 -0.274  -0.248  -0.239  -0.236  -0.233  -0.228  -0.221  -0.186
 -0.179  -0.168  -0.161  -0.155  -0.154  -0.151  -0.147  -0.138
 -0.136
 -- Virtual --
  0.068   0.106   0.116   0.118   0.204   0.240   0.248   0.283
  0.284   0.298   0.313   0.323   0.331   0.335   0.340   0.353
  0.353   0.366   0.369   0.375   0.379   0.380   0.382   0.388
  0.392   0.400   0.401   0.405   0.407   0.412   0.413   0.418
  0.421   0.424   0.429   0.432   0.434   0.440   0.444   0.444
  0.446   0.457   0.462   0.464   0.470   0.474   0.476   0.481
  0.485   0.486   0.488   0.494   0.502   0.529   0.529   0.552
  0.552   0.564   0.567   0.637   0.662   0.674   0.680
 --------------------------------------------------------------
 
          Ground-State Mulliken Net Atomic Charges

     Atom                 Charge (a.u.)
  ----------------------------------------
      1 O                    -0.227418
      2 C                     0.226058
      3 C                    -0.080564
      4 C                    -0.078878
      5 C                     0.215877
      6 O                    -0.185934
      7 C                    -0.039024
      8 C                    -0.042020
      9 O                    -0.181423
     10 C                     0.225091
     11 C                    -0.081286
     12 C                    -0.081326
     13 C                     0.237979
     14 O                    -0.238223
     15 O                    -0.199832
     16 O                    -0.207878
     17 O                    -0.224609
     18 C                    -0.110156
     19 C                     0.034238
     20 C                    -0.142118
     21 C                    -0.145376
     22 C                     0.037777
     23 O                    -0.199178
     24 H                     0.088627
     25 H                     0.086456
     26 H                     0.088437
     27 H                     0.076326
     28 H                     0.073959
     29 H                     0.076669
     30 H                     0.072063
     31 H                     0.086183
     32 O                    -0.190970
     33 C                    -0.104787
     34 C                     0.037291
     35 C                    -0.143142
     36 C                    -0.144783
     37 C                     0.036467
     38 O                    -0.196815
     39 H                     0.086706
     40 H                     0.076612
     41 H                     0.086526
     42 H                     0.086984
     43 H                     0.076171
     44 H                     0.072392
     45 H                     0.076007
     46 H                     0.071033
     47 H                     0.085488
     48 H                     0.086174
     49 H                     0.092481
     50 H                     0.078837
     51 H                     0.084612
     52 H                     0.091270
     53 H                     0.112473
     54 H                     0.094457
     55 H                     0.101810
     56 H                     0.086213
  ----------------------------------------
  Sum of atomic charges =    -0.000000

 -----------------------------------------------------------------
                    Cartesian Multipole Moments
 -----------------------------------------------------------------
    Charge (ESU x 10^10)
                 0.0000
    Dipole Moment (Debye)
         X       0.4396      Y      -2.5656      Z      -2.8469
       Tot       3.8575
    Quadrupole Moments (Debye-Ang)
        XX    -141.4867     XY      -1.7133     YY    -153.3927
        XZ      14.7478     YZ       0.2931     ZZ    -170.5972
    Octopole Moments (Debye-Ang^2)
       XXX      29.9420    XXY     -27.7330    XYY     -19.5277
       YYY      27.3052    XXZ     -10.9946    XYZ      18.8271
       YYZ     -19.2575    XZZ      15.7839    YZZ      -6.4914
       ZZZ     -31.7749
    Hexadecapole Moments (Debye-Ang^3)
      XXXX  -16368.6174   XXXY    -177.6335   XXYY   -3231.0258
      XYYY    -190.5014   YYYY   -2060.0434   XXXZ     225.7385
      XXYZ       2.2436   XYYZ      40.0804   YYYZ     -59.0424
      XXZZ   -3259.1648   XYZZ     -85.6715   YYZZ    -564.3156
      XZZZ      42.3478   YZZZ     -22.7373   ZZZZ   -1565.0580
 -----------------------------------------------------------------
 Calculating analytic gradient of the SCF energy
 Gradient of SCF Energy
            1           2           3           4           5           6
    1  -0.0072810  -0.0052678   0.0101886  -0.0018587   0.0355235  -0.0071651
    2  -0.0101845  -0.0208485  -0.0028953   0.0346881  -0.0283995  -0.0160802
    3  -0.0325546  -0.0299887   0.0414743   0.0385538  -0.0322680   0.0376010
            7           8           9          10          11          12
    1  -0.0069238   0.0018227  -0.0054617  -0.0104329  -0.0022685  -0.0142181
    2   0.0050568   0.0058241   0.0057753  -0.0146424   0.0293210   0.0178225
    3   0.0073228  -0.0174336   0.0429875  -0.0196665  -0.0092995  -0.0131679
           13          14          15          16          17          18
    1   0.0027622   0.0093246   0.0247405  -0.0274833   0.0143841   0.0250525
    2  -0.0057664  -0.0302253   0.0558750   0.0420177  -0.0104824  -0.0039659
    3   0.0362606   0.0169812   0.0671879  -0.0677165  -0.0251794   0.0354723
           19          20          21          22          23          24
    1   0.0065319  -0.0182577  -0.0237076  -0.0213319   0.0180455   0.0001374
    2  -0.0138974  -0.0124428   0.0111748   0.0279120  -0.0414742  -0.0023781
    3  -0.0432654  -0.0230439   0.0038285   0.0346908   0.0303740   0.0034267
           25          26          27          28          29          30
    1   0.0037813   0.0052335   0.0008315   0.0030469   0.0025540  -0.0004608
    2  -0.0033653  -0.0020836   0.0055297  -0.0011896   0.0090154  -0.0056875
    3  -0.0035515   0.0102217  -0.0057104   0.0045003   0.0017959  -0.0009053
           31          32          33          34          35          36
    1   0.0087480  -0.0282162  -0.0193715   0.0246551   0.0292722   0.0083167
    2  -0.0096632   0.0197490  -0.0371142  -0.0337002  -0.0015850   0.0247621
    3   0.0004209  -0.0272637  -0.0181199   0.0135620   0.0068203   0.0075512
           37          38          39          40          41          42
    1  -0.0235064  -0.0055675  -0.0041600   0.0064186  -0.0003175  -0.0082646
    2   0.0406187  -0.0115505   0.0022165  -0.0042259  -0.0048777   0.0013231
    3   0.0043036  -0.0543141  -0.0026836  -0.0000274  -0.0008348  -0.0091675
           43          44          45          46          47          48
    1  -0.0004945  -0.0035948  -0.0065786   0.0031492  -0.0008392  -0.0035985
    2  -0.0024354   0.0002861   0.0017599  -0.0025157  -0.0096081  -0.0033371
    3   0.0076309  -0.0039692   0.0059249  -0.0037290  -0.0085818  -0.0010893
           49          50          51          52          53          54
    1   0.0016384   0.0012524   0.0002835  -0.0001995  -0.0034934   0.0144467
    2   0.0032705   0.0003483   0.0007843  -0.0009448   0.0062623  -0.0043479
    3  -0.0001962   0.0006664   0.0008080   0.0001154  -0.0051394  -0.0057986
           55          56
    1   0.0021841  -0.0040044
    2  -0.0002139   0.0007355
    3   0.0005634   0.0036197
 Max gradient component =       6.772E-02
 RMS gradient           =       1.910E-02
 Gradient time:  CPU 30.34 s  wall 0.64 s
 Geometry Optimization Parameters
   NAtoms,    NIC,     NZ,  NCons,   NDum,   NFix, NCnnct, MaxDiis
       56     458       0       9       0       0       0       0

 Cartesian Hessian Update
 Hessian Updated using BFGS Update


** CONSTRAINED OPTIMIZATION IN DELOCALIZED INTERNAL COORDINATES **
   Searching for a Minimum

   Optimization Cycle:   2

                       Coordinates (Angstroms)
     ATOM                X               Y               Z
      1  O        -3.7039893098    2.2551606558    0.7424872208
      2  C        -3.9089946393    1.6424189590   -0.3145768761
      3  C        -4.6162012362    0.2923212699   -0.4366222158
      4  C        -3.7532332417   -0.9755280275   -0.1977890330
      5  C        -2.3230094178   -0.7249999172    0.3101010502
      6  O        -1.6775370555    0.1507385428   -0.5603661695
      7  C        -0.2305878482    0.0361413066   -0.6761760029
      8  C         0.4809538627   -0.2809579125    0.6580646255
      9  O         1.9112738269   -0.3751708762    0.4156963346
     10  C         2.7087386719    0.0422114476    1.4557041395
     11  C         4.2077902199   -0.1133538093    1.1688201489
     12  C         4.5905420300   -0.7967599254   -0.1799893825
     13  C         3.4712621304   -0.9303727370   -1.2218045412
     14  O         3.2661676057   -0.1518165629   -2.1627365846
     15  O        -3.6150501990    2.2221844484   -1.5291511543
     16  O         2.9576434725   -2.2167285314   -1.2597338590
     17  O         2.2792105209    0.5357011595    2.5066142301
     18  C         2.1022755303   -2.6663574892   -2.2774003319
     19  C         4.9459200501    1.2516131341    1.0351824772
     20  C         6.4424245882    1.0532903409    1.3717494628
     21  C         6.9076556858    0.2509234383    0.1484560766
     22  C         5.6122310901    0.2605467047   -0.7062952464
     23  O         4.9802259830    1.5028330244   -0.3739874944
     24  H         4.6185090569   -0.6863388237    2.0267293180
     25  H         5.0630128934   -1.7923394193   -0.0499519943
     26  H         4.5025031358    2.0542670784    1.6610133263
     27  H         6.9183545573    2.0549055962    1.3444299648
     28  H         6.6486242907    0.5823044065    2.3524576069
     29  H         7.7138624820    0.8154713194   -0.3606034784
     30  H         7.2480031114   -0.7810105695    0.3625458101
     31  H         5.8531250176    0.1154655877   -1.7806647766
     32  O        -2.1220222866   -0.7586149965    1.5359523234
     33  C        -2.9862510948    3.4757301932   -1.5958760125
     34  C        -5.7297066969    0.0902910697    0.6366416618
     35  C        -6.7533049049   -0.9512020460    0.1241480300
     36  C        -5.9276402117   -2.2431624856    0.2317535481
     37  C        -4.6264472366   -1.6960376769    0.8761527823
     38  O        -5.0751736366   -0.6129496622    1.6984385394
     39  H        -5.0743592449    0.2663288135   -1.4485177202
     40  H        -3.6592553181   -1.5915585515   -1.1171477568
     41  H        -1.9890290979    3.4472974729   -1.1032937838
     42  H        -6.2375487828    1.0346521205    0.9244234746
     43  H        -7.5796803228   -0.9939827975    0.8627762148
     44  H        -7.1743548463   -0.7394382918   -0.8778162063
     45  H        -6.4378771207   -2.9343916503    0.9318179125
     46  H        -5.7323316996   -2.7601727401   -0.7279494474
     47  H        -4.0764918850   -2.5057661593    1.4002494093
     48  H        -3.6080015947    4.2613304413   -1.1121255447
     49  H        -2.8464042822    3.7413018471   -2.6633501181
     50  H         1.1497811041   -3.0215534729   -1.8297737582
     51  H         2.5772495598   -3.5209771478   -2.8043669833
     52  H         1.8728759454   -1.8771846115   -3.0268307847
     53  H         0.2284653689    0.5104631670    1.3989514910
     54  H         0.2315491785   -1.2997336612    1.0198208657
     55  H         0.1504527196    0.9966474127   -1.0818665295
     56  H        -0.0064743386   -0.7667138786   -1.4080518316
   Point Group: c1    Number of degrees of freedom:   162


   Energy is  -1510.189014428

              Constraints and their Current Values
                                        Value     Constraint
   Dihedral:        1   2   3   4      -83.516      -83.516
   Dihedral:        3   4   5   6      -54.517      -54.557
   Dihedral:        4   5   6   7     -151.088     -151.039
   Dihedral:        5   6   7   8      -37.737      -37.771
   Dihedral:        6   7   8   9      179.800      179.851
   Dihedral:        7   8   9  10      147.254      147.253
   Dihedral:        8   9  10  11      178.351      178.352
   Dihedral:        9  10  11  12       -4.119       -4.124
   Dihedral:       11  12  13  14       96.421       96.421
 Hessian Updated using BFGS Update

   Using Lagrange Multiplier Algorithm


155 Hessian modes will be used to form the next step
  Hessian Eigenvalues:
    -0.977753   -0.977753   -0.977753   -0.977753   -0.977753   -0.977753
    -0.976135    0.044962    0.045000    0.045021    0.045177    0.045565
     0.045590    0.046399    0.048860    0.048878    0.050554    0.054751
     0.059879    0.060027    0.062483    0.062802    0.066989    0.067097
     0.067432    0.067740    0.070807    0.071207    0.071584    0.073833
     0.074006    0.075890    0.076082    0.076808    0.077213    0.082438
     0.082468    0.083562    0.083745    0.084272    0.084324    0.084560
     0.085224    0.085612    0.086214    0.086688    0.087106    0.088361
     0.088784    0.089043    0.089255    0.089802    0.089824    0.093832
     0.093861    0.096592    0.096624    0.111547    0.111627    0.112828
     0.114665    0.115905    0.116166    0.116751    0.116890    0.117415
     0.118473    0.119040    0.124163    0.124344    0.128879    0.131024
     0.131687    0.140944    0.142279    0.159423    0.160454    0.168851
     0.171899    0.172856    0.173539    0.196347    0.215531    0.224333
     0.229737    0.239799    0.241320    0.243890    0.249258    0.249823
     0.257843    0.258373    0.266695    0.267270    0.269883    0.278516
     0.280697    0.283473    0.288860    0.295336    0.297043    0.302534
     0.308718    0.310639    0.312144    0.320744    0.321456    0.321819
     0.322129    0.322242    0.322650    0.322888    0.323121    0.323183
     0.323209    0.323477    0.323680    0.324020    0.324204    0.324418
     0.324563    0.324655    0.324686    0.324950    0.325304    0.325580
     0.325931    0.326705    0.326770    0.326789    0.329296    0.339198
     0.368368    0.368949    0.383372    0.393086    0.401022    0.468180
     0.487162    0.494795    0.517533    0.527960    0.535329    0.606889
     0.926954    0.933392    0.942371    0.972775    1.022753    1.022753
     1.022753    1.022753    1.022753    1.022753    1.039928

 Minimum Search - Taking P-RFO Step
 Searching for Lamda that Maximizes Along the Constraint modes Only
 Value Taken    Lamda =   0.00018231
 Searching for Lamda that Minimizes Along All other modes
 Value Taken    Lamda =  -0.10815416
 Calculated Step too Large.  Step scaled by  0.491252
 Step Taken.  Stepsize is  0.300000

                             Maximum     Tolerance    Cnvgd?
         Gradient            0.070931       0.000300      NO
         Displacement        0.090377       0.001200      NO
         Energy change     -0.073995       0.000001      NO


 New Cartesian Coordinates Obtained by Inverse Iteration

 Displacement from previous Coordinates is:  1.349386
 Adding empirical dispersion correction 
 ----------------------------------------------------------------
 Doing -D3(op) with
 s6 =   1.00000
 s8 =   0.78311
 a1 =   0.30000
 a2 =   4.25000
 n  =  10.00000
 -D3 energy without 3body term =     -0.0678732034 hartrees
 ----------------------------------------------------------------
             Standard Nuclear Orientation (Angstroms)
    I     Atom           X                Y                Z
 ----------------------------------------------------------------
    1      O      -3.6624719842     2.2578597349     0.7417230130
    2      C      -3.8752844603     1.6405543114    -0.3237214846
    3      C      -4.5952468052     0.2811323975    -0.4628357676
    4      C      -3.7207539048    -0.9954283667    -0.2297314345
    5      C      -2.2775434066    -0.7146533601     0.2856188275
    6      O      -1.6534763666     0.1855856824    -0.6051686984
    7      C      -0.2007324653     0.0597516067    -0.6931221467
    8      C       0.4717515844    -0.2528269819     0.6755282268
    9      O       1.9154846053    -0.3541435332     0.4337342305
   10      C       2.7084179702     0.0784720141     1.4986920098
   11      C       4.2154654985    -0.0952781800     1.1895689687
   12      C       4.5632310647    -0.7955685617    -0.1700064708
   13      C       3.3882948478    -0.9303525820    -1.1750994852
   14      O       3.1349114033    -0.1580056412    -2.1232965778
   15      O      -3.5864350948     2.1923769262    -1.5740452464
   16      O       2.8592013472    -2.2299561399    -1.1267470781
   17      O       2.2684911329     0.5829104263     2.5521847346
   18      C       1.9229417321    -2.5973289185    -2.1415639424
   19      C       4.9696409677     1.2768400570     1.0288460212
   20      C       6.4840396383     1.0489350629     1.3392170342
   21      C       6.9136586672     0.2205344435     0.0960797837
   22      C       5.5908457960     0.2507485102    -0.7449267352
   23      O       4.9752703846     1.5248103845    -0.4049703528
   24      H       4.6388275797    -0.6632285245     2.0410464796
   25      H       5.0227805374    -1.7936333060    -0.0379030708
   26      H       4.5416226272     2.0911353238     1.6475237359
   27      H       6.9801197997     2.0360959284     1.3031564460
   28      H       6.6949831811     0.5788698543     2.3152802119
   29      H       7.7196085883     0.7565086373    -0.4352160103
   30      H       7.2360431694    -0.8128756305     0.3128009079
   31      H       5.7927433833     0.1011794323    -1.8246213035
   32      O      -1.9976643180    -0.7781235923     1.5051668229
   33      C      -2.9328698137     3.4656272673    -1.5663661630
   34      C      -5.7182801079     0.0636163919     0.6204261434
   35      C      -6.7371154787    -0.9910522687     0.0777974124
   36      C      -5.8915494794    -2.2929547803     0.1745683379
   37      C      -4.5868715915    -1.7429370144     0.8474289545
   38      O      -5.0540781892    -0.6572220835     1.6961967447
   39      H      -5.0474965441     0.2613052941    -1.4741976263
   40      H      -3.6260287776    -1.5944050024    -1.1575423027
   41      H      -1.9465416539     3.4157396871    -1.0543428328
   42      H      -6.2227462806     1.0018114071     0.9267246479
   43      H      -7.5711850191    -1.0511344160     0.8005241617
   44      H      -7.1455430686    -0.7661036451    -0.9225808851
   45      H      -6.3965316799    -3.0026737548     0.8532965329
   46      H      -5.6852062234    -2.7887666003    -0.7899722021
   47      H      -4.0277503050    -2.5436516298     1.3719117713
   48      H      -3.5518781974     4.2426265259    -1.0653893375
   49      H      -2.7714194198     3.7637678729    -2.6209200764
   50      H       0.9667826555    -2.9098263167    -1.6700083770
   51      H       2.3241160850    -3.4584589237    -2.7174238174
   52      H       1.7179582608    -1.7649215003    -2.8500378652
   53      H       0.2204407942     0.5380173501     1.4158290878
   54      H       0.1813760671    -1.2615264868     1.0399036191
   55      H       0.1957914346     1.0127037536    -1.1010879411
   56      H       0.0375859728    -0.7551120149    -1.4115672093
 ----------------------------------------------------------------
 Molecular Point Group                 C1    NOp =  1
 Largest Abelian Subgroup              C1    NOp =  1
 Nuclear Repulsion Energy =  3123.4795205478 hartrees
 There are      113 alpha and      113 beta electrons
 Applying Cartesian multipole field
    Component          Value
    ---------          -----
     (2,0,0)        1.00000E-12
     (0,2,0)        2.00000E-11
     (0,0,2)       -3.00000E-11
 Nucleus-field energy     =     0.0000000123 hartrees
 Requested basis set is STO-3G
 There are 86 shells and 176 basis functions
 A cutoff of  1.0D-12 yielded   2086 shell pairs
 There are      9793 function pairs
 Smallest overlap matrix eigenvalue = 2.07E-01
 Guess MOs from SCF MO coefficient file
 Reading MOs from coefficient file
 Reading MOs from coefficient file
 A restricted hybrid HF-DFT SCF calculation will be
 performed using Pulay DIIS extrapolation
 Exchange:     0.2000 Hartree-Fock + 0.0800 Slater + 0.7200 B88
 Correlation:  0.1900 VWN1RPA + 0.8100 LYP
 Using SG-1 standard quadrature grid
 Dispersion:   Grimme D3
 SCF converges when DIIS error is below 1.0E-08
 Geometry optimization detected.  Setting ReadMinima to 0
 Setting SaveMinima to 0
 using 48 threads for integral computing
 -------------------------------------------------------
 OpenMP Integral computing Module                
 Release: version 1.0, May 2013, Q-Chem Inc. Pittsburgh 
 -------------------------------------------------------
 -------------------------------------------------------
 OpenMP BLAS3 based DFT computing Module                
 Release: version 1.0, May 2013, Q-Chem Inc. Pittsburgh 
 -------------------------------------------------------
 ---------------------------------------
  Cycle       Energy         DIIS Error
 ---------------------------------------
    1   -1510.0811099385      3.19E-03
    2   -1510.2259700782      8.62E-04
    3   -1510.2185797629      1.59E-03
    4   -1510.2290292744      2.95E-04
    5   -1510.2294195951      5.55E-05
    6   -1510.2294330070      1.84E-05
    7   -1510.2294338511      1.40E-05
    8   -1510.2294346864      2.86E-06
    9   -1510.2294347256      8.75E-07
   10   -1510.2294347279      5.53E-07
   11   -1510.2294347293      1.13E-07
   12   -1510.2294347293      2.98E-08
   13   -1510.2294347293      1.28E-08
   14   -1510.2294347294      2.99E-09 Convergence criterion met
 ---------------------------------------
 SCF time:  CPU 97.33 s  wall 2.03 s
 SCF   energy in the final basis set = -1510.22943473
 Total energy in the final basis set = -1510.22943473
 
 --------------------------------------------------------------
 
                    Orbital Energies (a.u.)
 --------------------------------------------------------------
 
 Alpha MOs
 -- Occupied --
-18.952 -18.939 -18.932 -18.919 -18.895 -18.893 -18.890 -18.871
-18.857 -18.847 -10.109 -10.108 -10.098 -10.098 -10.088 -10.081
-10.069 -10.066 -10.064 -10.062 -10.061 -10.061 -10.039 -10.038
-10.037 -10.035 -10.018 -10.018 -10.017 -10.017  -1.033  -1.026
 -1.017  -1.010  -0.989  -0.987  -0.950  -0.945  -0.932  -0.926
 -0.772  -0.769  -0.737  -0.728  -0.718  -0.710  -0.705  -0.668
 -0.668  -0.626  -0.600  -0.593  -0.551  -0.549  -0.536  -0.536
 -0.518  -0.515  -0.496  -0.478  -0.469  -0.466  -0.463  -0.452
 -0.447  -0.435  -0.434  -0.417  -0.415  -0.413  -0.411  -0.407
 -0.397  -0.393  -0.383  -0.374  -0.371  -0.365  -0.357  -0.355
 -0.351  -0.340  -0.340  -0.336  -0.331  -0.328  -0.326  -0.315
 -0.312  -0.305  -0.304  -0.302  -0.297  -0.295  -0.289  -0.276
 -0.272  -0.250  -0.239  -0.237  -0.236  -0.233  -0.227  -0.187
 -0.179  -0.170  -0.160  -0.157  -0.155  -0.149  -0.147  -0.140
 -0.138
 -- Virtual --
  0.067   0.101   0.110   0.117   0.205   0.238   0.246   0.276
  0.278   0.291   0.302   0.309   0.321   0.324   0.335   0.349
  0.349   0.358   0.360   0.363   0.366   0.368   0.371   0.379
  0.387   0.392   0.394   0.398   0.405   0.411   0.412   0.413
  0.417   0.421   0.422   0.425   0.427   0.433   0.434   0.435
  0.440   0.446   0.453   0.455   0.457   0.463   0.464   0.470
  0.471   0.478   0.486   0.490   0.493   0.516   0.520   0.545
  0.546   0.555   0.556   0.622   0.646   0.660   0.664
 --------------------------------------------------------------
 
          Ground-State Mulliken Net Atomic Charges

     Atom                 Charge (a.u.)
  ----------------------------------------
      1 O                    -0.220679
      2 C                     0.217216
      3 C                    -0.080167
      4 C                    -0.077926
      5 C                     0.210928
      6 O                    -0.182699
      7 C                    -0.041755
      8 C                    -0.044325
      9 O                    -0.174771
     10 C                     0.218130
     11 C                    -0.081124
     12 C                    -0.080879
     13 C                     0.231208
     14 O                    -0.236258
     15 O                    -0.186020
     16 O                    -0.196361
     17 O                    -0.217152
     18 C                    -0.120065
     19 C                     0.030212
     20 C                    -0.142929
     21 C                    -0.145854
     22 C                     0.032922
     23 O                    -0.191943
     24 H                     0.088071
     25 H                     0.085986
     26 H                     0.087681
     27 H                     0.076777
     28 H                     0.074539
     29 H                     0.076822
     30 H                     0.072695
     31 H                     0.086066
     32 O                    -0.189287
     33 C                    -0.113544
     34 C                     0.032449
     35 C                    -0.143916
     36 C                    -0.145244
     37 C                     0.031238
     38 O                    -0.189613
     39 H                     0.086703
     40 H                     0.078668
     41 H                     0.087451
     42 H                     0.086778
     43 H                     0.076714
     44 H                     0.073235
     45 H                     0.076630
     46 H                     0.071784
     47 H                     0.085795
     48 H                     0.086859
     49 H                     0.091449
     50 H                     0.076852
     51 H                     0.083214
     52 H                     0.093850
     53 H                     0.111767
     54 H                     0.095547
     55 H                     0.100666
     56 H                     0.085610
  ----------------------------------------
  Sum of atomic charges =    -0.000000

 -----------------------------------------------------------------
                    Cartesian Multipole Moments
 -----------------------------------------------------------------
    Charge (ESU x 10^10)
                 0.0000
    Dipole Moment (Debye)
         X       0.2610      Y      -2.4260      Z      -2.6920
       Tot       3.6332
    Quadrupole Moments (Debye-Ang)
        XX    -140.5789     XY      -1.1613     YY    -153.7893
        XZ      14.4693     YZ       0.3968     ZZ    -170.6122
    Octopole Moments (Debye-Ang^2)
       XXX      28.7025    XXY     -27.1445    XYY     -22.4261
       YYY      29.1908    XXZ     -10.4022    XYZ      16.1832
       YYZ     -17.7343    XZZ      15.8139    YZZ      -5.6643
       ZZZ     -30.0462
    Hexadecapole Moments (Debye-Ang^3)
      XXXX  -16151.1577   XXXY    -216.6979   XXYY   -3202.6192
      XYYY    -227.4362   YYYY   -2064.3316   XXXZ     183.9132
      XXYZ      10.9126   XYYZ      26.4710   YYYZ     -50.9150
      XXZZ   -3215.8643   XYZZ     -95.8800   YYZZ    -564.4178
      XZZZ      -6.2691   YZZZ     -16.0845   ZZZZ   -1533.6365
 -----------------------------------------------------------------
 Calculating analytic gradient of the SCF energy
 Gradient of SCF Energy
            1           2           3           4           5           6
    1  -0.0041492  -0.0018978   0.0074407  -0.0056470   0.0306691  -0.0013332
    2  -0.0010688  -0.0166061  -0.0024126   0.0242155  -0.0295988  -0.0060184
    3  -0.0095070  -0.0287920   0.0230570   0.0219361  -0.0336260   0.0274946
            7           8           9          10          11          12
    1  -0.0060525  -0.0043579  -0.0018330  -0.0046992  -0.0002170  -0.0091491
    2   0.0050854   0.0057687  -0.0011002  -0.0137769   0.0176549   0.0060299
    3   0.0010062  -0.0066325   0.0178665  -0.0177584  -0.0047324  -0.0060257
           13          14          15          16          17          18
    1  -0.0008386   0.0045674   0.0145136  -0.0185456   0.0069047   0.0187883
    2  -0.0086749  -0.0122047   0.0330388   0.0295015  -0.0017013  -0.0014014
    3   0.0333977   0.0021507   0.0411593  -0.0398590  -0.0060904   0.0235081
           19          20          21          22          23          24
    1  -0.0001806  -0.0099636  -0.0095039  -0.0128699   0.0100239  -0.0004578
    2  -0.0050648  -0.0077445   0.0031112   0.0197454  -0.0217565  -0.0014136
    3  -0.0265484  -0.0076249   0.0008472   0.0169276   0.0150582   0.0015981
           25          26          27          28          29          30
    1   0.0023831   0.0045160  -0.0004551   0.0026107   0.0006752  -0.0004240
    2  -0.0015677  -0.0025694   0.0027955   0.0008587   0.0058512  -0.0028146
    3  -0.0029795   0.0082701  -0.0043190   0.0022888   0.0019060  -0.0015413
           31          32          33          34          35          36
    1   0.0068842  -0.0134580  -0.0133738   0.0143586   0.0137921   0.0049941
    2  -0.0084527   0.0188747  -0.0248544  -0.0165750   0.0009645   0.0095593
    3   0.0012050  -0.0036277  -0.0120340   0.0115538   0.0000828   0.0021413
           37          38          39          40          41          42
    1  -0.0120044  -0.0026251  -0.0029602   0.0039267   0.0008562  -0.0062785
    2   0.0227110  -0.0063070   0.0017128  -0.0025165  -0.0018681   0.0006828
    3   0.0065300  -0.0283298  -0.0011179   0.0001075  -0.0004078  -0.0082105
           43          44          45          46          47          48
    1   0.0010978  -0.0031747  -0.0040510   0.0020529  -0.0007554  -0.0020081
    2  -0.0016767   0.0000862   0.0023679  -0.0017971  -0.0073631  -0.0004836
    3   0.0048744  -0.0010578   0.0034637  -0.0011442  -0.0079593  -0.0005567
           49          50          51          52          53          54
    1   0.0012260  -0.0003931   0.0002825  -0.0021744  -0.0035903   0.0078103
    2   0.0023808   0.0003073  -0.0000391  -0.0010190   0.0042348  -0.0052724
    3  -0.0001076   0.0001319  -0.0002279  -0.0014764  -0.0031869  -0.0040297
           55          56
    1   0.0017169  -0.0026689
    2  -0.0003034  -0.0015158
    3   0.0000889   0.0008597
 Max gradient component =       4.116E-02
 RMS gradient           =       1.191E-02
 Gradient time:  CPU 31.22 s  wall 0.67 s
 Geometry Optimization Parameters
   NAtoms,    NIC,     NZ,  NCons,   NDum,   NFix, NCnnct, MaxDiis
       56     458       0       9       0       0       0       0

 Cartesian Hessian Update
 Hessian Updated using BFGS Update


** CONSTRAINED OPTIMIZATION IN DELOCALIZED INTERNAL COORDINATES **
   Searching for a Minimum

   Optimization Cycle:   3

                       Coordinates (Angstroms)
     ATOM                X               Y               Z
      1  O        -3.6624719842    2.2578597349    0.7417230130
      2  C        -3.8752844603    1.6405543114   -0.3237214846
      3  C        -4.5952468052    0.2811323975   -0.4628357676
      4  C        -3.7207539048   -0.9954283667   -0.2297314345
      5  C        -2.2775434066   -0.7146533601    0.2856188275
      6  O        -1.6534763666    0.1855856824   -0.6051686984
      7  C        -0.2007324653    0.0597516067   -0.6931221467
      8  C         0.4717515844   -0.2528269819    0.6755282268
      9  O         1.9154846053   -0.3541435332    0.4337342305
     10  C         2.7084179702    0.0784720141    1.4986920098
     11  C         4.2154654985   -0.0952781800    1.1895689687
     12  C         4.5632310647   -0.7955685617   -0.1700064708
     13  C         3.3882948478   -0.9303525820   -1.1750994852
     14  O         3.1349114033   -0.1580056412   -2.1232965778
     15  O        -3.5864350948    2.1923769262   -1.5740452464
     16  O         2.8592013472   -2.2299561399   -1.1267470781
     17  O         2.2684911329    0.5829104263    2.5521847346
     18  C         1.9229417321   -2.5973289185   -2.1415639424
     19  C         4.9696409677    1.2768400570    1.0288460212
     20  C         6.4840396383    1.0489350629    1.3392170342
     21  C         6.9136586672    0.2205344435    0.0960797837
     22  C         5.5908457960    0.2507485102   -0.7449267352
     23  O         4.9752703846    1.5248103845   -0.4049703528
     24  H         4.6388275797   -0.6632285245    2.0410464796
     25  H         5.0227805374   -1.7936333060   -0.0379030708
     26  H         4.5416226272    2.0911353238    1.6475237359
     27  H         6.9801197997    2.0360959284    1.3031564460
     28  H         6.6949831811    0.5788698543    2.3152802119
     29  H         7.7196085883    0.7565086373   -0.4352160103
     30  H         7.2360431694   -0.8128756305    0.3128009079
     31  H         5.7927433833    0.1011794323   -1.8246213035
     32  O        -1.9976643180   -0.7781235923    1.5051668229
     33  C        -2.9328698137    3.4656272673   -1.5663661630
     34  C        -5.7182801079    0.0636163919    0.6204261434
     35  C        -6.7371154787   -0.9910522687    0.0777974124
     36  C        -5.8915494794   -2.2929547803    0.1745683379
     37  C        -4.5868715915   -1.7429370144    0.8474289545
     38  O        -5.0540781892   -0.6572220835    1.6961967447
     39  H        -5.0474965441    0.2613052941   -1.4741976263
     40  H        -3.6260287776   -1.5944050024   -1.1575423027
     41  H        -1.9465416539    3.4157396871   -1.0543428328
     42  H        -6.2227462806    1.0018114071    0.9267246479
     43  H        -7.5711850191   -1.0511344160    0.8005241617
     44  H        -7.1455430686   -0.7661036451   -0.9225808851
     45  H        -6.3965316799   -3.0026737548    0.8532965329
     46  H        -5.6852062234   -2.7887666003   -0.7899722021
     47  H        -4.0277503050   -2.5436516298    1.3719117713
     48  H        -3.5518781974    4.2426265259   -1.0653893375
     49  H        -2.7714194198    3.7637678729   -2.6209200764
     50  H         0.9667826555   -2.9098263167   -1.6700083770
     51  H         2.3241160850   -3.4584589237   -2.7174238174
     52  H         1.7179582608   -1.7649215003   -2.8500378652
     53  H         0.2204407942    0.5380173501    1.4158290878
     54  H         0.1813760671   -1.2615264868    1.0399036191
     55  H         0.1957914346    1.0127037536   -1.1010879411
     56  H         0.0375859728   -0.7551120149   -1.4115672093
   Point Group: c1    Number of degrees of freedom:   162


   Energy is  -1510.229434729

              Constraints and their Current Values
                                        Value     Constraint
   Dihedral:        1   2   3   4      -83.516      -83.516
   Dihedral:        3   4   5   6      -54.531      -54.557
   Dihedral:        4   5   6   7     -151.030     -151.039
   Dihedral:        5   6   7   8      -37.787      -37.771
   Dihedral:        6   7   8   9      179.835      179.851
   Dihedral:        7   8   9  10      147.248      147.253
   Dihedral:        8   9  10  11      178.348      178.352
   Dihedral:        9  10  11  12       -4.126       -4.124
   Dihedral:       11  12  13  14       96.421       96.421
 Hessian Updated using BFGS Update

   Using Lagrange Multiplier Algorithm


158 Hessian modes will be used to form the next step
  Hessian Eigenvalues:
    -0.977753   -0.977753   -0.977753   -0.977753   -0.977753   -0.977078
    -0.976352    0.044986    0.045000    0.045015    0.045057    0.045169
     0.045535    0.045567    0.047170    0.048842    0.048864    0.051123
     0.054741    0.059257    0.060021    0.062515    0.062785    0.066993
     0.067095    0.067553    0.067789    0.070895    0.071203    0.071625
     0.073794    0.074044    0.075890    0.076027    0.076723    0.077710
     0.082456    0.082468    0.083554    0.083720    0.084235    0.084463
     0.084606    0.085298    0.085618    0.086081    0.086689    0.087272
     0.088342    0.088986    0.089235    0.089419    0.089812    0.090107
     0.093781    0.093838    0.096591    0.096605    0.111546    0.111627
     0.112829    0.114662    0.115905    0.116063    0.116350    0.117396
     0.117416    0.118951    0.119370    0.124152    0.124372    0.128938
     0.130986    0.131700    0.140454    0.141890    0.158435    0.160032
     0.160745    0.171118    0.172239    0.172993    0.174938    0.211419
     0.214146    0.223751    0.231365    0.239902    0.241325    0.244000
     0.249341    0.249829    0.255792    0.258285    0.259251    0.267075
     0.267336    0.278363    0.280582    0.283351    0.288297    0.295313
     0.297035    0.301079    0.308159    0.310187    0.311432    0.319809
     0.320750    0.321615    0.322126    0.322234    0.322488    0.322803
     0.323095    0.323159    0.323209    0.323454    0.323628    0.323777
     0.324051    0.324383    0.324455    0.324578    0.324659    0.324873
     0.325228    0.325579    0.325754    0.326479    0.326769    0.326784
     0.328749    0.333022    0.368320    0.368649    0.377327    0.385809
     0.400384    0.400905    0.458994    0.489292    0.494241    0.516168
     0.526478    0.536605    0.585941    0.927048    0.935620    0.942397
     0.990150    1.022753    1.022753    1.022753    1.022753    1.022753
     1.025278    1.036921

 Minimum Search - Taking P-RFO Step
 Searching for Lamda that Maximizes Along the Constraint modes Only
 Value Taken    Lamda =   0.00011517
 Searching for Lamda that Minimizes Along All other modes
 Value Taken    Lamda =  -0.05496843
 Calculated Step too Large.  Step scaled by  0.570722
 Step Taken.  Stepsize is  0.300000

                             Maximum     Tolerance    Cnvgd?
         Gradient            0.041223       0.000300      NO
         Displacement        0.087695       0.001200      NO
         Energy change     -0.040420       0.000001      NO


 New Cartesian Coordinates Obtained by Inverse Iteration

 Displacement from previous Coordinates is:  2.535436
 Adding empirical dispersion correction 
 ----------------------------------------------------------------
 Doing -D3(op) with
 s6 =   1.00000
 s8 =   0.78311
 a1 =   0.30000
 a2 =   4.25000
 n  =  10.00000
 -D3 energy without 3body term =     -0.0665638811 hartrees
 ----------------------------------------------------------------
             Standard Nuclear Orientation (Angstroms)
    I     Atom           X                Y                Z
 ----------------------------------------------------------------
    1      O      -3.6446288485     2.2638290475     0.7916213351
    2      C      -3.8727313690     1.6473357688    -0.2731061608
    3      C      -4.6613445722     0.3160672690    -0.4379145702
    4      C      -3.8383398423    -1.0008209171    -0.1866258183
    5      C      -2.3922328731    -0.7485586722     0.3587742862
    6      O      -1.7408538531     0.1418461187    -0.5478743060
    7      C      -0.2781511278     0.0023879870    -0.6325308109
    8      C       0.4468234578    -0.3040088361     0.7219655089
    9      O       1.8875106393    -0.4054372230     0.4042560007
   10      C       2.7020695028     0.0479846880     1.4620663772
   11      C       4.2252186621    -0.0971010179     1.1436589611
   12      C       4.6508078063    -0.7940397045    -0.2117414290
   13      C       3.5209709258    -1.0395655768    -1.2657256679
   14      O       3.2315751056    -0.3145625151    -2.2434436397
   15      O      -3.5306099552     2.1562517142    -1.5476596753
   16      O       3.1111214037    -2.4000073866    -1.1741642689
   17      O       2.2498969043     0.5487649539     2.5150749975
   18      C       2.2347544722    -2.7893914048    -2.2651954340
   19      C       4.9097878136     1.3226664587     0.9801702587
   20      C       6.4346863454     1.1780778139     1.3245104961
   21      C       6.9363305724     0.3580578576     0.0944475214
   22      C       5.6293788852     0.3081877147    -0.7840432773
   23      O       4.9254407576     1.5616653079    -0.4712197812
   24      H       4.6656779455    -0.6332420372     2.0051859271
   25      H       5.1620603877    -1.7599485516    -0.0482118116
   26      H       4.4170885396     2.1202385291     1.5703226972
   27      H       6.8837985571     2.1856952115     1.2970428644
   28      H       6.6409843929     0.7237955409     2.3071373706
   29      H       7.7272131325     0.9211587340    -0.4277106036
   30      H       7.3049171928    -0.6526767891     0.3347210101
   31      H       5.8518900932     0.1674394157    -1.8597842380
   32      O      -2.0763060648    -0.8671318411     1.5661306798
   33      C      -2.7930082765     3.4073885571    -1.4490737760
   34      C      -5.8179264077     0.1399837345     0.6299914172
[...]
     15  O        -3.3836716682    2.1953711905   -1.4867741687
     16  O         3.1602356914   -2.5282197498   -0.8891708777
     17  O         2.3617574391    0.4012723032    2.6557994586
     18  C         2.0199151308   -3.0004018770   -1.7051732425
     19  C         4.9344377235    1.3433441770    1.0179731941
     20  C         6.5042603168    1.2112379169    1.1246846128
     21  C         6.8572975271    0.6270685263   -0.2932973454
     22  C         5.4224895206    0.5186281471   -0.9415641088
     23  O         4.7050455255    1.6962623573   -0.3997493508
     24  H         4.7970318128   -0.6879239632    1.9356525091
     25  H         5.3231264938   -1.5865346997   -0.1639338502
     26  H         4.4764153679    2.0944960153    1.6907445487
     27  H         6.9628700029    2.2005878528    1.2808749899
     28  H         6.8091674571    0.5467594950    1.9487225871
     29  H         7.4891324470    1.3207096164   -0.8705456859
     30  H         7.3636468902   -0.3498342960   -0.2385629240
     31  H         5.3934357550    0.5292373327   -2.0482534814
     32  O        -1.9751764778   -1.3778130374    1.3409051786
     33  C        -2.5362182443    3.3856252917   -1.2503603085
     34  C        -5.8711378890    0.1528317540    0.4820434738
     35  C        -6.8839100469   -0.8613435405   -0.1802847995
     36  C        -6.0866806400   -2.2125134918   -0.0474420113
     37  C        -4.7903582284   -1.7308370267    0.7163699234
     38  O        -5.2751904422   -0.6329107920    1.5854481826
     39  H        -5.0199254795    0.4239400445   -1.5746953470
     40  H        -3.7060522005   -1.5221895643   -1.2501330284
     41  H        -1.6289909313    3.1242699541   -0.6682022653
     42  H        -6.3169932453    1.0883434024    0.8716035219
     43  H        -7.8248808684   -0.8918950204    0.3917231237
     44  H        -7.1132795411   -0.6015404281   -1.2260275727
     45  H        -6.6389187831   -2.9512927211    0.5546439991
     46  H        -5.8472440386   -2.6621491542   -1.0244716189
     47  H        -4.2705722764   -2.4990330920    1.3214785651
     48  H        -3.0865649318    4.1802854667   -0.7062151648
     49  H        -2.2401076193    3.7554290923   -2.2492390866
     50  H         1.1537243803   -3.2043338733   -1.0440820463
     51  H         2.3120619145   -3.9363447955   -2.2198605964
     52  H         1.7521435628   -2.2221403482   -2.4490877738
     53  H         0.3417250042    0.3987678084    1.6440228810
     54  H         0.1617760779   -1.3403813196    1.2101023946
     55  H         0.1439813696    1.0185968148   -0.8430757775
     56  H         0.0377763219   -0.7215104014   -1.2640377589
   Point Group: c1    Number of degrees of freedom:   162


   Energy is  -1510.272156903

              Constraints and their Current Values
                                        Value     Constraint
   Dihedral:        1   2   3   4      -83.516      -83.516
   Dihedral:        3   4   5   6      -54.557      -54.557
   Dihedral:        4   5   6   7     -151.039     -151.039
   Dihedral:        5   6   7   8      -37.771      -37.771
   Dihedral:        6   7   8   9      179.851      179.851
   Dihedral:        7   8   9  10      147.253      147.253
   Dihedral:        8   9  10  11      178.352      178.352
   Dihedral:        9  10  11  12       -4.124       -4.124
   Dihedral:       11  12  13  14       96.421       96.421
 Hessian Updated using BFGS Update

153 Hessian modes will be used to form the next step
  Hessian Eigenvalues:
     0.002654    0.008222    0.016572    0.022487    0.044702    0.045002
     0.045118    0.045571    0.045631    0.046057    0.047341    0.048802
     0.050011    0.054780    0.059326    0.060083    0.062750    0.065775
     0.066988    0.067137    0.067614    0.069342    0.071174    0.071415
     0.073670    0.074157    0.075144    0.076004    0.077096    0.078549
     0.082308    0.082433    0.082831    0.083594    0.084478    0.084623
     0.084718    0.085235    0.085522    0.086303    0.086821    0.087667
     0.088635    0.089072    0.089354    0.089755    0.089998    0.092379
     0.093759    0.094103    0.096616    0.096684    0.111527    0.111619
     0.112900    0.114983    0.115909    0.116368    0.116942    0.117372
     0.117751    0.119989    0.120585    0.124214    0.124515    0.129207
     0.131025    0.131873    0.145857    0.157051    0.159877    0.159956
     0.160127    0.160936    0.162040    0.163451    0.172096    0.173543
     0.176144    0.196634    0.220697    0.225867    0.231671    0.238668
     0.240931    0.244649    0.248671    0.249953    0.250400    0.251541
     0.253282    0.257757    0.266827    0.267132    0.275668    0.278416
     0.280240    0.283538    0.290255    0.295493    0.296726    0.298018
     0.303174    0.308638    0.310362    0.311933    0.317532    0.321630
     0.322097    0.322134    0.322260    0.322674    0.322789    0.323055
     0.323114    0.323215    0.323446    0.323564    0.323729    0.324076
     0.324370    0.324505    0.324596    0.324690    0.325039    0.325367
     0.325584    0.325875    0.326618    0.326748    0.327897    0.328214
     0.332978    0.334629    0.367607    0.368274    0.380427    0.393385
     0.403305    0.415134    0.427116    0.476269    0.493538    0.499317
     0.526876    0.551439    0.634812    0.662400    0.691137    0.930145
     0.937934    0.943575    1.017389

 Minimum Search - Taking Simple RFO Step
 Searching for Lamda that Minimizes Along All modes
 Value Taken    Lamda =   0.00000000
 Step Taken.  Stepsize is  0.003315

                             Maximum     Tolerance    Cnvgd?
         Gradient           0.000041      0.000300     YES
         Displacement       0.001083      0.001200     YES
         Energy change     -0.000000      0.000001     YES

 Final energy is   -1510.27215690322     


 ******************************
 **  OPTIMIZATION CONVERGED  **
 ******************************

                       Coordinates (Angstroms)
     ATOM                X               Y               Z
      1  O        -3.6589835564    2.2254857383    0.8702990618
      2  C        -3.8479632490    1.6735680002   -0.2347962530
      3  C        -4.6659545739    0.3693278817   -0.5301262249
      4  C        -3.8431168904   -0.9729100493   -0.3001164415
      5  C        -2.4205575260   -0.7684765932    0.3457352754
      6  O        -1.7095304140    0.1693886556   -0.4703179780
      7  C        -0.2321555919    0.0349010661   -0.4928964344
      8  C         0.5043156201   -0.3516493216    0.8415534580
      9  O         1.9403015284   -0.4041131722    0.4737800687
     10  C         2.7833565461   -0.0028854483    1.5498651143
     11  C         4.2945910310   -0.1111959402    1.1374731221
     12  C         4.6591509594   -0.7123817930   -0.2883986867
     13  C         3.4635081346   -1.1582791888   -1.2049464570
     14  O         2.9151839416   -0.5053346752   -2.1192981506
     15  O        -3.3836716682    2.1953711905   -1.4867741687
     16  O         3.1602356914   -2.5282197498   -0.8891708777
     17  O         2.3617574391    0.4012723032    2.6557994586
     18  C         2.0199151308   -3.0004018770   -1.7051732425
     19  C         4.9344377235    1.3433441770    1.0179731941
     20  C         6.5042603168    1.2112379169    1.1246846128
     21  C         6.8572975271    0.6270685263   -0.2932973454
     22  C         5.4224895206    0.5186281471   -0.9415641088
     23  O         4.7050455255    1.6962623573   -0.3997493508
     24  H         4.7970318128   -0.6879239632    1.9356525091
     25  H         5.3231264938   -1.5865346997   -0.1639338502
     26  H         4.4764153679    2.0944960153    1.6907445487
     27  H         6.9628700029    2.2005878528    1.2808749899
     28  H         6.8091674571    0.5467594950    1.9487225871
     29  H         7.4891324470    1.3207096164   -0.8705456859
     30  H         7.3636468902   -0.3498342960   -0.2385629240
     31  H         5.3934357550    0.5292373327   -2.0482534814
     32  O        -1.9751764778   -1.3778130374    1.3409051786
     33  C        -2.5362182443    3.3856252917   -1.2503603085
     34  C        -5.8711378890    0.1528317540    0.4820434738
     35  C        -6.8839100469   -0.8613435405   -0.1802847995
     36  C        -6.0866806400   -2.2125134918   -0.0474420113
     37  C        -4.7903582284   -1.7308370267    0.7163699234
     38  O        -5.2751904422   -0.6329107920    1.5854481826
     39  H        -5.0199254795    0.4239400445   -1.5746953470
     40  H        -3.7060522005   -1.5221895643   -1.2501330284
     41  H        -1.6289909313    3.1242699541   -0.6682022653
     42  H        -6.3169932453    1.0883434024    0.8716035219
     43  H        -7.8248808684   -0.8918950204    0.3917231237
     44  H        -7.1132795411   -0.6015404281   -1.2260275727
     45  H        -6.6389187831   -2.9512927211    0.5546439991
     46  H        -5.8472440386   -2.6621491542   -1.0244716189
     47  H        -4.2705722764   -2.4990330920    1.3214785651
     48  H        -3.0865649318    4.1802854667   -0.7062151648
     49  H        -2.2401076193    3.7554290923   -2.2492390866
     50  H         1.1537243803   -3.2043338733   -1.0440820463
     51  H         2.3120619145   -3.9363447955   -2.2198605964
     52  H         1.7521435628   -2.2221403482   -2.4490877738
     53  H         0.3417250042    0.3987678084    1.6440228810
     54  H         0.1617760779   -1.3403813196    1.2101023946
     55  H         0.1439813696    1.0185968148   -0.8430757775
     56  H         0.0377763219   -0.7215104014   -1.2640377589

Z-matrix Print:
$molecule
0 1
O 
C  1 1.424670
O  2 1.250672 1 124.017090
C  1 1.483262 2 112.064545 3 -2.883693 0
H  4 1.109393 1 110.473182 2 -93.393629 0
H  4 1.110639 1 110.168179 2 26.444002 0
C  2 1.570232 1 110.592781 3 -178.764302 0
H  7 1.105510 2 106.485699 1 -129.219256 0
C  4 1.572440 1 104.578565 2 147.253038 0
H  9 1.109848 4 109.081942 1 -60.002508 0
H  9 1.113409 4 107.891425 1 56.540166 0
O  9 1.483655 4 118.408060 1 179.850999 0
C  12 1.432164 9 116.338903 4 -37.770982 0
O  13 1.249007 12 126.615655 9 25.023741 0
C  13 1.575625 12 107.436154 9 -151.038994 0
H  15 1.105905 13 107.738086 12 69.579307 0
C  15 1.582708 13 109.829902 12 -167.160588 0
H  17 1.107456 15 113.715446 13 -36.295308 0
O  17 1.481824 15 102.572500 13 82.806040 0
C  19 1.479881 17 95.040682 15 58.276042 0
H  20 1.107125 19 110.393668 17 -179.142934 0
C  20 1.578904 19 103.299059 17 56.696220 0
H  22 1.101614 20 110.358905 19 81.305059 0
H  22 1.101674 20 112.349773 19 -157.131715 0
C  22 1.574447 20 101.013943 19 -36.647904 0
H  25 1.101485 22 111.583164 20 119.743476 0
H  25 1.101857 22 112.669685 20 -117.702150 0
C  20 1.588655 19 103.998843 17 -55.880217 0
H  28 1.104266 20 111.484298 19 148.769509 0
C  28 1.567601 20 112.905074 19 -89.807519 0
O  30 1.249625 28 127.805677 20 30.498765 0
O  30 1.433630 28 107.896140 20 -146.631913 0
C  32 1.480126 30 109.793487 28 -176.641553 0
H  33 1.105529 32 106.142838 30 -178.230692 0
H  33 1.109178 32 111.263511 30 62.710493 0
H  33 1.109261 32 111.738706 30 -58.724382 0
C  7 1.589792 2 118.837891 1 -4.123964 0
H  37 1.104762 7 109.632862 2 -122.340058 0
C  37 1.571129 7 117.131383 2 0.271823 0
O  39 1.250214 37 127.748321 7 96.421007 0
O  39 1.438202 37 107.621275 7 -88.437687 0
C  41 1.479577 39 110.207034 37 178.915252 0
H  42 1.107358 41 108.828584 39 127.111164 0
H  42 1.108565 41 109.391233 39 -113.730867 0
H  42 1.109415 41 109.387774 39 6.690993 0
C  37 1.588929 7 100.712482 2 119.759260 0
H  46 1.107122 37 113.936824 7 -154.634201 0
O  46 1.481591 37 103.464167 7 -34.986146 0
C  48 1.478888 46 94.921018 37 57.232917 0
H  49 1.107535 48 110.875013 46 -179.840451 0
C  46 1.578190 37 108.732100 7 74.695488 0
H  51 1.101621 46 110.454638 37 167.573645 0
H  51 1.101692 46 112.168583 37 46.131191 0
C  51 1.573710 46 101.050342 37 -74.260450 0
H  54 1.101604 51 111.576337 46 -117.962510 0
H  54 1.101607 51 112.830785 46 119.329633 0
$end

 
 --------------------------------------------------------------
 
                    Orbital Energies (a.u.)
 --------------------------------------------------------------
 
 Alpha MOs
 -- Occupied --
-18.943 -18.938 -18.928 -18.925 -18.890 -18.889 -18.886 -18.878
-18.868 -18.867 -10.110 -10.106 -10.099 -10.094 -10.080 -10.072
-10.062 -10.059 -10.059 -10.058 -10.057 -10.056 -10.042 -10.040
-10.037 -10.035 -10.021 -10.020 -10.020 -10.019  -1.021  -1.016
 -1.003  -1.003  -0.972  -0.969  -0.948  -0.941  -0.930  -0.930
 -0.765  -0.762  -0.730  -0.723  -0.711  -0.705  -0.700  -0.660
 -0.659  -0.619  -0.598  -0.589  -0.546  -0.544  -0.539  -0.537
 -0.515  -0.510  -0.488  -0.471  -0.459  -0.459  -0.456  -0.444
 -0.441  -0.431  -0.429  -0.412  -0.410  -0.409  -0.407  -0.403
 -0.393  -0.384  -0.378  -0.368  -0.367  -0.357  -0.352  -0.348
 -0.345  -0.339  -0.335  -0.334  -0.330  -0.329  -0.326  -0.313
 -0.311  -0.307  -0.306  -0.300  -0.299  -0.296  -0.286  -0.276
 -0.272  -0.250  -0.247  -0.245  -0.240  -0.236  -0.233  -0.187
 -0.180  -0.170  -0.168  -0.160  -0.159  -0.150  -0.146  -0.146
 -0.143
 -- Virtual --
  0.087   0.096   0.106   0.108   0.197   0.235   0.243   0.261
  0.263   0.273   0.282   0.286   0.302   0.311   0.324   0.327
  0.335   0.338   0.340   0.347   0.350   0.358   0.367   0.373
  0.375   0.382   0.382   0.396   0.399   0.407   0.410   0.412
  0.415   0.417   0.419   0.423   0.424   0.425   0.432   0.433
  0.437   0.437   0.438   0.439   0.446   0.449   0.451   0.467
  0.467   0.469   0.480   0.489   0.490   0.502   0.506   0.541
  0.541   0.552   0.553   0.632   0.637   0.650   0.657
 --------------------------------------------------------------
 
          Ground-State Mulliken Net Atomic Charges

     Atom                 Charge (a.u.)
  ----------------------------------------
      1 O                    -0.214346
      2 C                     0.210801
      3 C                    -0.079710
      4 C                    -0.076398
      5 C                     0.216385
      6 O                    -0.175501
      7 C                    -0.047049
      8 C                    -0.054284
      9 O                    -0.172346
     10 C                     0.212935
     11 C                    -0.077876
     12 C                    -0.080243
     13 C                     0.222101
     14 O                    -0.221730
     15 O                    -0.168404
     16 O                    -0.174636
     17 O                    -0.212612
     18 C                    -0.136451
     19 C                     0.025199
     20 C                    -0.143670
     21 C                    -0.144321
     22 C                     0.025378
     23 O                    -0.188939
     24 H                     0.087224
     25 H                     0.085245
     26 H                     0.086323
     27 H                     0.078735
     28 H                     0.074363
     29 H                     0.078304
     30 H                     0.073594
     31 H                     0.087288
     32 O                    -0.204023
     33 C                    -0.127626
     34 C                     0.025320
     35 C                    -0.143389
     36 C                    -0.144719
     37 C                     0.023452
     38 O                    -0.187086
     39 H                     0.085290
     40 H                     0.084551
     41 H                     0.087560
     42 H                     0.085971
     43 H                     0.078176
     44 H                     0.073191
     45 H                     0.078284
     46 H                     0.072279
     47 H                     0.089325
     48 H                     0.088520
     49 H                     0.089102
     50 H                     0.080349
     51 H                     0.084007
     52 H                     0.098178
     53 H                     0.102140
     54 H                     0.102567
     55 H                     0.096321
     56 H                     0.086902
  ----------------------------------------
  Sum of atomic charges =    -0.000000

 -----------------------------------------------------------------
                    Cartesian Multipole Moments
 -----------------------------------------------------------------
    Charge (ESU x 10^10)
                 0.0000
    Dipole Moment (Debye)
         X       0.8223      Y      -1.7489      Z      -2.6442
       Tot       3.2751
    Quadrupole Moments (Debye-Ang)
        XX    -138.1174     XY       0.8276     YY    -154.9964
        XZ      12.6027     YZ       2.0666     ZZ    -170.5298
    Octopole Moments (Debye-Ang^2)
       XXX      55.7328    XXY     -15.8402    XYY     -15.8668
       YYY      35.1471    XXZ     -25.9431    XYZ       7.8721
       YYZ     -16.4398    XZZ      18.7164    YZZ       0.8051
       ZZZ     -26.3614
    Hexadecapole Moments (Debye-Ang^3)
      XXXX  -16276.7331   XXXY    -201.7260   XXYY   -3289.4672
      XYYY    -278.4797   YYYY   -2245.0209   XXXZ     220.3069
      XXYZ       8.8803   XYYZ      21.0278   YYYZ     -47.1812
      XXZZ   -3227.1342   XYZZ     -95.3327   YYZZ    -583.8840
      XZZZ      -0.1824   YZZZ     -45.1584   ZZZZ   -1398.3952
 -----------------------------------------------------------------
Archival summary:
1\1\vega02.cac.cornell.edu\OPT\ProcedureUnspecified\STO-3G\102026\jj585\WedJan1710:23:372018WedJan1710:23:372018\0\\#,OPT,ProcedureUnspecified,STO-3G,\\0,1\O\C,1,1.42467\O,2,1.25067,1,124.017\C,1,1.48326,2,112.065,3,-2.88369,0\H,4,1.10939,1,110.473,2,-93.3936,0\H,4,1.11064,1,110.168,2,26.444,0\C,2,1.57023,1,110.593,3,-178.764,0\H,7,1.10551,2,106.486,1,-129.219,0\C,4,1.57244,1,104.579,2,147.253,0\H,9,1.10985,4,109.082,1,-60.0025,0\H,9,1.11341,4,107.891,1,56.5402,0\O,9,1.48366,4,118.408,1,179.851,0\C,12,1.43216,9,116.339,4,-37.771,0\O,13,1.24901,12,126.616,9,25.0237,0\C,13,1.57562,12,107.436,9,-151.039,0\H,15,1.10591,13,107.738,12,69.5793,0\C,15,1.58271,13,109.83,12,-167.161,0\H,17,1.10746,15,113.715,13,-36.2953,0\O,17,1.48182,15,102.573,13,82.806,0\C,19,1.47988,17,95.0407,15,58.276,0\H,20,1.10713,19,110.394,17,-179.143,0\C,20,1.5789,19,103.299,17,56.6962,0\H,22,1.10161,20,110.359,19,81.3051,0\H,22,1.10167,20,112.35,19,-157.132,0\C,22,1.57445,20,101.014,19,-36.6479,0\H,25,1.10149,22,111.583,20,119.743,0\H,25,1.10186,22,112.67,20,-117.702,0\C,20,1.58866,19,103.999,17,-55.8802,0\H,28,1.10427,20,111.484,19,148.77,0\C,28,1.5676,20,112.905,19,-89.8075,0\O,30,1.24962,28,127.806,20,30.4988,0\O,30,1.43363,28,107.896,20,-146.632,0\C,32,1.48013,30,109.793,28,-176.642,0\H,33,1.10553,32,106.143,30,-178.231,0\H,33,1.10918,32,111.264,30,62.7105,0\H,33,1.10926,32,111.739,30,-58.7244,0\C,7,1.58979,2,118.838,1,-4.12396,0\H,37,1.10476,7,109.633,2,-122.34,0\C,37,1.57113,7,117.131,2,0.271823,0\O,39,1.25021,37,127.748,7,96.421,0\O,39,1.4382,37,107.621,7,-88.4377,0\C,41,1.47958,39,110.207,37,178.915,0\H,42,1.10736,41,108.829,39,127.111,0\H,42,1.10856,41,109.391,39,-113.731,0\H,42,1.10941,41,109.388,39,6.69099,0\C,37,1.58893,7,100.712,2,119.759,0\H,46,1.10712,37,113.937,7,-154.634,0\O,46,1.48159,37,103.464,7,-34.9861,0\C,48,1.47889,46,94.921,37,57.2329,0\H,49,1.10754,48,110.875,46,-179.84,0\C,46,1.57819,37,108.732,7,74.6955,0\H,51,1.10162,46,110.455,37,167.574,0\H,51,1.10169,46,112.169,37,46.1312,0\C,51,1.57371,46,101.05,37,-74.2605,0\H,54,1.1016,51,111.576,46,-117.963,0\H,54,1.10161,51,112.831,46,119.33,0\\\@

 Total job time:  55.51s(wall), 2640.69s(cpu) 
 Wed Jan 17 10:23:37 2018

        *************************************************************
        *                                                           *
        *  Thank you very much for using Q-Chem.  Have a nice day.  *
        *                                                           *
        *************************************************************


0 sent ACK to 0 
now end server 0 ... 
